                               Psi4 1.3.2 release

  ==> Input File <==

--------------------------------------------------------------------------
#psi4
#
memory 32 gb

molecule  {
-1 1
  O        1.1262918     1.2930318     0.0944936
  O       -1.4424670    -1.1799650     0.1827610
  O       -1.3575130     1.0293890    -0.3577040
  C        0.6396440    -0.0155260     0.4104950
  C        1.4464200    -1.0470520    -0.3590510
  C       -0.8609500    -0.0719650     0.0469300
  H        0.7012900    -0.2683412     1.4830481
  H        1.3388480    -0.8658950    -1.4332610
  H        2.5070550    -0.9809740    -0.0983190
  H        1.0872750    -2.0528800    -0.1336960
  H        0.3068940     1.7456410    -0.1582790
units angstrom
no_reorient  #important for SAPT in psi4, default
symmetry c1  #important for SAPT in psi4, default
}

set PROPERTIES_ORIGIN ["COM"]
properties('MP2/aug-cc-pvtz', properties = ['dipole'])
--------------------------------------------------------------------------

    Molecular point group: c1
  Charge       = -1
  Multiplicity = 1
  Basis Set: AUG-CC-PVTZ
    Blend: AUG-CC-PVTZ
  Basis Set: (AUG-CC-PVTZ AUX)
    Blend: AUG-CC-PVTZ-JKFIT

    Orbital Energies [Eh]
    ---------------------

    Doubly Occupied:

       1A    -20.381329     2A    -20.316497     3A    -20.309410
       4A    -11.151494     5A    -11.116879     6A    -11.071261
       7A     -1.206568     8A     -1.164547     9A     -1.082262
      10A     -0.862906    11A     -0.701672    12A     -0.566972
      13A     -0.504678    14A     -0.477682    15A     -0.436276
      16A     -0.403515    17A     -0.398902    18A     -0.373287
      19A     -0.367073    20A     -0.348200    21A     -0.281097
      22A     -0.232611    23A     -0.214146    24A     -0.212330

  @DF-RHF Final Energy:  -341.27958099545117

   => Energetics <=

    Nuclear Repulsion Energy =            239.3130831249148969
    One-Electron Energy =                -952.8221362637134462
    Two-Electron Energy =                 372.2294721433473796
    Total Energy =                       -341.2795809954511697
  Basis Set: (AUG-CC-PVTZ AUX)
    Blend: AUG-CC-PVTZ-RI
    Molecular point group: c1

    Geometry (in Angstrom), charge = -1, multiplicity = 1:

       Center              X                  Y                   Z               Mass
    ------------   -----------------  -----------------  -----------------  -----------------
         O            1.194602451700     1.268122053221     0.099542410691    15.994914619570
         O           -1.374156348300    -1.204874746779     0.187809810691    15.994914619570
         O           -1.289202348300     1.004479253221    -0.352655189309    15.994914619570
         C            0.707954651700    -0.040435746779     0.415543810691    12.000000000000
         C            1.514730651700    -1.071961746779    -0.354002189309    12.000000000000
         C           -0.792639348300    -0.096874746779     0.051978810691    12.000000000000
         H            0.769600651700    -0.293250946779     1.488096910691     1.007825032230
         H            1.407158651700    -0.890804746779    -1.428212189309     1.007825032230
         H            2.575365651700    -1.005883746779    -0.093270189309     1.007825032230
         H            1.155585651700    -2.077789746779    -0.128647189309     1.007825032230
         H            0.375204651700     1.720731253221    -0.153230189309     1.007825032230

  Basis Set: AUG-CC-PVTZ
    Blend: AUG-CC-PVTZ
  Basis Set: (AUG-CC-PVTZ AUX)
    Blend: AUG-CC-PVTZ-JKFIT
	 Reference Energy          =    -341.2795809954511697 [Eh]
	 Singles Energy            =      -0.0000000000000000 [Eh]
	 Same-Spin Energy          =      -0.3362245030649115 [Eh]
	 Opposite-Spin Energy      =      -1.0183784544980257 [Eh]
	 Correlation Energy        =      -1.3546029575629372 [Eh]
	 Total Energy              =    -342.6341839530140874 [Eh]

	 ================> DF-SCS-MP2 Energies <==================
	-----------------------------------------------------------
	 SCS Same-Spin Scale       =       0.3333333333333333 [-]
	 SCS Opposite-Spin Scale   =       1.2000000000000000 [-]
	 SCS Same-Spin Energy      =      -0.1120748343549705 [Eh]
	 SCS Opposite-Spin Energy  =      -1.2220541453976308 [Eh]
	 SCS Correlation Energy    =      -1.3341289797526013 [Eh]
	 SCS Total Energy          =    -342.6137099752037898 [Eh]
	-----------------------------------------------------------

  Dipole Moment: [D]
     X:     3.8279      Y:    -0.4416      Z:     0.4395     Total:     3.8783

*** Psi4 exiting successfully. Buy a developer a beer!
