                               Psi4 1.4a3.dev225

  ==> Input File <==

--------------------------------------------------------------------------
#psi4
#
memory 32 gb

molecule  {
-1 1
  O       -1.1681810     1.2683390    -0.1935740
  O        1.4902400    -1.1295240    -0.2243730
  O        1.3027740     1.0522020     0.4123420
  C       -0.6478248    -0.0222240    -0.4152654
  C       -1.4092810    -1.0711850     0.3952000
  C        0.8630350    -0.0522610    -0.0492080
  H       -0.7260590    -0.2876370    -1.4879020
  H       -1.3060210    -0.8470660     1.4617500
  H       -2.4733650    -1.0522610     0.1409170
  H       -1.0158520    -2.0724200     0.2054930
  H       -0.3572580     1.7151740     0.1591030
units angstrom
no_reorient  #important for SAPT in psi4, default
symmetry c1  #important for SAPT in psi4, default
}

set PROPERTIES_ORIGIN ["COM"]
properties('MP2/aug-cc-pvtz', properties = ['dipole'])
--------------------------------------------------------------------------

    Molecular point group: c1
  Charge       = -1
  Multiplicity = 1
  Basis Set: AUG-CC-PVTZ
    Blend: AUG-CC-PVTZ
  Basis Set: (AUG-CC-PVTZ AUX)
    Blend: AUG-CC-PVTZ-JKFIT

    Orbital Energies [Eh]
    ---------------------

    Doubly Occupied:

       1A    -20.383013     2A    -20.318912     3A    -20.311554
       4A    -11.153527     5A    -11.115833     6A    -11.071631
       7A     -1.209194     8A     -1.166938     9A     -1.084140
      10A     -0.858370    11A     -0.698561    12A     -0.569689
      13A     -0.499445    14A     -0.478491    15A     -0.437468
      16A     -0.406515    17A     -0.401140    18A     -0.375433
      19A     -0.364072    20A     -0.350592    21A     -0.276272
      22A     -0.234758    23A     -0.214770    24A     -0.213863

  @DF-RHF Final Energy:  -341.27975622086211

   => Energetics <=

    Nuclear Repulsion Energy =            239.0511392468020802
    One-Electron Energy =                -952.2734311487362220
    Two-Electron Energy =                 371.9425356810720018
    Total Energy =                       -341.2797562208621116
  Basis Set: (AUG-CC-PVTZ AUX)
    Blend: AUG-CC-PVTZ-RI
    Molecular point group: c1

    Geometry (in Angstrom), charge = -1, multiplicity = 1:

       Center              X                  Y                   Z               Mass
    ------------   -----------------  -----------------  -----------------  -----------------
         O           -1.232609345868     1.237582566581    -0.188655989965    15.994914619570
         O            1.425811654132    -1.160280433419    -0.219454989965    15.994914619570
         O            1.238345654132     1.021445566581     0.417260010035    15.994914619570
         C           -0.712253145868    -0.052980433419    -0.410347389965    12.000000000000
         C           -1.473709345868    -1.101941433419     0.400118010035    12.000000000000
         C            0.798606654132    -0.083017433419    -0.044289989965    12.000000000000
         H           -0.790487345868    -0.318393433419    -1.482983989965     1.007825032230
         H           -1.370449345868    -0.877822433419     1.466668010035     1.007825032230
         H           -2.537793345868    -1.083017433419     0.145835010035     1.007825032230
         H           -1.080280345868    -2.103176433419     0.210411010035     1.007825032230
         H           -0.421686345868     1.684417566581     0.164021010035     1.007825032230

  Basis Set: AUG-CC-PVTZ
    Blend: AUG-CC-PVTZ
  Basis Set: (AUG-CC-PVTZ AUX)
    Blend: AUG-CC-PVTZ-JKFIT
	 Reference Energy          =    -341.2797562208621116 [Eh]
	 Singles Energy            =      -0.0000000000000000 [Eh]
	 Same-Spin Energy          =      -0.3365960993975159 [Eh]
	 Opposite-Spin Energy      =      -1.0189240786724081 [Eh]
	 Correlation Energy        =      -1.3555201780699240 [Eh]
	 Total Energy              =    -342.6352763989320351 [Eh]

	 ================> DF-SCS-MP2 Energies <==================
	-----------------------------------------------------------
	 SCS Same-Spin Scale       =       0.3333333333333333 [-]
	 SCS Opposite-Spin Scale   =       1.2000000000000000 [-]
	 SCS Same-Spin Energy      =      -0.1121986997991720 [Eh]
	 SCS Opposite-Spin Energy  =      -1.2227088944068896 [Eh]
	 SCS Correlation Energy    =      -1.3349075942060615 [Eh]
	 SCS Total Energy          =    -342.6146638150681838 [Eh]
	-----------------------------------------------------------

  Dipole Moment: [D]
     X:    -3.7536      Y:    -0.5290      Z:    -0.2887     Total:     3.8017

*** Psi4 exiting successfully. Buy a developer a beer!
