                               Psi4 1.3.2 release

  ==> Input File <==

--------------------------------------------------------------------------
#psi4
#
memory 32 gb

molecule  {
-1 1
  O        1.2038828     1.2772361     0.1667588
  O       -1.4424670    -1.1799650     0.1827610
  O       -1.3575130     1.0293890    -0.3577040
  C        0.6396440    -0.0155260     0.4104950
  C        1.4464200    -1.0470520    -0.3590510
  C       -0.8614436    -0.1494924     0.0700008
  H        0.7165270    -0.2335850     1.4896730
  H        1.3388480    -0.8658950    -1.4332610
  H        2.5070550    -0.9809740    -0.0983190
  H        1.0872750    -2.0528800    -0.1336960
  H        0.3068940     1.7456410    -0.1582790
units angstrom
no_reorient  #important for SAPT in psi4, default
symmetry c1  #important for SAPT in psi4, default
}

set PROPERTIES_ORIGIN ["COM"]
properties('MP2/aug-cc-pvtz', properties = ['dipole'])
--------------------------------------------------------------------------

    Molecular point group: c1
  Charge       = -1
  Multiplicity = 1
  Basis Set: AUG-CC-PVTZ
    Blend: AUG-CC-PVTZ
  Basis Set: (AUG-CC-PVTZ AUX)
    Blend: AUG-CC-PVTZ-JKFIT

    Orbital Energies [Eh]
    ---------------------

    Doubly Occupied:

       1A    -20.384264     2A    -20.331433     3A    -20.304020
       4A    -11.154598     5A    -11.115217     6A    -11.070999
       7A     -1.215745     8A     -1.168283     9A     -1.062889
      10A     -0.860462    11A     -0.700174    12A     -0.557384
      13A     -0.497143    14A     -0.479572    15A     -0.435777
      16A     -0.404847    17A     -0.395322    18A     -0.380516
      19A     -0.365853    20A     -0.356238    21A     -0.273240
      22A     -0.225722    23A     -0.215734    24A     -0.214319

  @DF-RHF Final Energy:  -341.26085247668419

   => Energetics <=

    Nuclear Repulsion Energy =            238.1960597084196252
    One-Electron Energy =                -950.5743208302294533
    Two-Electron Energy =                 371.1174086451256358
    Total Energy =                       -341.2608524766841924
  Basis Set: (AUG-CC-PVTZ AUX)
    Blend: AUG-CC-PVTZ-RI
    Molecular point group: c1

    Geometry (in Angstrom), charge = -1, multiplicity = 1:

       Center              X                  Y                   Z               Mass
    ------------   -----------------  -----------------  -----------------  -----------------
         O            1.258146719470     1.265221226440     0.155638890326    15.994914619570
         O           -1.388203080530    -1.191979873560     0.171641090326    15.994914619570
         O           -1.303249080530     1.017374126440    -0.368823909674    15.994914619570
         C            0.693907919470    -0.027540873560     0.399375090326    12.000000000000
         C            1.500683919470    -1.059066873560    -0.370170909674    12.000000000000
         C           -0.807179680530    -0.161507273560     0.058880890326    12.000000000000
         H            0.770790919470    -0.245599873560     1.478553090326     1.007825032230
         H            1.393111919470    -0.877909873560    -1.444380909674     1.007825032230
         H            2.561318919470    -0.992988873560    -0.109438909674     1.007825032230
         H            1.141538919470    -2.064894873560    -0.144815909674     1.007825032230
         H            0.361157919470     1.733626126440    -0.169398909674     1.007825032230

  Basis Set: AUG-CC-PVTZ
    Blend: AUG-CC-PVTZ
  Basis Set: (AUG-CC-PVTZ AUX)
    Blend: AUG-CC-PVTZ-JKFIT
	 Reference Energy          =    -341.2608524766841924 [Eh]
	 Singles Energy            =      -0.0000000000000000 [Eh]
	 Same-Spin Energy          =      -0.3379448421926091 [Eh]
	 Opposite-Spin Energy      =      -1.0221446014816364 [Eh]
	 Correlation Energy        =      -1.3600894436742457 [Eh]
	 Total Energy              =    -342.6209419203584616 [Eh]

	 ================> DF-SCS-MP2 Energies <==================
	-----------------------------------------------------------
	 SCS Same-Spin Scale       =       0.3333333333333333 [-]
	 SCS Opposite-Spin Scale   =       1.2000000000000000 [-]
	 SCS Same-Spin Energy      =      -0.1126482807308697 [Eh]
	 SCS Opposite-Spin Energy  =      -1.2265735217779636 [Eh]
	 SCS Correlation Energy    =      -1.3392218025088334 [Eh]
	 SCS Total Energy          =    -342.6000742791930520 [Eh]
	-----------------------------------------------------------

  Dipole Moment: [D]
     X:     3.5556      Y:    -1.2997      Z:     0.5399     Total:     3.8240

*** Psi4 exiting successfully. Buy a developer a beer!
