                               Psi4 1.3.2 release

  ==> Input File <==

--------------------------------------------------------------------------
#psi4
#
memory 32 gb

molecule  {
-1 1
  O        1.1365690     1.2999450     0.1428980
  O       -1.4424670    -1.1799650     0.1827610
  O       -1.3575130     1.0293890    -0.3577040
  C        0.6049288    -0.1074247     0.4291893
  C        1.4464200    -1.0470520    -0.3590510
  C       -0.8609500    -0.0719650     0.0469300
  H        0.7165270    -0.2335850     1.4896730
  H        1.3388480    -0.8658950    -1.4332610
  H        2.5070550    -0.9809740    -0.0983190
  H        1.0872750    -2.0528800    -0.1336960
  H        0.3068940     1.7456410    -0.1582790
units angstrom
no_reorient  #important for SAPT in psi4, default
symmetry c1  #important for SAPT in psi4, default
}

set PROPERTIES_ORIGIN ["COM"]
properties('MP2/aug-cc-pvtz', properties = ['dipole'])
--------------------------------------------------------------------------

    Molecular point group: c1
  Charge       = -1
  Multiplicity = 1
  Basis Set: AUG-CC-PVTZ
    Blend: AUG-CC-PVTZ
  Basis Set: (AUG-CC-PVTZ AUX)
    Blend: AUG-CC-PVTZ-JKFIT

    Orbital Energies [Eh]
    ---------------------

    Doubly Occupied:

       1A    -20.369704     2A    -20.319090     3A    -20.310593
       4A    -11.154047     5A    -11.118160     6A    -11.075411
       7A     -1.194363     8A     -1.139720     9A     -1.084037
      10A     -0.874924    11A     -0.709910    12A     -0.561332
      13A     -0.495257    14A     -0.474816    15A     -0.436875
      16A     -0.408430    17A     -0.400530    18A     -0.371374
      19A     -0.352260    20A     -0.341637    21A     -0.283149
      22A     -0.235632    23A     -0.218439    24A     -0.213959

  @DF-RHF Final Energy:  -341.26883153451587

   => Energetics <=

    Nuclear Repulsion Energy =            238.6116249548528572
    One-Electron Energy =                -951.4736117114456420
    Two-Electron Energy =                 371.5931552220769731
    Total Energy =                       -341.2688315345158685
  Basis Set: (AUG-CC-PVTZ AUX)
    Blend: AUG-CC-PVTZ-RI
    Molecular point group: c1

    Geometry (in Angstrom), charge = -1, multiplicity = 1:

       Center              X                  Y                   Z               Mass
    ------------   -----------------  -----------------  -----------------  -----------------
         O            1.207540098119     1.285787203214     0.136655090882    15.994914619570
         O           -1.371495901881    -1.194122796786     0.176518090882    15.994914619570
         O           -1.286541901881     1.015231203214    -0.363946909118    15.994914619570
         C            0.675899898119    -0.121582496786     0.422946390882    12.000000000000
         C            1.517391098119    -1.061209796786    -0.365293909118    12.000000000000
         C           -0.789978901881    -0.086122796786     0.040687090882    12.000000000000
         H            0.787498098119    -0.247742796786     1.483430090882     1.007825032230
         H            1.409819098119    -0.880052796786    -1.439503909118     1.007825032230
         H            2.578026098119    -0.995131796786    -0.104561909118     1.007825032230
         H            1.158246098119    -2.067037796786    -0.139938909118     1.007825032230
         H            0.377865098119     1.731483203214    -0.164521909118     1.007825032230

  Basis Set: AUG-CC-PVTZ
    Blend: AUG-CC-PVTZ
  Basis Set: (AUG-CC-PVTZ AUX)
    Blend: AUG-CC-PVTZ-JKFIT
	 Reference Energy          =    -341.2688315345158685 [Eh]
	 Singles Energy            =      -0.0000000000000000 [Eh]
	 Same-Spin Energy          =      -0.3370702880359157 [Eh]
	 Opposite-Spin Energy      =      -1.0213826397661243 [Eh]
	 Correlation Energy        =      -1.3584529278020401 [Eh]
	 Total Energy              =    -342.6272844623179026 [Eh]

	 ================> DF-SCS-MP2 Energies <==================
	-----------------------------------------------------------
	 SCS Same-Spin Scale       =       0.3333333333333333 [-]
	 SCS Opposite-Spin Scale   =       1.2000000000000000 [-]
	 SCS Same-Spin Energy      =      -0.1123567626786386 [Eh]
	 SCS Opposite-Spin Energy  =      -1.2256591677193491 [Eh]
	 SCS Correlation Energy    =      -1.3380159303979877 [Eh]
	 SCS Total Energy          =    -342.6068474649138693 [Eh]
	-----------------------------------------------------------

  Dipole Moment: [D]
     X:     3.7236      Y:    -0.8758      Z:     0.4331     Total:     3.8496

*** Psi4 exiting successfully. Buy a developer a beer!
