                               Psi4 1.4a3.dev225

  ==> Input File <==

--------------------------------------------------------------------------
#psi4
#
memory 32 gb

molecule  {
-1 1
  O       -1.1681810     1.2683390    -0.1935740
  O        1.4902400    -1.1295240    -0.2243730
  O        1.3027740     1.0522020     0.4123420
  C       -0.6404390    -0.0405420    -0.4184120
  C       -1.4092810    -1.0711850     0.3952000
  C        0.8630350    -0.0522610    -0.0492080
  H       -0.7260590    -0.2876370    -1.4879020
  H       -1.3060210    -0.8470660     1.4617500
  H       -2.4733650    -1.0522610     0.1409170
  H       -1.0158520    -2.0724200     0.2054930
  H       -0.3736274     1.7061541     0.1519838
units angstrom
no_reorient  #important for SAPT in psi4, default
symmetry c1  #important for SAPT in psi4, default
}

set PROPERTIES_ORIGIN ["COM"]
properties('MP2/aug-cc-pvtz', properties = ['dipole'])
--------------------------------------------------------------------------

    Molecular point group: c1
  Charge       = -1
  Multiplicity = 1
  Basis Set: AUG-CC-PVTZ
    Blend: AUG-CC-PVTZ
  Basis Set: (AUG-CC-PVTZ AUX)
    Blend: AUG-CC-PVTZ-JKFIT

    Orbital Energies [Eh]
    ---------------------

    Doubly Occupied:

       1A    -20.380556     2A    -20.318091     3A    -20.311190
       4A    -11.153441     5A    -11.116157     6A    -11.072567
       7A     -1.207097     8A     -1.165612     9A     -1.083658
      10A     -0.862074    11A     -0.700964    12A     -0.569984
      13A     -0.499456    14A     -0.477660    15A     -0.436993
      16A     -0.406953    17A     -0.401859    18A     -0.372257
      19A     -0.367054    20A     -0.349868    21A     -0.279440
      22A     -0.234401    23A     -0.215241    24A     -0.213850

  @DF-RHF Final Energy:  -341.28056064269856

   => Energetics <=

    Nuclear Repulsion Energy =            239.0634108091467738
    One-Electron Energy =                -952.2950997885728839
    Two-Electron Energy =                 371.9511283367274928
    Total Energy =                       -341.2805606426985605
  Basis Set: (AUG-CC-PVTZ AUX)
    Blend: AUG-CC-PVTZ-RI
    Molecular point group: c1

    Geometry (in Angstrom), charge = -1, multiplicity = 1:

       Center              X                  Y                   Z               Mass
    ------------   -----------------  -----------------  -----------------  -----------------
         O           -1.233419601698     1.240153859915    -0.188151247715    15.994914619570
         O            1.425001398302    -1.157709140085    -0.218950247715    15.994914619570
         O            1.237535398302     1.024016859915     0.417764752285    15.994914619570
         C           -0.705677601698    -0.068727140085    -0.412989247715    12.000000000000
         C           -1.474519601698    -1.099370140085     0.400622752285    12.000000000000
         C            0.797796398302    -0.080446140085    -0.043785247715    12.000000000000
         H           -0.791297601698    -0.315822140085    -1.482479247715     1.007825032230
         H           -1.371259601698    -0.875251140085     1.467172752285     1.007825032230
         H           -2.538603601698    -1.080446140085     0.146339752285     1.007825032230
         H           -1.081090601698    -2.100605140085     0.210915752285     1.007825032230
         H           -0.438866001698     1.677968959915     0.157406552285     1.007825032230

  Basis Set: AUG-CC-PVTZ
    Blend: AUG-CC-PVTZ
  Basis Set: (AUG-CC-PVTZ AUX)
    Blend: AUG-CC-PVTZ-JKFIT
	 Reference Energy          =    -341.2805606426985605 [Eh]
	 Singles Energy            =      -0.0000000000000000 [Eh]
	 Same-Spin Energy          =      -0.3362759222268707 [Eh]
	 Opposite-Spin Energy      =      -1.0186008832728084 [Eh]
	 Correlation Energy        =      -1.3548768054996791 [Eh]
	 Total Energy              =    -342.6354374481982177 [Eh]

	 ================> DF-SCS-MP2 Energies <==================
	-----------------------------------------------------------
	 SCS Same-Spin Scale       =       0.3333333333333333 [-]
	 SCS Opposite-Spin Scale   =       1.2000000000000000 [-]
	 SCS Same-Spin Energy      =      -0.1120919740756236 [Eh]
	 SCS Opposite-Spin Energy  =      -1.2223210599273699 [Eh]
	 SCS Correlation Energy    =      -1.3344130340029936 [Eh]
	 SCS Total Energy          =    -342.6149736767015384 [Eh]
	-----------------------------------------------------------

  Dipole Moment: [D]
     X:    -3.7935      Y:    -0.6143      Z:    -0.3116     Total:     3.8555

*** Psi4 exiting successfully. Buy a developer a beer!
