                               Psi4 1.3.2 release

  ==> Input File <==

--------------------------------------------------------------------------
#psi4
#
memory 32 gb

molecule  {
-1 1
  O        1.1508459     1.3073076     0.2160974
  O       -1.4424670    -1.1799650     0.1827610
  O       -1.3575130     1.0293890    -0.3577040
  C        0.6396440    -0.0155260     0.4104950
  C        1.4464200    -1.0470520    -0.3590510
  C       -0.8609500    -0.0719650     0.0469300
  H        0.7392010    -0.1809658     1.4971430
  H        1.3388480    -0.8658950    -1.4332610
  H        2.5070550    -0.9809740    -0.0983190
  H        1.0872750    -2.0528800    -0.1336960
  H        0.3068940     1.7456410    -0.1582790
units angstrom
no_reorient  #important for SAPT in psi4, default
symmetry c1  #important for SAPT in psi4, default
}

set PROPERTIES_ORIGIN ["COM"]
properties('MP2/aug-cc-pvtz', properties = ['dipole'])
--------------------------------------------------------------------------

    Molecular point group: c1
  Charge       = -1
  Multiplicity = 1
  Basis Set: AUG-CC-PVTZ
    Blend: AUG-CC-PVTZ
  Basis Set: (AUG-CC-PVTZ AUX)
    Blend: AUG-CC-PVTZ-JKFIT

    Orbital Energies [Eh]
    ---------------------

    Doubly Occupied:

       1A    -20.382432     2A    -20.320132     3A    -20.311480
       4A    -11.154201     5A    -11.115364     6A    -11.072905
       7A     -1.201288     8A     -1.161255     9A     -1.084691
      10A     -0.860381    11A     -0.700088    12A     -0.565731
      13A     -0.495071    14A     -0.475764    15A     -0.437374
      16A     -0.405468    17A     -0.401536    18A     -0.370857
      19A     -0.363742    20A     -0.350747    21A     -0.275977
      22A     -0.235277    23A     -0.216498    24A     -0.214890

  @DF-RHF Final Energy:  -341.27594882742397

   => Energetics <=

    Nuclear Repulsion Energy =            238.4335098570273885
    One-Electron Energy =                -951.0726199207139189
    Two-Electron Energy =                 371.3631612362625560
    Total Energy =                       -341.2759488274239743
  Basis Set: (AUG-CC-PVTZ AUX)
    Blend: AUG-CC-PVTZ-RI
    Molecular point group: c1

    Geometry (in Angstrom), charge = -1, multiplicity = 1:

       Center              X                  Y                   Z               Mass
    ------------   -----------------  -----------------  -----------------  -----------------
         O            1.214315733248     1.278843757888     0.199138095193    15.994914619570
         O           -1.378997166752    -1.208428842112     0.165801695193    15.994914619570
         O           -1.294043166752     1.000925157888    -0.374663304807    15.994914619570
         C            0.703113833248    -0.043989842112     0.393535695193    12.000000000000
         C            1.509889833248    -1.075515842112    -0.376010304807    12.000000000000
         C           -0.797480166752    -0.100428842112     0.029970695193    12.000000000000
         H            0.802670833248    -0.209429642112     1.480183695193     1.007825032230
         H            1.402317833248    -0.894358842112    -1.450220304807     1.007825032230
         H            2.570524833248    -1.009437842112    -0.115278304807     1.007825032230
         H            1.150744833248    -2.081343842112    -0.150655304807     1.007825032230
         H            0.370363833248     1.717177157888    -0.175238304807     1.007825032230

  Basis Set: AUG-CC-PVTZ
    Blend: AUG-CC-PVTZ
  Basis Set: (AUG-CC-PVTZ AUX)
    Blend: AUG-CC-PVTZ-JKFIT
	 Reference Energy          =    -341.2759488274239743 [Eh]
	 Singles Energy            =      -0.0000000000000000 [Eh]
	 Same-Spin Energy          =      -0.3370410378747605 [Eh]
	 Opposite-Spin Energy      =      -1.0203123306001698 [Eh]
	 Correlation Energy        =      -1.3573533684749304 [Eh]
	 Total Energy              =    -342.6333021958989207 [Eh]

	 ================> DF-SCS-MP2 Energies <==================
	-----------------------------------------------------------
	 SCS Same-Spin Scale       =       0.3333333333333333 [-]
	 SCS Opposite-Spin Scale   =       1.2000000000000000 [-]
	 SCS Same-Spin Energy      =      -0.1123470126249202 [Eh]
	 SCS Opposite-Spin Energy  =      -1.2243747967202037 [Eh]
	 SCS Correlation Energy    =      -1.3367218093451239 [Eh]
	 SCS Total Energy          =    -342.6126706367691099 [Eh]
	-----------------------------------------------------------

  Dipole Moment: [D]
     X:     3.7388      Y:    -0.5229      Z:     0.2763     Total:     3.7853

*** Psi4 exiting successfully. Buy a developer a beer!
