                               Psi4 1.3.2 release

  ==> Input File <==

--------------------------------------------------------------------------
#psi4
#
memory 32 gb

molecule  {
-1 1
  O        1.1365690     1.2999450     0.1428980
  O       -1.4796628    -1.1612983     0.1686820
  O       -1.3967885     1.0090617    -0.3623896
  C        0.6396440    -0.0155260     0.4104950
  C        1.4464200    -1.0470520    -0.3590510
  C       -0.8609500    -0.0719650     0.0469300
  H        0.7165270    -0.2335850     1.4896730
  H        1.3388480    -0.8658950    -1.4332610
  H        2.5070550    -0.9809740    -0.0983190
  H        1.0872750    -2.0528800    -0.1336960
  H        0.3068940     1.7456410    -0.1582790
units angstrom
no_reorient  #important for SAPT in psi4, default
symmetry c1  #important for SAPT in psi4, default
}

set PROPERTIES_ORIGIN ["COM"]
properties('MP2/aug-cc-pvtz', properties = ['dipole'])
--------------------------------------------------------------------------

    Molecular point group: c1
  Charge       = -1
  Multiplicity = 1
  Basis Set: AUG-CC-PVTZ
    Blend: AUG-CC-PVTZ
  Basis Set: (AUG-CC-PVTZ AUX)
    Blend: AUG-CC-PVTZ-JKFIT

    Orbital Energies [Eh]
    ---------------------

    Doubly Occupied:

       1A    -20.386381     2A    -20.313634     3A    -20.306038
       4A    -11.150412     5A    -11.121406     6A    -11.074620
       7A     -1.204788     8A     -1.165822     9A     -1.075315
      10A     -0.865263    11A     -0.704208    12A     -0.569300
      13A     -0.499355    14A     -0.477998    15A     -0.437120
      16A     -0.406233    17A     -0.398771    18A     -0.373330
      19A     -0.368918    20A     -0.349165    21A     -0.282466
      22A     -0.229652    23A     -0.214909    24A     -0.208246

  @DF-RHF Final Energy:  -341.27812900996065

   => Energetics <=

    Nuclear Repulsion Energy =            238.4740140119507998
    One-Electron Energy =                -951.1375835675833059
    Two-Electron Energy =                 371.3854405456718837
    Total Energy =                       -341.2781290099606508
  Basis Set: (AUG-CC-PVTZ AUX)
    Blend: AUG-CC-PVTZ-RI
    Molecular point group: c1

    Geometry (in Angstrom), charge = -1, multiplicity = 1:

       Center              X                  Y                   Z               Mass
    ------------   -----------------  -----------------  -----------------  -----------------
         O            1.216600247079     1.273698049410     0.142546429696    15.994914619570
         O           -1.399631552921    -1.187545250590     0.168330429696    15.994914619570
         O           -1.316757252921     0.982814749410    -0.362741170304    15.994914619570
         C            0.719675247079    -0.041772950590     0.410143429696    12.000000000000
         C            1.526451247079    -1.073298950590    -0.359402570304    12.000000000000
         C           -0.780918752921    -0.098211950590     0.046578429696    12.000000000000
         H            0.796558247079    -0.259831950590     1.489321429696     1.007825032230
         H            1.418879247079    -0.892141950590    -1.433612570304     1.007825032230
         H            2.587086247079    -1.007220950590    -0.098670570304     1.007825032230
         H            1.167306247079    -2.079126950590    -0.134047570304     1.007825032230
         H            0.386925247079     1.719394049410    -0.158630570304     1.007825032230

  Basis Set: AUG-CC-PVTZ
    Blend: AUG-CC-PVTZ
  Basis Set: (AUG-CC-PVTZ AUX)
    Blend: AUG-CC-PVTZ-JKFIT
	 Reference Energy          =    -341.2781290099606508 [Eh]
	 Singles Energy            =      -0.0000000000000000 [Eh]
	 Same-Spin Energy          =      -0.3362947112606386 [Eh]
	 Opposite-Spin Energy      =      -1.0189036230953226 [Eh]
	 Correlation Energy        =      -1.3551983343559613 [Eh]
	 Total Energy              =    -342.6333273443166263 [Eh]

	 ================> DF-SCS-MP2 Energies <==================
	-----------------------------------------------------------
	 SCS Same-Spin Scale       =       0.3333333333333333 [-]
	 SCS Opposite-Spin Scale   =       1.2000000000000000 [-]
	 SCS Same-Spin Energy      =      -0.1120982370868795 [Eh]
	 SCS Opposite-Spin Energy  =      -1.2226843477143869 [Eh]
	 SCS Correlation Energy    =      -1.3347825848012664 [Eh]
	 SCS Total Energy          =    -342.6129115947618970 [Eh]
	-----------------------------------------------------------

  Dipole Moment: [D]
     X:     4.0337      Y:    -0.4699      Z:     0.4152     Total:     4.0822

*** Psi4 exiting successfully. Buy a developer a beer!
