                               Psi4 1.3.2 release

  ==> Input File <==

--------------------------------------------------------------------------
#psi4
#
memory 32 gb

molecule  {
-1 1
  O        1.1315053     1.2966883     0.1186514
  O       -1.4424670    -1.1799650     0.1827610
  O       -1.3575130     1.0293890    -0.3577040
  C        0.6396440    -0.0155260     0.4104950
  C        1.4464200    -1.0470520    -0.3590510
  C       -0.8609500    -0.0719650     0.0469300
  H        0.7089191    -0.2509990     1.4865244
  H        1.3388480    -0.8658950    -1.4332610
  H        2.5070550    -0.9809740    -0.0983190
  H        1.0872750    -2.0528800    -0.1336960
  H        0.3068940     1.7456410    -0.1582790
units angstrom
no_reorient  #important for SAPT in psi4, default
symmetry c1  #important for SAPT in psi4, default
}

set PROPERTIES_ORIGIN ["COM"]
properties('MP2/aug-cc-pvtz', properties = ['dipole'])
--------------------------------------------------------------------------

    Molecular point group: c1
  Charge       = -1
  Multiplicity = 1
  Basis Set: AUG-CC-PVTZ
    Blend: AUG-CC-PVTZ
  Basis Set: (AUG-CC-PVTZ AUX)
    Blend: AUG-CC-PVTZ-JKFIT

    Orbital Energies [Eh]
    ---------------------

    Doubly Occupied:

       1A    -20.381464     2A    -20.317199     3A    -20.309830
       4A    -11.152054     5A    -11.116597     6A    -11.071608
       7A     -1.205342     8A     -1.164064     9A     -1.082742
      10A     -0.862408    11A     -0.701404    12A     -0.566687
      13A     -0.502425    14A     -0.477611    15A     -0.436476
      16A     -0.403993    17A     -0.399456    18A     -0.372716
      19A     -0.366794    20A     -0.348832    21A     -0.280204
      22A     -0.233145    23A     -0.214598    24A     -0.212924

  @DF-RHF Final Energy:  -341.27995678591736

   => Energetics <=

    Nuclear Repulsion Energy =            239.1323752475507831
    One-Electron Energy =                -952.4635199563077776
    Two-Electron Energy =                 372.0511879228395742
    Total Energy =                       -341.2799567859173635
  Basis Set: (AUG-CC-PVTZ AUX)
    Blend: AUG-CC-PVTZ-RI
    Molecular point group: c1

    Geometry (in Angstrom), charge = -1, multiplicity = 1:

       Center              X                  Y                   Z               Mass
    ------------   -----------------  -----------------  -----------------  -----------------
         O            1.198792874560     1.270925261745     0.119320425192    15.994914619570
         O           -1.375179425440    -1.205728038255     0.183430025192    15.994914619570
         O           -1.290225425440     1.003625961745    -0.357034974808    15.994914619570
         C            0.706931574560    -0.041289038255     0.411164025192    12.000000000000
         C            1.513707574560    -1.072815038255    -0.358381974808    12.000000000000
         C           -0.793662425440    -0.097728038255     0.047599025192    12.000000000000
         H            0.776206674560    -0.276762038255     1.487193425192     1.007825032230
         H            1.406135574560    -0.891658038255    -1.432591974808     1.007825032230
         H            2.574342574560    -1.006737038255    -0.097649974808     1.007825032230
         H            1.154562574560    -2.078643038255    -0.133026974808     1.007825032230
         H            0.374181574560     1.719877961745    -0.157609974808     1.007825032230

  Basis Set: AUG-CC-PVTZ
    Blend: AUG-CC-PVTZ
  Basis Set: (AUG-CC-PVTZ AUX)
    Blend: AUG-CC-PVTZ-JKFIT
	 Reference Energy          =    -341.2799567859173635 [Eh]
	 Singles Energy            =      -0.0000000000000000 [Eh]
	 Same-Spin Energy          =      -0.3363320320658379 [Eh]
	 Opposite-Spin Energy      =      -1.0186621847310979 [Eh]
	 Correlation Energy        =      -1.3549942167969360 [Eh]
	 Total Energy              =    -342.6349510027142742 [Eh]

	 ================> DF-SCS-MP2 Energies <==================
	-----------------------------------------------------------
	 SCS Same-Spin Scale       =       0.3333333333333333 [-]
	 SCS Opposite-Spin Scale   =       1.2000000000000000 [-]
	 SCS Same-Spin Energy      =      -0.1121106773552793 [Eh]
	 SCS Opposite-Spin Energy  =      -1.2223946216773174 [Eh]
	 SCS Correlation Energy    =      -1.3345052990325967 [Eh]
	 SCS Total Energy          =    -342.6144620849499347 [Eh]
	-----------------------------------------------------------

  Dipole Moment: [D]
     X:     3.8104      Y:    -0.4598      Z:     0.4076     Total:     3.8596

*** Psi4 exiting successfully. Buy a developer a beer!
