                               Psi4 1.3.2 release

  ==> Input File <==

--------------------------------------------------------------------------
#psi4
#
memory 32 gb

molecule  {
-1 1
  O        1.1878414     1.2692434     0.0976792
  O       -1.4424670    -1.1799650     0.1827610
  O       -1.3575130     1.0293890    -0.3577040
  C        0.6396440    -0.0155260     0.4104950
  C        1.4902359    -0.9876486    -0.3886330
  C       -0.8609500    -0.0719650     0.0469300
  H        0.7165270    -0.2335850     1.4896730
  H        1.3388480    -0.8658950    -1.4332610
  H        2.5070550    -0.9809740    -0.0983190
  H        1.0872750    -2.0528800    -0.1336960
  H        0.3068940     1.7456410    -0.1582790
units angstrom
no_reorient  #important for SAPT in psi4, default
symmetry c1  #important for SAPT in psi4, default
}

set PROPERTIES_ORIGIN ["COM"]
properties('MP2/aug-cc-pvtz', properties = ['dipole'])
--------------------------------------------------------------------------

    Molecular point group: c1
  Charge       = -1
  Multiplicity = 1
  Basis Set: AUG-CC-PVTZ
    Blend: AUG-CC-PVTZ
  Basis Set: (AUG-CC-PVTZ AUX)
    Blend: AUG-CC-PVTZ-JKFIT

    Orbital Energies [Eh]
    ---------------------

    Doubly Occupied:

       1A    -20.383160     2A    -20.321246     3A    -20.312013
       4A    -11.155069     5A    -11.116074     6A    -11.070034
       7A     -1.201317     8A     -1.161246     9A     -1.085417
      10A     -0.857223    11A     -0.702217    12A     -0.561989
      13A     -0.498546    14A     -0.480302    15A     -0.437559
      16A     -0.407132    17A     -0.397981    18A     -0.370829
      19A     -0.358539    20A     -0.344553    21A     -0.276062
      22A     -0.235855    23A     -0.217369    24A     -0.215140

  @DF-RHF Final Energy:  -341.26729852952906

   => Energetics <=

    Nuclear Repulsion Energy =            238.6787986252525684
    One-Electron Energy =                -951.5584527388633660
    Two-Electron Energy =                 371.6123555840816834
    Total Energy =                       -341.2672985295290573
  Basis Set: (AUG-CC-PVTZ AUX)
    Blend: AUG-CC-PVTZ-RI
    Molecular point group: c1

    Geometry (in Angstrom), charge = -1, multiplicity = 1:

       Center              X                  Y                   Z               Mass
    ------------   -----------------  -----------------  -----------------  -----------------
         O            1.239014764323     1.240206944896     0.106068169496    15.994914619570
         O           -1.391293635677    -1.209001455104     0.191149969496    15.994914619570
         O           -1.306339635677     1.000352544896    -0.349315030504    15.994914619570
         C            0.690817364323    -0.044562455104     0.418883969496    12.000000000000
         C            1.541409264323    -1.016685055104    -0.380244030504    12.000000000000
         C           -0.809776635677    -0.101001455104     0.055318969496    12.000000000000
         H            0.767700364323    -0.262621455104     1.498061969496     1.007825032230
         H            1.390021364323    -0.894931455104    -1.424872030504     1.007825032230
         H            2.558228364323    -1.010010455104    -0.089930030504     1.007825032230
         H            1.138448364323    -2.081916455104    -0.125307030504     1.007825032230
         H            0.358067364323     1.716604544896    -0.149890030504     1.007825032230

  Basis Set: AUG-CC-PVTZ
    Blend: AUG-CC-PVTZ
  Basis Set: (AUG-CC-PVTZ AUX)
    Blend: AUG-CC-PVTZ-JKFIT
	 Reference Energy          =    -341.2672985295290573 [Eh]
	 Singles Energy            =      -0.0000000000000000 [Eh]
	 Same-Spin Energy          =      -0.3375612965536848 [Eh]
	 Opposite-Spin Energy      =      -1.0213366791659657 [Eh]
	 Correlation Energy        =      -1.3588979757196504 [Eh]
	 Total Energy              =    -342.6261965052486858 [Eh]

	 ================> DF-SCS-MP2 Energies <==================
	-----------------------------------------------------------
	 SCS Same-Spin Scale       =       0.3333333333333333 [-]
	 SCS Opposite-Spin Scale   =       1.2000000000000000 [-]
	 SCS Same-Spin Energy      =      -0.1125204321845616 [Eh]
	 SCS Opposite-Spin Energy  =      -1.2256040149991587 [Eh]
	 SCS Correlation Energy    =      -1.3381244471837204 [Eh]
	 SCS Total Energy          =    -342.6054229767127595 [Eh]
	-----------------------------------------------------------

  Dipole Moment: [D]
     X:     3.7060      Y:    -0.3506      Z:     0.3997     Total:     3.7439

*** Psi4 exiting successfully. Buy a developer a beer!
