                               Psi4 1.3.2 release

  ==> Input File <==

--------------------------------------------------------------------------
#psi4
#
memory 32 gb

molecule  {
-1 1
  O        1.1365690     1.2999450     0.1428980
  O       -1.4518317    -1.1754266     0.1792461
  O       -1.3575130     1.0293890    -0.3577040
  C        0.6398842    -0.0024481     0.4072235
  C        1.4464200    -1.0470520    -0.3590510
  C       -0.8609500    -0.0719650     0.0469300
  H        0.7165270    -0.2335850     1.4896730
  H        1.3388480    -0.8658950    -1.4332610
  H        2.5070550    -0.9809740    -0.0983190
  H        1.0872750    -2.0528800    -0.1336960
  H        0.3068940     1.7456410    -0.1582790
units angstrom
no_reorient  #important for SAPT in psi4, default
symmetry c1  #important for SAPT in psi4, default
}

set PROPERTIES_ORIGIN ["COM"]
properties('MP2/aug-cc-pvtz', properties = ['dipole'])
--------------------------------------------------------------------------

    Molecular point group: c1
  Charge       = -1
  Multiplicity = 1
  Basis Set: AUG-CC-PVTZ
    Blend: AUG-CC-PVTZ
  Basis Set: (AUG-CC-PVTZ AUX)
    Blend: AUG-CC-PVTZ-JKFIT

    Orbital Energies [Eh]
    ---------------------

    Doubly Occupied:

       1A    -20.383544     2A    -20.317159     3A    -20.310004
       4A    -11.152188     5A    -11.117101     6A    -11.071991
       7A     -1.207358     8A     -1.165959     9A     -1.082316
      10A     -0.860205    11A     -0.701059    12A     -0.568439
      13A     -0.500423    14A     -0.478159    15A     -0.437349
      16A     -0.404659    17A     -0.399216    18A     -0.374823
      19A     -0.366234    20A     -0.349850    21A     -0.277736
      22A     -0.232986    23A     -0.215228    24A     -0.212958

  @DF-RHF Final Energy:  -341.27988082653104

   => Energetics <=

    Nuclear Repulsion Energy =            238.9953911798972115
    One-Electron Energy =                -952.1766509372743030
    Two-Electron Energy =                 371.9013789308460787
    Total Energy =                       -341.2798808265310413
  Basis Set: (AUG-CC-PVTZ AUX)
    Blend: AUG-CC-PVTZ-RI
    Molecular point group: c1

    Geometry (in Angstrom), charge = -1, multiplicity = 1:

       Center              X                  Y                   Z               Mass
    ------------   -----------------  -----------------  -----------------  -----------------
         O            1.204510829384     1.270821435772     0.140247499625    15.994914619570
         O           -1.383889870616    -1.204550164228     0.176595599625    15.994914619570
         O           -1.289571170616     1.000265435772    -0.360354500375    15.994914619570
         C            0.707826029384    -0.031571664228     0.404572999625    12.000000000000
         C            1.514361829384    -1.076175564228    -0.361701500375    12.000000000000
         C           -0.793008170616    -0.101088564228     0.044279499625    12.000000000000
         H            0.784468829384    -0.262708564228     1.487022499625     1.007825032230
         H            1.406789829384    -0.895018564228    -1.435911500375     1.007825032230
         H            2.574996829384    -1.010097564228    -0.100969500375     1.007825032230
         H            1.155216829384    -2.082003564228    -0.136346500375     1.007825032230
         H            0.374835829384     1.716517435772    -0.160929500375     1.007825032230

  Basis Set: AUG-CC-PVTZ
    Blend: AUG-CC-PVTZ
  Basis Set: (AUG-CC-PVTZ AUX)
    Blend: AUG-CC-PVTZ-JKFIT
	 Reference Energy          =    -341.2798808265310413 [Eh]
	 Singles Energy            =      -0.0000000000000000 [Eh]
	 Same-Spin Energy          =      -0.3364343203030173 [Eh]
	 Opposite-Spin Energy      =      -1.0187839183560787 [Eh]
	 Correlation Energy        =      -1.3552182386590961 [Eh]
	 Total Energy              =    -342.6350990651901611 [Eh]

	 ================> DF-SCS-MP2 Energies <==================
	-----------------------------------------------------------
	 SCS Same-Spin Scale       =       0.3333333333333333 [-]
	 SCS Opposite-Spin Scale   =       1.2000000000000000 [-]
	 SCS Same-Spin Energy      =      -0.1121447734343391 [Eh]
	 SCS Opposite-Spin Energy  =      -1.2225407020272945 [Eh]
	 SCS Correlation Energy    =      -1.3346854754616335 [Eh]
	 SCS Total Energy          =    -342.6145663019926815 [Eh]
	-----------------------------------------------------------

  Dipole Moment: [D]
     X:     3.8238      Y:    -0.4256      Z:     0.3719     Total:     3.8654

*** Psi4 exiting successfully. Buy a developer a beer!
