                               Psi4 1.3.2 release

  ==> Input File <==

--------------------------------------------------------------------------
#psi4
#
memory 32 gb

molecule  {
-1 1
  O        1.1365690     1.2999450     0.1428980
  O       -1.4424670    -1.1799650     0.1827610
  O       -1.3575130     1.0293890    -0.3577040
  C        0.6168243    -0.0080767     0.4035728
  C        1.4464200    -1.0470520    -0.3590510
  C       -0.8609500    -0.0719650     0.0469300
  H        0.7165270    -0.2335850     1.4896730
  H        1.3388480    -0.8658950    -1.4332610
  H        2.5070550    -0.9809740    -0.0983190
  H        1.0872750    -2.0528800    -0.1336960
  H        0.2982824     1.7308738    -0.1559148
units angstrom
no_reorient  #important for SAPT in psi4, default
symmetry c1  #important for SAPT in psi4, default
}

set PROPERTIES_ORIGIN ["COM"]
properties('MP2/aug-cc-pvtz', properties = ['dipole'])
--------------------------------------------------------------------------

    Molecular point group: c1
  Charge       = -1
  Multiplicity = 1
  Basis Set: AUG-CC-PVTZ
    Blend: AUG-CC-PVTZ
  Basis Set: (AUG-CC-PVTZ AUX)
    Blend: AUG-CC-PVTZ-JKFIT

    Orbital Energies [Eh]
    ---------------------

    Doubly Occupied:

       1A    -20.382193     2A    -20.318550     3A    -20.310733
       4A    -11.152472     5A    -11.117192     6A    -11.072503
       7A     -1.206449     8A     -1.164472     9A     -1.084252
      10A     -0.859548    11A     -0.704961    12A     -0.567821
      13A     -0.499266    14A     -0.477219    15A     -0.438205
      16A     -0.403898    17A     -0.397999    18A     -0.373491
      19A     -0.367542    20A     -0.349411    21A     -0.276129
      22A     -0.235266    23A     -0.218537    24A     -0.214169

  @DF-RHF Final Energy:  -341.27896266281368

   => Energetics <=

    Nuclear Repulsion Energy =            239.2315250229602555
    One-Electron Energy =                -952.6364199279666991
    Two-Electron Energy =                 372.1259322421927891
    Total Energy =                       -341.2789626628136830
  Basis Set: (AUG-CC-PVTZ AUX)
    Blend: AUG-CC-PVTZ-RI
    Molecular point group: c1

    Geometry (in Angstrom), charge = -1, multiplicity = 1:

       Center              X                  Y                   Z               Mass
    ------------   -----------------  -----------------  -----------------  -----------------
         O            1.206034131062     1.272562735898     0.140081310203    15.994914619570
         O           -1.373001868938    -1.207347264102     0.179944310203    15.994914619570
         O           -1.288047868938     1.002006735898    -0.360520689797    15.994914619570
         C            0.686289431062    -0.035458964102     0.400756110203    12.000000000000
         C            1.515885131062    -1.074434264102    -0.361867689797    12.000000000000
         C           -0.791484868938    -0.099347264102     0.044113310203    12.000000000000
         H            0.785992131062    -0.260967264102     1.486856310203     1.007825032230
         H            1.408313131062    -0.893277264102    -1.436077689797     1.007825032230
         H            2.576520131062    -1.008356264102    -0.101135689797     1.007825032230
         H            1.156740131062    -2.080262264102    -0.136512689797     1.007825032230
         H            0.367747531062     1.703491535898    -0.158731489797     1.007825032230

  Basis Set: AUG-CC-PVTZ
    Blend: AUG-CC-PVTZ
  Basis Set: (AUG-CC-PVTZ AUX)
    Blend: AUG-CC-PVTZ-JKFIT
	 Reference Energy          =    -341.2789626628136830 [Eh]
	 Singles Energy            =      -0.0000000000000000 [Eh]
	 Same-Spin Energy          =      -0.3366008339157952 [Eh]
	 Opposite-Spin Energy      =      -1.0192725837662371 [Eh]
	 Correlation Energy        =      -1.3558734176820324 [Eh]
	 Total Energy              =    -342.6348360804956883 [Eh]

	 ================> DF-SCS-MP2 Energies <==================
	-----------------------------------------------------------
	 SCS Same-Spin Scale       =       0.3333333333333333 [-]
	 SCS Opposite-Spin Scale   =       1.2000000000000000 [-]
	 SCS Same-Spin Energy      =      -0.1122002779719317 [Eh]
	 SCS Opposite-Spin Energy  =      -1.2231271005194844 [Eh]
	 SCS Correlation Energy    =      -1.3353273784914161 [Eh]
	 SCS Total Energy          =    -342.6142900413050825 [Eh]
	-----------------------------------------------------------

  Dipole Moment: [D]
     X:     3.7660      Y:    -0.4746      Z:     0.3742     Total:     3.8142

*** Psi4 exiting successfully. Buy a developer a beer!
