                               Psi4 1.3.2 release

  ==> Input File <==

--------------------------------------------------------------------------
#psi4
#
memory 32 gb

molecule  {
-1 1
  O        1.1138192     1.3067162     0.1351042
  O       -1.4424670    -1.1799650     0.1827610
  O       -1.3575130     1.0293890    -0.3577040
  C        0.6396440    -0.0155260     0.4104950
  C        1.4464200    -1.0470520    -0.3590510
  C       -0.8598711    -0.0460776     0.0394581
  H        0.7165270    -0.2335850     1.4896730
  H        1.3388480    -0.8658950    -1.4332610
  H        2.5070550    -0.9809740    -0.0983190
  H        1.0872750    -2.0528800    -0.1336960
  H        0.3068940     1.7456410    -0.1582790
units angstrom
no_reorient  #important for SAPT in psi4, default
symmetry c1  #important for SAPT in psi4, default
}

set PROPERTIES_ORIGIN ["COM"]
properties('MP2/aug-cc-pvtz', properties = ['dipole'])
--------------------------------------------------------------------------

    Molecular point group: c1
  Charge       = -1
  Multiplicity = 1
  Basis Set: AUG-CC-PVTZ
    Blend: AUG-CC-PVTZ
  Basis Set: (AUG-CC-PVTZ AUX)
    Blend: AUG-CC-PVTZ-JKFIT

    Orbital Energies [Eh]
    ---------------------

    Doubly Occupied:

       1A    -20.380377     2A    -20.322692     3A    -20.303114
       4A    -11.151453     5A    -11.116889     6A    -11.072290
       7A     -1.210751     8A     -1.164784     9A     -1.079558
      10A     -0.862557    11A     -0.701849    12A     -0.570220
      13A     -0.503812    14A     -0.477874    15A     -0.437084
      16A     -0.405257    17A     -0.401029    18A     -0.372452
      19A     -0.365181    20A     -0.349700    21A     -0.281491
      22A     -0.234700    23A     -0.211767    24A     -0.210659

  @DF-RHF Final Energy:  -341.27941073203232

   => Energetics <=

    Nuclear Repulsion Energy =            239.2784709152151663
    One-Electron Energy =                -952.7406856310324201
    Two-Electron Energy =                 372.1828039837849360
    Total Energy =                       -341.2794107320323178
  Basis Set: (AUG-CC-PVTZ AUX)
    Blend: AUG-CC-PVTZ-RI
    Molecular point group: c1

    Geometry (in Angstrom), charge = -1, multiplicity = 1:

       Center              X                  Y                   Z               Mass
    ------------   -----------------  -----------------  -----------------  -----------------
         O            1.184052876884     1.275464808174     0.133788683618    15.994914619570
         O           -1.372233323116    -1.211216391826     0.181445483618    15.994914619570
         O           -1.287279323116     0.998137608174    -0.359019516382    15.994914619570
         C            0.709877676884    -0.046777391826     0.409179483618    12.000000000000
         C            1.516653676884    -1.078303391826    -0.360366516382    12.000000000000
         C           -0.789637423116    -0.077328991826     0.038142583618    12.000000000000
         H            0.786760676884    -0.264836391826     1.488357483618     1.007825032230
         H            1.409081676884    -0.897146391826    -1.434576516382     1.007825032230
         H            2.577288676884    -1.012225391826    -0.099634516382     1.007825032230
         H            1.157508676884    -2.084131391826    -0.135011516382     1.007825032230
         H            0.377127676884     1.714389608174    -0.159594516382     1.007825032230

  Basis Set: AUG-CC-PVTZ
    Blend: AUG-CC-PVTZ
  Basis Set: (AUG-CC-PVTZ AUX)
    Blend: AUG-CC-PVTZ-JKFIT
	 Reference Energy          =    -341.2794107320323178 [Eh]
	 Singles Energy            =      -0.0000000000000000 [Eh]
	 Same-Spin Energy          =      -0.3360172651351679 [Eh]
	 Opposite-Spin Energy      =      -1.0180935878197741 [Eh]
	 Correlation Energy        =      -1.3541108529549422 [Eh]
	 Total Energy              =    -342.6335215849872498 [Eh]

	 ================> DF-SCS-MP2 Energies <==================
	-----------------------------------------------------------
	 SCS Same-Spin Scale       =       0.3333333333333333 [-]
	 SCS Opposite-Spin Scale   =       1.2000000000000000 [-]
	 SCS Same-Spin Energy      =      -0.1120057550450560 [Eh]
	 SCS Opposite-Spin Energy  =      -1.2217123053837289 [Eh]
	 SCS Correlation Energy    =      -1.3337180604287848 [Eh]
	 SCS Total Energy          =    -342.6131287924611115 [Eh]
	-----------------------------------------------------------

  Dipole Moment: [D]
     X:     3.8757      Y:    -0.2054      Z:     0.3214     Total:     3.8944

*** Psi4 exiting successfully. Buy a developer a beer!
