                               Psi4 1.3.2 release

  ==> Input File <==

--------------------------------------------------------------------------
#psi4
#
memory 32 gb

molecule  {
-1 1
  O        1.1365690     1.2999450     0.1428980
  O       -1.4424670    -1.1799650     0.1827610
  O       -1.3575130     1.0293890    -0.3577040
  C        0.6396440    -0.0155260     0.4104950
  C        1.4464200    -1.0470520    -0.3590510
  C       -0.7638267    -0.0683121     0.0704611
  H        0.7165270    -0.2335850     1.4896730
  H        1.3388480    -0.8658950    -1.4332610
  H        2.5070550    -0.9809740    -0.0983190
  H        1.0872750    -2.0528800    -0.1336960
  H        0.3068940     1.7456410    -0.1582790
units angstrom
no_reorient  #important for SAPT in psi4, default
symmetry c1  #important for SAPT in psi4, default
}

set PROPERTIES_ORIGIN ["COM"]
properties('MP2/aug-cc-pvtz', properties = ['dipole'])
--------------------------------------------------------------------------

    Molecular point group: c1
  Charge       = -1
  Multiplicity = 1
  Basis Set: AUG-CC-PVTZ
    Blend: AUG-CC-PVTZ
  Basis Set: (AUG-CC-PVTZ AUX)
    Blend: AUG-CC-PVTZ-JKFIT

    Orbital Energies [Eh]
    ---------------------

    Doubly Occupied:

       1A    -20.387237     2A    -20.316404     3A    -20.307465
       4A    -11.157437     5A    -11.123686     6A    -11.079135
       7A     -1.205435     8A     -1.145539     9A     -1.052363
      10A     -0.877992    11A     -0.729918    12A     -0.580268
      13A     -0.502934    14A     -0.475397    15A     -0.443551
      16A     -0.409636    17A     -0.393955    18A     -0.367884
      19A     -0.362702    20A     -0.332720    21A     -0.284149
      22A     -0.239246    23A     -0.212645    24A     -0.201226

  @DF-RHF Final Energy:  -341.25858907656232

   => Energetics <=

    Nuclear Repulsion Energy =            239.1680925176235064
    One-Electron Energy =                -952.4755132415282333
    Two-Electron Energy =                 372.0488316473423538
    Total Energy =                       -341.2585890765623162
  Basis Set: (AUG-CC-PVTZ AUX)
    Blend: AUG-CC-PVTZ-RI
    Molecular point group: c1

    Geometry (in Angstrom), charge = -1, multiplicity = 1:

       Center              X                  Y                   Z               Mass
    ------------   -----------------  -----------------  -----------------  -----------------
         O            1.189768886674     1.272907295694     0.136003112928    15.994914619570
         O           -1.389267113326    -1.207002704306     0.175866112928    15.994914619570
         O           -1.304313113326     1.002351295694    -0.364598887072    15.994914619570
         C            0.692843886674    -0.042563704306     0.403600112928    12.000000000000
         C            1.499619886674    -1.074089704306    -0.365945887072    12.000000000000
         C           -0.710626813326    -0.095349804306     0.063566212928    12.000000000000
         H            0.769726886674    -0.260622704306     1.482778112928     1.007825032230
         H            1.392047886674    -0.892932704306    -1.440155887072     1.007825032230
         H            2.560254886674    -1.008011704306    -0.105213887072     1.007825032230
         H            1.140474886674    -2.079917704306    -0.140590887072     1.007825032230
         H            0.360093886674     1.718603295694    -0.165173887072     1.007825032230

  Basis Set: AUG-CC-PVTZ
    Blend: AUG-CC-PVTZ
  Basis Set: (AUG-CC-PVTZ AUX)
    Blend: AUG-CC-PVTZ-JKFIT
	 Reference Energy          =    -341.2585890765623162 [Eh]
	 Singles Energy            =      -0.0000000000000000 [Eh]
	 Same-Spin Energy          =      -0.3388592873880140 [Eh]
	 Opposite-Spin Energy      =      -1.0240201890382292 [Eh]
	 Correlation Energy        =      -1.3628794764262433 [Eh]
	 Total Energy              =    -342.6214685529885742 [Eh]

	 ================> DF-SCS-MP2 Energies <==================
	-----------------------------------------------------------
	 SCS Same-Spin Scale       =       0.3333333333333333 [-]
	 SCS Opposite-Spin Scale   =       1.2000000000000000 [-]
	 SCS Same-Spin Energy      =      -0.1129530957960047 [Eh]
	 SCS Opposite-Spin Energy  =      -1.2288242268458751 [Eh]
	 SCS Correlation Energy    =      -1.3417773226418799 [Eh]
	 SCS Total Energy          =    -342.6003663992041766 [Eh]
	-----------------------------------------------------------

  Dipole Moment: [D]
     X:     4.3262      Y:    -0.4845      Z:     0.4678     Total:     4.3784

*** Psi4 exiting successfully. Buy a developer a beer!
