                               Psi4 1.3.2 release

  ==> Input File <==

--------------------------------------------------------------------------
#psi4
#
memory 32 gb

molecule  {
-1 1
  O        1.1365690     1.2999450     0.1428980
  O       -1.4424670    -1.1799650     0.1827610
  O       -1.4161694     0.9983873    -0.3646054
  C        0.6358206    -0.0940648     0.4294697
  C        1.4464200    -1.0470520    -0.3590510
  C       -0.8609500    -0.0719650     0.0469300
  H        0.7165270    -0.2335850     1.4896730
  H        1.3388480    -0.8658950    -1.4332610
  H        2.5070550    -0.9809740    -0.0983190
  H        1.0872750    -2.0528800    -0.1336960
  H        0.3068940     1.7456410    -0.1582790
units angstrom
no_reorient  #important for SAPT in psi4, default
symmetry c1  #important for SAPT in psi4, default
}

set PROPERTIES_ORIGIN ["COM"]
properties('MP2/aug-cc-pvtz', properties = ['dipole'])
--------------------------------------------------------------------------

    Molecular point group: c1
  Charge       = -1
  Multiplicity = 1
  Basis Set: AUG-CC-PVTZ
    Blend: AUG-CC-PVTZ
  Basis Set: (AUG-CC-PVTZ AUX)
    Blend: AUG-CC-PVTZ-JKFIT

    Orbital Energies [Eh]
    ---------------------

    Doubly Occupied:

       1A    -20.376904     2A    -20.316431     3A    -20.305956
       4A    -11.152394     5A    -11.120883     6A    -11.075668
       7A     -1.192912     8A     -1.148610     9A     -1.077766
      10A     -0.877133    11A     -0.706307    12A     -0.562350
      13A     -0.496184    14A     -0.476353    15A     -0.435793
      16A     -0.406747    17A     -0.403647    18A     -0.371885
      19A     -0.355379    20A     -0.346138    21A     -0.288397
      22A     -0.231329    23A     -0.214333    24A     -0.209387

  @DF-RHF Final Energy:  -341.27014972285019

   => Energetics <=

    Nuclear Repulsion Energy =            238.0291727799255739
    One-Electron Energy =                -950.3008698930910896
    Two-Electron Energy =                 371.0015473903152952
    Total Energy =                       -341.2701497228501921
  Basis Set: (AUG-CC-PVTZ AUX)
    Blend: AUG-CC-PVTZ-RI
    Molecular point group: c1

    Geometry (in Angstrom), charge = -1, multiplicity = 1:

       Center              X                  Y                   Z               Mass
    ------------   -----------------  -----------------  -----------------  -----------------
         O            1.213914821169     1.289556425426     0.137857268511    15.994914619570
         O           -1.365121178831    -1.190353574574     0.177720268511    15.994914619570
         O           -1.338823578831     0.987998725426    -0.369646131489    15.994914619570
         C            0.713166421169    -0.104453374574     0.424428968511    12.000000000000
         C            1.523765821169    -1.057440574574    -0.364091731489    12.000000000000
         C           -0.783604178831    -0.082353574574     0.041889268511    12.000000000000
         H            0.793872821169    -0.243973574574     1.484632268511     1.007825032230
         H            1.416193821169    -0.876283574574    -1.438301731489     1.007825032230
         H            2.584400821169    -0.991362574574    -0.103359731489     1.007825032230
         H            1.164620821169    -2.063268574574    -0.138736731489     1.007825032230
         H            0.384239821169     1.735252425426    -0.163319731489     1.007825032230

  Basis Set: AUG-CC-PVTZ
    Blend: AUG-CC-PVTZ
  Basis Set: (AUG-CC-PVTZ AUX)
    Blend: AUG-CC-PVTZ-JKFIT
	 Reference Energy          =    -341.2701497228501921 [Eh]
	 Singles Energy            =      -0.0000000000000000 [Eh]
	 Same-Spin Energy          =      -0.3367034999823811 [Eh]
	 Opposite-Spin Energy      =      -1.0206417215549834 [Eh]
	 Correlation Energy        =      -1.3573452215373645 [Eh]
	 Total Energy              =    -342.6274949443875357 [Eh]

	 ================> DF-SCS-MP2 Energies <==================
	-----------------------------------------------------------
	 SCS Same-Spin Scale       =       0.3333333333333333 [-]
	 SCS Opposite-Spin Scale   =       1.2000000000000000 [-]
	 SCS Same-Spin Energy      =      -0.1122344999941270 [Eh]
	 SCS Opposite-Spin Energy  =      -1.2247700658659801 [Eh]
	 SCS Correlation Energy    =      -1.3370045658601071 [Eh]
	 SCS Total Energy          =    -342.6071542887103192 [Eh]
	-----------------------------------------------------------

  Dipole Moment: [D]
     X:     3.9519      Y:    -0.7617      Z:     0.4423     Total:     4.0489

*** Psi4 exiting successfully. Buy a developer a beer!
