                               Psi4 1.4a3.dev225

  ==> Input File <==

--------------------------------------------------------------------------
#psi4
#
memory 32 gb

molecule  {
-1 1
  O       -1.1681810     1.2683390    -0.1935740
  O        1.4902400    -1.1295240    -0.2243730
  O        1.3027740     1.0522020     0.4123420
  C       -0.6404390    -0.0405420    -0.4184120
  C       -1.4092810    -1.0711850     0.3952000
  C        0.8561384    -0.0695826    -0.0564466
  H       -0.7260590    -0.2876370    -1.4879020
  H       -1.3060210    -0.8470660     1.4617500
  H       -2.4733650    -1.0522610     0.1409170
  H       -1.0158520    -2.0724200     0.2054930
  H       -0.3572580     1.7151740     0.1591030
units angstrom
no_reorient  #important for SAPT in psi4, default
symmetry c1  #important for SAPT in psi4, default
}

set PROPERTIES_ORIGIN ["COM"]
properties('MP2/aug-cc-pvtz', properties = ['dipole'])
--------------------------------------------------------------------------

    Molecular point group: c1
  Charge       = -1
  Multiplicity = 1
  Basis Set: AUG-CC-PVTZ
    Blend: AUG-CC-PVTZ
  Basis Set: (AUG-CC-PVTZ AUX)
    Blend: AUG-CC-PVTZ-JKFIT

    Orbital Energies [Eh]
    ---------------------

    Doubly Occupied:

       1A    -20.380709     2A    -20.315402     3A    -20.314550
       4A    -11.153940     5A    -11.116501     6A    -11.073075
       7A     -1.202995     8A     -1.165205     9A     -1.079685
      10A     -0.862811    11A     -0.702614    12A     -0.567783
      13A     -0.497652    14A     -0.477879    15A     -0.436772
      16A     -0.406804    17A     -0.400503    18A     -0.372171
      19A     -0.366037    20A     -0.348778    21A     -0.278129
      22A     -0.232379    23A     -0.217352    24A     -0.213889

  @DF-RHF Final Energy:  -341.27846166847684

   => Energetics <=

    Nuclear Repulsion Energy =            238.9645400169542313
    One-Electron Energy =                -952.1187774671290072
    Two-Electron Energy =                 371.8757757816979961
    Total Energy =                       -341.2784616684768366
  Basis Set: (AUG-CC-PVTZ AUX)
    Blend: AUG-CC-PVTZ-RI
    Molecular point group: c1

    Geometry (in Angstrom), charge = -1, multiplicity = 1:

       Center              X                  Y                   Z               Mass
    ------------   -----------------  -----------------  -----------------  -----------------
         O           -1.232675287734     1.242386617503    -0.187256113714    15.994914619570
         O            1.425745712266    -1.155476382497    -0.218055113714    15.994914619570
         O            1.238279712266     1.026249617503     0.418659886286    15.994914619570
         C           -0.704933287734    -0.066494382497    -0.412094113714    12.000000000000
         C           -1.473775287734    -1.097137382497     0.401517886286    12.000000000000
         C            0.791644112266    -0.095534982497    -0.050128713714    12.000000000000
         H           -0.790553287734    -0.313589382497    -1.481584113714     1.007825032230
         H           -1.370515287734    -0.873018382497     1.468067886286     1.007825032230
         H           -2.537859287734    -1.078213382497     0.147234886286     1.007825032230
         H           -1.080346287734    -2.098372382497     0.211810886286     1.007825032230
         H           -0.421752287734     1.689221617503     0.165420886286     1.007825032230

  Basis Set: AUG-CC-PVTZ
    Blend: AUG-CC-PVTZ
  Basis Set: (AUG-CC-PVTZ AUX)
    Blend: AUG-CC-PVTZ-JKFIT
	 Reference Energy          =    -341.2784616684768366 [Eh]
	 Singles Energy            =      -0.0000000000000000 [Eh]
	 Same-Spin Energy          =      -0.3367845597621933 [Eh]
	 Opposite-Spin Energy      =      -1.0195880926620211 [Eh]
	 Correlation Energy        =      -1.3563726524242146 [Eh]
	 Total Energy              =    -342.6348343209010636 [Eh]

	 ================> DF-SCS-MP2 Energies <==================
	-----------------------------------------------------------
	 SCS Same-Spin Scale       =       0.3333333333333333 [-]
	 SCS Opposite-Spin Scale   =       1.2000000000000000 [-]
	 SCS Same-Spin Energy      =      -0.1122615199207311 [Eh]
	 SCS Opposite-Spin Energy  =      -1.2235057111944252 [Eh]
	 SCS Correlation Energy    =      -1.3357672311151563 [Eh]
	 SCS Total Energy          =    -342.6142288995919785 [Eh]
	-----------------------------------------------------------

  Dipole Moment: [D]
     X:    -3.7689      Y:    -0.7951      Z:    -0.3585     Total:     3.8685

*** Psi4 exiting successfully. Buy a developer a beer!
