                               Psi4 1.3.2 release

  ==> Input File <==

--------------------------------------------------------------------------
#psi4
#
memory 32 gb

molecule  {
-1 1
  O        1.1365690     1.2999450     0.1428980
  O       -1.4424670    -1.1799650     0.1827610
  O       -1.3575130     1.0293890    -0.3577040
  C        0.6511110    -0.0191005     0.4139257
  C        1.4464200    -1.0470520    -0.3590510
  C       -0.8609500    -0.0719650     0.0469300
  H        0.7165270    -0.2335850     1.4896730
  H        1.3388480    -0.8658950    -1.4332610
  H        2.5070550    -0.9809740    -0.0983190
  H        1.0872750    -2.0528800    -0.1336960
  H        0.3112947     1.7529740    -0.1594267
units angstrom
no_reorient  #important for SAPT in psi4, default
symmetry c1  #important for SAPT in psi4, default
}

set PROPERTIES_ORIGIN ["COM"]
properties('MP2/aug-cc-pvtz', properties = ['dipole'])
--------------------------------------------------------------------------

    Molecular point group: c1
  Charge       = -1
  Multiplicity = 1
  Basis Set: AUG-CC-PVTZ
    Blend: AUG-CC-PVTZ
  Basis Set: (AUG-CC-PVTZ AUX)
    Blend: AUG-CC-PVTZ-JKFIT

    Orbital Energies [Eh]
    ---------------------

    Doubly Occupied:

       1A    -20.381373     2A    -20.317606     3A    -20.310008
       4A    -11.152644     5A    -11.115915     6A    -11.071693
       7A     -1.203098     8A     -1.163013     9A     -1.082721
      10A     -0.863131    11A     -0.699354    12A     -0.565614
      13A     -0.500896    14A     -0.477442    15A     -0.435987
      16A     -0.405112    17A     -0.400641    18A     -0.372109
      19A     -0.365079    20A     -0.349380    21A     -0.280714
      22A     -0.232933    23A     -0.213417    24A     -0.212878

  @DF-RHF Final Energy:  -341.27965650402865

   => Energetics <=

    Nuclear Repulsion Energy =            238.8164972481804114
    One-Electron Energy =                -951.8467878260584030
    Two-Electron Energy =                 371.7506340738493122
    Total Energy =                       -341.2796565040286509
  Basis Set: (AUG-CC-PVTZ AUX)
    Blend: AUG-CC-PVTZ-RI
    Molecular point group: c1

    Geometry (in Angstrom), charge = -1, multiplicity = 1:

       Center              X                  Y                   Z               Mass
    ------------   -----------------  -----------------  -----------------  -----------------
         O            1.201265134541     1.273798499592     0.138725545501    15.994914619570
         O           -1.377770865459    -1.206111500408     0.178588545501    15.994914619570
         O           -1.292816865459     1.003242499592    -0.361876454499    15.994914619570
         C            0.715807134541    -0.045247000408     0.409753245501    12.000000000000
         C            1.511116134541    -1.073198500408    -0.363223454499    12.000000000000
         C           -0.796253865459    -0.098111500408     0.042757545501    12.000000000000
         H            0.781223134541    -0.259731500408     1.485500545501     1.007825032230
         H            1.403544134541    -0.892041500408    -1.437433454499     1.007825032230
         H            2.571751134541    -1.007120500408    -0.102491454499     1.007825032230
         H            1.151971134541    -2.079026500408    -0.137868454499     1.007825032230
         H            0.375990834541     1.726827499592    -0.163599154499     1.007825032230

  Basis Set: AUG-CC-PVTZ
    Blend: AUG-CC-PVTZ
  Basis Set: (AUG-CC-PVTZ AUX)
    Blend: AUG-CC-PVTZ-JKFIT
	 Reference Energy          =    -341.2796565040286509 [Eh]
	 Singles Energy            =      -0.0000000000000000 [Eh]
	 Same-Spin Energy          =      -0.3364303404174606 [Eh]
	 Opposite-Spin Energy      =      -1.0189106167980322 [Eh]
	 Correlation Energy        =      -1.3553409572154926 [Eh]
	 Total Energy              =    -342.6349974612441542 [Eh]

	 ================> DF-SCS-MP2 Energies <==================
	-----------------------------------------------------------
	 SCS Same-Spin Scale       =       0.3333333333333333 [-]
	 SCS Opposite-Spin Scale   =       1.2000000000000000 [-]
	 SCS Same-Spin Energy      =      -0.1121434468058202 [Eh]
	 SCS Opposite-Spin Energy  =      -1.2226927401576386 [Eh]
	 SCS Correlation Energy    =      -1.3348361869634588 [Eh]
	 SCS Total Energy          =    -342.6144926909921082 [Eh]
	-----------------------------------------------------------

  Dipole Moment: [D]
     X:     3.8053      Y:    -0.4776      Z:     0.3753     Total:     3.8535

*** Psi4 exiting successfully. Buy a developer a beer!
