                               Psi4 1.3.2 release

  ==> Input File <==

--------------------------------------------------------------------------
#psi4
#
memory 32 gb

molecule  {
-1 1
  O        1.1365690     1.2999450     0.1428980
  O       -1.4424670    -1.1799650     0.1827610
  O       -1.3575130     1.0293890    -0.3577040
  C        0.6175758     0.0160486     0.3409268
  C        1.4464200    -1.0470520    -0.3590510
  C       -0.8609500    -0.0719650     0.0469300
  H        0.7165270    -0.2335850     1.4896730
  H        1.3047431    -0.8215440    -1.4208375
  H        2.5070550    -0.9809740    -0.0983190
  H        1.0872750    -2.0528800    -0.1336960
  H        0.3068940     1.7456410    -0.1582790
units angstrom
no_reorient  #important for SAPT in psi4, default
symmetry c1  #important for SAPT in psi4, default
}

set PROPERTIES_ORIGIN ["COM"]
properties('MP2/aug-cc-pvtz', properties = ['dipole'])
--------------------------------------------------------------------------

    Molecular point group: c1
  Charge       = -1
  Multiplicity = 1
  Basis Set: AUG-CC-PVTZ
    Blend: AUG-CC-PVTZ
  Basis Set: (AUG-CC-PVTZ AUX)
    Blend: AUG-CC-PVTZ-JKFIT

    Orbital Energies [Eh]
    ---------------------

    Doubly Occupied:

       1A    -20.387881     2A    -20.317828     3A    -20.310653
       4A    -11.151896     5A    -11.120031     6A    -11.072117
       7A     -1.216270     8A     -1.170423     9A     -1.084204
      10A     -0.862516    11A     -0.702511    12A     -0.572609
      13A     -0.497142    14A     -0.481928    15A     -0.443996
      16A     -0.405332    17A     -0.395773    18A     -0.380307
      19A     -0.368992    20A     -0.350287    21A     -0.265630
      22A     -0.234349    23A     -0.219242    24A     -0.213785

  @DF-RHF Final Energy:  -341.27244413986119

   => Energetics <=

    Nuclear Repulsion Energy =            239.9146069285083342
    One-Electron Energy =                -953.9226953850932205
    Two-Electron Energy =                 372.7356443167237217
    Total Energy =                       -341.2724441398611930
  Basis Set: (AUG-CC-PVTZ AUX)
    Blend: AUG-CC-PVTZ-RI
    Molecular point group: c1

    Geometry (in Angstrom), charge = -1, multiplicity = 1:

       Center              X                  Y                   Z               Mass
    ------------   -----------------  -----------------  -----------------  -----------------
         O            1.206221437973     1.268641490892     0.148411817446    15.994914619570
         O           -1.372814562027    -1.211268509108     0.188274817446    15.994914619570
         O           -1.287860562027     0.998085490892    -0.352190182554    15.994914619570
         C            0.687228237973    -0.015254909108     0.346440617446    12.000000000000
         C            1.516072437973    -1.078355509108    -0.353537182554    12.000000000000
         C           -0.791297562027    -0.103268509108     0.052443817446    12.000000000000
         H            0.786179437973    -0.264888509108     1.495186817446     1.007825032230
         H            1.374395537973    -0.852847509108    -1.415323682554     1.007825032230
         H            2.576707437973    -1.012277509108    -0.092805182554     1.007825032230
         H            1.156927437973    -2.084183509108    -0.128182182554     1.007825032230
         H            0.376546437973     1.714337490892    -0.152765182554     1.007825032230

  Basis Set: AUG-CC-PVTZ
    Blend: AUG-CC-PVTZ
  Basis Set: (AUG-CC-PVTZ AUX)
    Blend: AUG-CC-PVTZ-JKFIT
	 Reference Energy          =    -341.2724441398611930 [Eh]
	 Singles Energy            =      -0.0000000000000000 [Eh]
	 Same-Spin Energy          =      -0.3369292853748879 [Eh]
	 Opposite-Spin Energy      =      -1.0194032002568638 [Eh]
	 Correlation Energy        =      -1.3563324856317518 [Eh]
	 Total Energy              =    -342.6287766254929466 [Eh]

	 ================> DF-SCS-MP2 Energies <==================
	-----------------------------------------------------------
	 SCS Same-Spin Scale       =       0.3333333333333333 [-]
	 SCS Opposite-Spin Scale   =       1.2000000000000000 [-]
	 SCS Same-Spin Energy      =      -0.1123097617916293 [Eh]
	 SCS Opposite-Spin Energy  =      -1.2232838403082364 [Eh]
	 SCS Correlation Energy    =      -1.3355936020998658 [Eh]
	 SCS Total Energy          =    -342.6080377419610841 [Eh]
	-----------------------------------------------------------

  Dipole Moment: [D]
     X:     3.8324      Y:    -0.3188      Z:     0.2109     Total:     3.8514

*** Psi4 exiting successfully. Buy a developer a beer!
