                               Psi4 1.3.2 release

  ==> Input File <==

--------------------------------------------------------------------------
#psi4
#
memory 32 gb

molecule  {
-1 1
  O        1.1365690     1.2999450     0.1428980
  O       -1.4979809    -1.1514657     0.1615858
  O       -1.4161844     0.9984025    -0.3645458
  C        0.6396440    -0.0155260     0.4104950
  C        1.4464200    -1.0470520    -0.3590510
  C       -0.8609500    -0.0719650     0.0469300
  H        0.7165270    -0.2335850     1.4896730
  H        1.3388480    -0.8658950    -1.4332610
  H        2.5070550    -0.9809740    -0.0983190
  H        1.0872750    -2.0528800    -0.1336960
  H        0.3068940     1.7456410    -0.1582790
units angstrom
no_reorient  #important for SAPT in psi4, default
symmetry c1  #important for SAPT in psi4, default
}

set PROPERTIES_ORIGIN ["COM"]
properties('MP2/aug-cc-pvtz', properties = ['dipole'])
--------------------------------------------------------------------------

    Molecular point group: c1
  Charge       = -1
  Multiplicity = 1
  Basis Set: AUG-CC-PVTZ
    Blend: AUG-CC-PVTZ
  Basis Set: (AUG-CC-PVTZ AUX)
    Blend: AUG-CC-PVTZ-JKFIT

    Orbital Energies [Eh]
    ---------------------

    Doubly Occupied:

       1A    -20.388664     2A    -20.311413     3A    -20.303861
       4A    -11.149345     5A    -11.123903     6A    -11.075930
       7A     -1.205284     8A     -1.166929     9A     -1.071142
      10A     -0.866915    11A     -0.705752    12A     -0.570737
      13A     -0.499271    14A     -0.477958    15A     -0.437508
      16A     -0.407477    17A     -0.397796    18A     -0.373727
      19A     -0.370158    20A     -0.348940    21A     -0.284049
      22A     -0.228860    23A     -0.213149    24A     -0.205475

  @DF-RHF Final Energy:  -341.27629411749217

   => Energetics <=

    Nuclear Repulsion Energy =            238.2579536894631360
    One-Electron Energy =                -950.7000086869070401
    Two-Electron Energy =                 371.1657608799516765
    Total Energy =                       -341.2762941174921707
  Basis Set: (AUG-CC-PVTZ AUX)
    Blend: AUG-CC-PVTZ-RI
    Molecular point group: c1

    Geometry (in Angstrom), charge = -1, multiplicity = 1:

       Center              X                  Y                   Z               Mass
    ------------   -----------------  -----------------  -----------------  -----------------
         O            1.223376319795     1.273846564596     0.144208807995    15.994914619570
         O           -1.411173580205    -1.177564135404     0.162896607995    15.994914619570
         O           -1.329377080205     0.972304064596    -0.363234992005    15.994914619570
         C            0.726451319795    -0.041624435404     0.411805807995    12.000000000000
         C            1.533227319795    -1.073150435404    -0.357740192005    12.000000000000
         C           -0.774142680205    -0.098063435404     0.048240807995    12.000000000000
         H            0.803334319795    -0.259683435404     1.490983807995     1.007825032230
         H            1.425655319795    -0.891993435404    -1.431950192005     1.007825032230
         H            2.593862319795    -1.007072435404    -0.097008192005     1.007825032230
         H            1.174082319795    -2.078978435404    -0.132385192005     1.007825032230
         H            0.393701319795     1.719542564596    -0.156968192005     1.007825032230

  Basis Set: AUG-CC-PVTZ
    Blend: AUG-CC-PVTZ
  Basis Set: (AUG-CC-PVTZ AUX)
    Blend: AUG-CC-PVTZ-JKFIT
	 Reference Energy          =    -341.2762941174921707 [Eh]
	 Singles Energy            =      -0.0000000000000000 [Eh]
	 Same-Spin Energy          =      -0.3362514984680056 [Eh]
	 Opposite-Spin Energy      =      -1.0189324824731045 [Eh]
	 Correlation Energy        =      -1.3551839809411101 [Eh]
	 Total Energy              =    -342.6314780984332629 [Eh]

	 ================> DF-SCS-MP2 Energies <==================
	-----------------------------------------------------------
	 SCS Same-Spin Scale       =       0.3333333333333333 [-]
	 SCS Opposite-Spin Scale   =       1.2000000000000000 [-]
	 SCS Same-Spin Energy      =      -0.1120838328226685 [Eh]
	 SCS Opposite-Spin Energy  =      -1.2227189789677253 [Eh]
	 SCS Correlation Energy    =      -1.3348028117903938 [Eh]
	 SCS Total Energy          =    -342.6110969292825530 [Eh]
	-----------------------------------------------------------

  Dipole Moment: [D]
     X:     4.1515      Y:    -0.4669      Z:     0.4348     Total:     4.2002

*** Psi4 exiting successfully. Buy a developer a beer!
