                               Psi4 1.3.2 release

  ==> Input File <==

--------------------------------------------------------------------------
#psi4
#
memory 32 gb

molecule  {
-1 1
  O        1.1365690     1.2999450     0.1428980
  O       -1.4424670    -1.1799650     0.1827610
  O       -1.3476002     1.0342646    -0.3564454
  C        0.6398815    -0.0024454     0.4072342
  C        1.4464200    -1.0470520    -0.3590510
  C       -0.8609500    -0.0719650     0.0469300
  H        0.7165270    -0.2335850     1.4896730
  H        1.3388480    -0.8658950    -1.4332610
  H        2.5070550    -0.9809740    -0.0983190
  H        1.0872750    -2.0528800    -0.1336960
  H        0.3068940     1.7456410    -0.1582790
units angstrom
no_reorient  #important for SAPT in psi4, default
symmetry c1  #important for SAPT in psi4, default
}

set PROPERTIES_ORIGIN ["COM"]
properties('MP2/aug-cc-pvtz', properties = ['dipole'])
--------------------------------------------------------------------------

    Molecular point group: c1
  Charge       = -1
  Multiplicity = 1
  Basis Set: AUG-CC-PVTZ
    Blend: AUG-CC-PVTZ
  Basis Set: (AUG-CC-PVTZ AUX)
    Blend: AUG-CC-PVTZ-JKFIT

    Orbital Energies [Eh]
    ---------------------

    Doubly Occupied:

       1A    -20.382330     2A    -20.318203     3A    -20.311033
       4A    -11.152746     5A    -11.115807     6A    -11.071312
       7A     -1.207199     8A     -1.165426     9A     -1.084225
      10A     -0.859356    11A     -0.700286    12A     -0.567702
      13A     -0.500790    14A     -0.477905    15A     -0.437281
      16A     -0.404378    17A     -0.399332    18A     -0.374488
      19A     -0.365582    20A     -0.349875    21A     -0.276938
      22A     -0.234261    23A     -0.214948    24A     -0.214108

  @DF-RHF Final Energy:  -341.27997128962124

   => Energetics <=

    Nuclear Repulsion Energy =            239.1233701573798101
    One-Electron Energy =                -952.4356578512027909
    Two-Electron Energy =                 372.0323164042017652
    Total Energy =                       -341.2799712896212441
  Basis Set: (AUG-CC-PVTZ AUX)
    Blend: AUG-CC-PVTZ-RI
    Molecular point group: c1

    Geometry (in Angstrom), charge = -1, multiplicity = 1:

       Center              X                  Y                   Z               Mass
    ------------   -----------------  -----------------  -----------------  -----------------
         O            1.201047605757     1.270760487116     0.139388402781    15.994914619570
         O           -1.377988394243    -1.209149512884     0.179251402781    15.994914619570
         O           -1.283121594243     1.005080087116    -0.359954997219    15.994914619570
         C            0.704360105757    -0.031629912884     0.403724602781    12.000000000000
         C            1.510898605757    -1.076236512884    -0.362560597219    12.000000000000
         C           -0.796471394243    -0.101149512884     0.043420402781    12.000000000000
         H            0.781005605757    -0.262769512884     1.486163402781     1.007825032230
         H            1.403326605757    -0.895079512884    -1.436770597219     1.007825032230
         H            2.571533605757    -1.010158512884    -0.101828597219     1.007825032230
         H            1.151753605757    -2.082064512884    -0.137205597219     1.007825032230
         H            0.371372605757     1.716456487116    -0.161788597219     1.007825032230

  Basis Set: AUG-CC-PVTZ
    Blend: AUG-CC-PVTZ
  Basis Set: (AUG-CC-PVTZ AUX)
    Blend: AUG-CC-PVTZ-JKFIT
	 Reference Energy          =    -341.2799712896212441 [Eh]
	 Singles Energy            =      -0.0000000000000000 [Eh]
	 Same-Spin Energy          =      -0.3364916738844036 [Eh]
	 Opposite-Spin Energy      =      -1.0188316881037012 [Eh]
	 Correlation Energy        =      -1.3553233619881047 [Eh]
	 Total Energy              =    -342.6352946516093425 [Eh]

	 ================> DF-SCS-MP2 Energies <==================
	-----------------------------------------------------------
	 SCS Same-Spin Scale       =       0.3333333333333333 [-]
	 SCS Opposite-Spin Scale   =       1.2000000000000000 [-]
	 SCS Same-Spin Energy      =      -0.1121638912948012 [Eh]
	 SCS Opposite-Spin Energy  =      -1.2225980257244413 [Eh]
	 SCS Correlation Energy    =      -1.3347619170192426 [Eh]
	 SCS Total Energy          =    -342.6147332066404942 [Eh]
	-----------------------------------------------------------

  Dipole Moment: [D]
     X:     3.7627      Y:    -0.4273      Z:     0.3617     Total:     3.8041

*** Psi4 exiting successfully. Buy a developer a beer!
