                               Psi4 1.3.2 release

  ==> Input File <==

--------------------------------------------------------------------------
#psi4
#
memory 32 gb

molecule  {
-1 1
  O        1.1365690     1.2999450     0.1428980
  O       -1.4424670    -1.1799650     0.1827610
  O       -1.3575130     1.0293890    -0.3577040
  C        0.6396440    -0.0155260     0.4104950
  C        1.4464200    -1.0470520    -0.3590510
  C       -0.9580733    -0.0756179     0.0233989
  H        0.7165270    -0.2335850     1.4896730
  H        1.3388480    -0.8658950    -1.4332610
  H        2.5070550    -0.9809740    -0.0983190
  H        1.0872750    -2.0528800    -0.1336960
  H        0.3068940     1.7456410    -0.1582790
units angstrom
no_reorient  #important for SAPT in psi4, default
symmetry c1  #important for SAPT in psi4, default
}

set PROPERTIES_ORIGIN ["COM"]
properties('MP2/aug-cc-pvtz', properties = ['dipole'])
--------------------------------------------------------------------------

    Molecular point group: c1
  Charge       = -1
  Multiplicity = 1
  Basis Set: AUG-CC-PVTZ
    Blend: AUG-CC-PVTZ
  Basis Set: (AUG-CC-PVTZ AUX)
    Blend: AUG-CC-PVTZ-JKFIT

    Orbital Energies [Eh]
    ---------------------

    Doubly Occupied:

       1A    -20.375239     2A    -20.322391     3A    -20.315902
       4A    -11.151818     5A    -11.103416     6A    -11.064375
       7A     -1.215317     8A     -1.169091     9A     -1.115817
      10A     -0.848048    11A     -0.676013    12A     -0.552349
      13A     -0.506181    14A     -0.471599    15A     -0.438420
      16A     -0.411052    17A     -0.396045    18A     -0.377519
      19A     -0.369780    20A     -0.358781    21A     -0.272051
      22A     -0.246448    23A     -0.227748    24A     -0.191223

  @DF-RHF Final Energy:  -341.27745930634791

   => Energetics <=

    Nuclear Repulsion Energy =            238.7741384627447303
    One-Electron Energy =                -951.7499483937999685
    Two-Electron Energy =                 371.6983506247073024
    Total Energy =                       -341.2774593063479074
  Basis Set: (AUG-CC-PVTZ AUX)
    Blend: AUG-CC-PVTZ-RI
    Molecular point group: c1

    Geometry (in Angstrom), charge = -1, multiplicity = 1:

       Center              X                  Y                   Z               Mass
    ------------   -----------------  -----------------  -----------------  -----------------
         O            1.215952417289     1.273892083268     0.142346876755    15.994914619570
         O           -1.363083582711    -1.206017916732     0.182209876755    15.994914619570
         O           -1.278129582711     1.003336083268    -0.358255123245    15.994914619570
         C            0.719027417289    -0.041578916732     0.409943876755    12.000000000000
         C            1.525803417289    -1.073104916732    -0.359602123245    12.000000000000
         C           -0.878689882711    -0.101670816732     0.022847776755    12.000000000000
         H            0.795910417289    -0.259637916732     1.489121876755     1.007825032230
         H            1.418231417289    -0.891947916732    -1.433812123245     1.007825032230
         H            2.586438417289    -1.007026916732    -0.098870123245     1.007825032230
         H            1.166658417289    -2.078932916732    -0.134247123245     1.007825032230
         H            0.386277417289     1.719588083268    -0.158830123245     1.007825032230

  Basis Set: AUG-CC-PVTZ
    Blend: AUG-CC-PVTZ
  Basis Set: (AUG-CC-PVTZ AUX)
    Blend: AUG-CC-PVTZ-JKFIT
	 Reference Energy          =    -341.2774593063479074 [Eh]
	 Singles Energy            =      -0.0000000000000000 [Eh]
	 Same-Spin Energy          =      -0.3353299178513595 [Eh]
	 Opposite-Spin Energy      =      -1.0162628560682232 [Eh]
	 Correlation Energy        =      -1.3515927739195828 [Eh]
	 Total Energy              =    -342.6290520802675132 [Eh]

	 ================> DF-SCS-MP2 Energies <==================
	-----------------------------------------------------------
	 SCS Same-Spin Scale       =       0.3333333333333333 [-]
	 SCS Opposite-Spin Scale   =       1.2000000000000000 [-]
	 SCS Same-Spin Energy      =      -0.1117766392837865 [Eh]
	 SCS Opposite-Spin Energy  =      -1.2195154272818678 [Eh]
	 SCS Correlation Energy    =      -1.3312920665656542 [Eh]
	 SCS Total Energy          =    -342.6087513729135594 [Eh]
	-----------------------------------------------------------

  Dipole Moment: [D]
     X:     3.1305      Y:    -0.4699      Z:     0.2603     Total:     3.1762

*** Psi4 exiting successfully. Buy a developer a beer!
