                               Psi4 1.3.2 release

  ==> Input File <==

--------------------------------------------------------------------------
#psi4
#
memory 32 gb

molecule  {
-1 1
  O        1.1365690     1.2999450     0.1428980
  O       -1.4424670    -1.1799650     0.1827610
  O       -1.3967785     1.0090516    -0.3624294
  C        0.6375516    -0.0678813     0.4232588
  C        1.4464200    -1.0470520    -0.3590510
  C       -0.8609500    -0.0719650     0.0469300
  H        0.7165270    -0.2335850     1.4896730
  H        1.3388480    -0.8658950    -1.4332610
  H        2.5070550    -0.9809740    -0.0983190
  H        1.0872750    -2.0528800    -0.1336960
  H        0.3068940     1.7456410    -0.1582790
units angstrom
no_reorient  #important for SAPT in psi4, default
symmetry c1  #important for SAPT in psi4, default
}

set PROPERTIES_ORIGIN ["COM"]
properties('MP2/aug-cc-pvtz', properties = ['dipole'])
--------------------------------------------------------------------------

    Molecular point group: c1
  Charge       = -1
  Multiplicity = 1
  Basis Set: AUG-CC-PVTZ
    Blend: AUG-CC-PVTZ
  Basis Set: (AUG-CC-PVTZ AUX)
    Blend: AUG-CC-PVTZ-JKFIT

    Orbital Energies [Eh]
    ---------------------

    Doubly Occupied:

       1A    -20.378632     2A    -20.316879     3A    -20.307301
       4A    -11.152343     5A    -11.119055     6A    -11.074427
       7A     -1.195524     8A     -1.154087     9A     -1.079485
      10A     -0.872074    11A     -0.704528    12A     -0.563049
      13A     -0.497746    14A     -0.476362    15A     -0.435542
      16A     -0.404643    17A     -0.403643    18A     -0.370521
      19A     -0.360325    20A     -0.347678    21A     -0.286269
      22A     -0.231908    23A     -0.214924    24A     -0.210696

  @DF-RHF Final Energy:  -341.27491323477796

   => Energetics <=

    Nuclear Repulsion Energy =            238.3204623858542277
    One-Electron Energy =                -950.8754709728548278
    Two-Electron Energy =                 371.2800953522227019
    Total Energy =                       -341.2749132347779550
  Basis Set: (AUG-CC-PVTZ AUX)
    Blend: AUG-CC-PVTZ-RI
    Molecular point group: c1

    Geometry (in Angstrom), charge = -1, multiplicity = 1:

       Center              X                  Y                   Z               Mass
    ------------   -----------------  -----------------  -----------------  -----------------
         O            1.210197528340     1.284110958123     0.138303506876    15.994914619570
         O           -1.368838471660    -1.195799041877     0.178166506876    15.994914619570
         O           -1.323149971660     0.993217558123    -0.367023893124    15.994914619570
         C            0.711180128340    -0.083715341877     0.418664306876    12.000000000000
         C            1.520048528340    -1.062886041877    -0.363645493124    12.000000000000
         C           -0.787321471660    -0.087799041877     0.042335506876    12.000000000000
         H            0.790155528340    -0.249419041877     1.485078506876     1.007825032230
         H            1.412476528340    -0.881729041877    -1.437855493124     1.007825032230
         H            2.580683528340    -0.996808041877    -0.102913493124     1.007825032230
         H            1.160903528340    -2.068714041877    -0.138290493124     1.007825032230
         H            0.380522528340     1.729806958123    -0.162873493124     1.007825032230

  Basis Set: AUG-CC-PVTZ
    Blend: AUG-CC-PVTZ
  Basis Set: (AUG-CC-PVTZ AUX)
    Blend: AUG-CC-PVTZ-JKFIT
	 Reference Energy          =    -341.2749132347779550 [Eh]
	 Singles Energy            =      -0.0000000000000000 [Eh]
	 Same-Spin Energy          =      -0.3365534391292605 [Eh]
	 Opposite-Spin Energy      =      -1.0199742768167388 [Eh]
	 Correlation Energy        =      -1.3565277159459992 [Eh]
	 Total Energy              =    -342.6314409507239702 [Eh]

	 ================> DF-SCS-MP2 Energies <==================
	-----------------------------------------------------------
	 SCS Same-Spin Scale       =       0.3333333333333333 [-]
	 SCS Opposite-Spin Scale   =       1.2000000000000000 [-]
	 SCS Same-Spin Energy      =      -0.1121844797097535 [Eh]
	 SCS Opposite-Spin Energy  =      -1.2239691321800865 [Eh]
	 SCS Correlation Energy    =      -1.3361536118898401 [Eh]
	 SCS Total Energy          =    -342.6110668466677680 [Eh]
	-----------------------------------------------------------

  Dipole Moment: [D]
     X:     3.9030      Y:    -0.6687      Z:     0.4224     Total:     3.9823

*** Psi4 exiting successfully. Buy a developer a beer!
