                               Psi4 1.3.2 release

  ==> Input File <==

--------------------------------------------------------------------------
#psi4
#
memory 32 gb

molecule  {
-1 1
  O        1.1365690     1.2999450     0.1428980
  O       -1.4424670    -1.1799650     0.1827610
  O       -1.3575130     1.0293890    -0.3577040
  C        0.6396440    -0.0155260     0.4104950
  C        1.4464200    -1.0470520    -0.3590510
  C       -0.8609500    -0.0719650     0.0469300
  H        0.7165270    -0.2335850     1.4896730
  H        1.3388480    -0.8658950    -1.4332610
  H        2.5070550    -0.9809740    -0.0983190
  H        1.0872750    -2.0528800    -0.1336960
  H        0.2229862     1.7907157    -0.1887380
units angstrom
no_reorient  #important for SAPT in psi4, default
symmetry c1  #important for SAPT in psi4, default
}

set PROPERTIES_ORIGIN ["COM"]
properties('MP2/aug-cc-pvtz', properties = ['dipole'])
--------------------------------------------------------------------------

    Molecular point group: c1
  Charge       = -1
  Multiplicity = 1
  Basis Set: AUG-CC-PVTZ
    Blend: AUG-CC-PVTZ
  Basis Set: (AUG-CC-PVTZ AUX)
    Blend: AUG-CC-PVTZ-JKFIT

    Orbital Energies [Eh]
    ---------------------

    Doubly Occupied:

       1A    -20.380787     2A    -20.323344     3A    -20.312005
       4A    -11.154150     5A    -11.114126     6A    -11.070569
       7A     -1.198092     8A     -1.150332     9A     -1.086260
      10A     -0.857129    11A     -0.698188    12A     -0.555297
      13A     -0.497264    14A     -0.475276    15A     -0.435514
      16A     -0.403223    17A     -0.396482    18A     -0.369142
      19A     -0.355126    20A     -0.349444    21A     -0.273413
      22A     -0.236740    23A     -0.216903    24A     -0.215202

  @DF-RHF Final Energy:  -341.26805350177784

   => Energetics <=

    Nuclear Repulsion Energy =            238.5445793997986925
    One-Electron Energy =                -951.3772427428640412
    Two-Electron Energy =                 371.5646098412875631
    Total Energy =                       -341.2680535017778425
  Basis Set: (AUG-CC-PVTZ AUX)
    Blend: AUG-CC-PVTZ-RI
    Molecular point group: c1

    Geometry (in Angstrom), charge = -1, multiplicity = 1:

       Center              X                  Y                   Z               Mass
    ------------   -----------------  -----------------  -----------------  -----------------
         O            1.203810558812     1.272889405987     0.139519816326    15.994914619570
         O           -1.375225441188    -1.207020594013     0.179382816326    15.994914619570
         O           -1.290271441188     1.002333405987    -0.361082183674    15.994914619570
         C            0.706885558812    -0.042581594013     0.407116816326    12.000000000000
         C            1.513661558812    -1.074107594013    -0.362429183674    12.000000000000
         C           -0.793708441188    -0.099020594013     0.043551816326    12.000000000000
         H            0.783768558812    -0.260640594013     1.486294816326     1.007825032230
         H            1.406089558812    -0.892950594013    -1.436639183674     1.007825032230
         H            2.574296558812    -1.008029594013    -0.101697183674     1.007825032230
         H            1.154516558812    -2.079935594013    -0.137074183674     1.007825032230
         H            0.290227758812     1.763660105987    -0.192116183674     1.007825032230

  Basis Set: AUG-CC-PVTZ
    Blend: AUG-CC-PVTZ
  Basis Set: (AUG-CC-PVTZ AUX)
    Blend: AUG-CC-PVTZ-JKFIT
	 Reference Energy          =    -341.2680535017778425 [Eh]
	 Singles Energy            =      -0.0000000000000000 [Eh]
	 Same-Spin Energy          =      -0.3382213581110285 [Eh]
	 Opposite-Spin Energy      =      -1.0223559270013609 [Eh]
	 Correlation Energy        =      -1.3605772851123894 [Eh]
	 Total Energy              =    -342.6286307868902554 [Eh]

	 ================> DF-SCS-MP2 Energies <==================
	-----------------------------------------------------------
	 SCS Same-Spin Scale       =       0.3333333333333333 [-]
	 SCS Opposite-Spin Scale   =       1.2000000000000000 [-]
	 SCS Same-Spin Energy      =      -0.1127404527036762 [Eh]
	 SCS Opposite-Spin Energy  =      -1.2268271124016330 [Eh]
	 SCS Correlation Energy    =      -1.3395675651053092 [Eh]
	 SCS Total Energy          =    -342.6076210668831550 [Eh]
	-----------------------------------------------------------

  Dipole Moment: [D]
     X:     3.5163      Y:    -0.4840      Z:     0.3186     Total:     3.5637

*** Psi4 exiting successfully. Buy a developer a beer!
