                               Psi4 1.3.2 release

  ==> Input File <==

--------------------------------------------------------------------------
#psi4
#
memory 32 gb

molecule  {
-1 1
  O        1.1365690     1.2999450     0.1428980
  O       -1.4424670    -1.1799650     0.1827610
  O       -1.3575130     1.0293890    -0.3577040
  C        0.6626151    -0.0225746     0.4173357
  C        1.4464200    -1.0470520    -0.3590510
  C       -0.8609500    -0.0719650     0.0469300
  H        0.7165270    -0.2335850     1.4896730
  H        1.3388480    -0.8658950    -1.4332610
  H        2.5070550    -0.9809740    -0.0983190
  H        1.0872750    -2.0528800    -0.1336960
  H        0.3157583     1.7602725    -0.1605515
units angstrom
no_reorient  #important for SAPT in psi4, default
symmetry c1  #important for SAPT in psi4, default
}

set PROPERTIES_ORIGIN ["COM"]
properties('MP2/aug-cc-pvtz', properties = ['dipole'])
--------------------------------------------------------------------------

    Molecular point group: c1
  Charge       = -1
  Multiplicity = 1
  Basis Set: AUG-CC-PVTZ
    Blend: AUG-CC-PVTZ
  Basis Set: (AUG-CC-PVTZ AUX)
    Blend: AUG-CC-PVTZ-JKFIT

    Orbital Energies [Eh]
    ---------------------

    Doubly Occupied:

       1A    -20.381107     2A    -20.317309     3A    -20.309774
       4A    -11.152667     5A    -11.115567     6A    -11.071458
       7A     -1.202035     8A     -1.162549     9A     -1.082225
      10A     -0.864388    11A     -0.697711    12A     -0.564746
      13A     -0.501580    14A     -0.477431    15A     -0.435339
      16A     -0.406117    17A     -0.400997    18A     -0.372245
      19A     -0.363606    20A     -0.349315    21A     -0.282112
      22A     -0.232218    23A     -0.212909    24A     -0.211046

  @DF-RHF Final Energy:  -341.27914320377931

   => Energetics <=

    Nuclear Repulsion Energy =            238.6801967353798091
    One-Electron Energy =                -951.5857800145814736
    Two-Electron Energy =                 371.6264400754223516
    Total Energy =                       -341.2791432037793129
  Basis Set: (AUG-CC-PVTZ AUX)
    Blend: AUG-CC-PVTZ-RI
    Molecular point group: c1

    Geometry (in Angstrom), charge = -1, multiplicity = 1:

       Center              X                  Y                   Z               Mass
    ------------   -----------------  -----------------  -----------------  -----------------
         O            1.199663904114     1.274184166822     0.138278627176    15.994914619570
         O           -1.379372095886    -1.205725833178     0.178141627176    15.994914619570
         O           -1.294418095886     1.003628166822    -0.362323372824    15.994914619570
         C            0.725710004114    -0.048335433178     0.412716327176    12.000000000000
         C            1.509514904114    -1.072812833178    -0.363670372824    12.000000000000
         C           -0.797855095886    -0.097725833178     0.042310627176    12.000000000000
         H            0.779621904114    -0.259345833178     1.485053627176     1.007825032230
         H            1.401942904114    -0.891655833178    -1.437880372824     1.007825032230
         H            2.570149904114    -1.006734833178    -0.102938372824     1.007825032230
         H            1.150369904114    -2.078640833178    -0.138315372824     1.007825032230
         H            0.378853204114     1.734511666822    -0.165170872824     1.007825032230

  Basis Set: AUG-CC-PVTZ
    Blend: AUG-CC-PVTZ
  Basis Set: (AUG-CC-PVTZ AUX)
    Blend: AUG-CC-PVTZ-JKFIT
	 Reference Energy          =    -341.2791432037793129 [Eh]
	 Singles Energy            =      -0.0000000000000000 [Eh]
	 Same-Spin Energy          =      -0.3364132761640643 [Eh]
	 Opposite-Spin Energy      =      -1.0188577192395187 [Eh]
	 Correlation Energy        =      -1.3552709954035831 [Eh]
	 Total Energy              =    -342.6344141991829133 [Eh]

	 ================> DF-SCS-MP2 Energies <==================
	-----------------------------------------------------------
	 SCS Same-Spin Scale       =       0.3333333333333333 [-]
	 SCS Opposite-Spin Scale   =       1.2000000000000000 [-]
	 SCS Same-Spin Energy      =      -0.1121377587213548 [Eh]
	 SCS Opposite-Spin Energy  =      -1.2226292630874225 [Eh]
	 SCS Correlation Energy    =      -1.3347670218087773 [Eh]
	 SCS Total Energy          =    -342.6139102255880857 [Eh]
	-----------------------------------------------------------

  Dipole Moment: [D]
     X:     3.8173      Y:    -0.4777      Z:     0.3752     Total:     3.8653

*** Psi4 exiting successfully. Buy a developer a beer!
