                               Psi4 1.4a3.dev225

  ==> Input File <==

--------------------------------------------------------------------------
#psi4
#
memory 32 gb

molecule  {
-1 1
  O       -1.1681810     1.2683390    -0.1935740
  O        1.4902400    -1.1295240    -0.2243730
  O        1.3027740     1.0522020     0.4123420
  C       -0.6404390    -0.0405420    -0.4184120
  C       -1.4092810    -1.0711850     0.3952000
  C        0.8630350    -0.0522610    -0.0492080
  H       -0.7299473    -0.2988584    -1.5364711
  H       -1.3060210    -0.8470660     1.4617500
  H       -2.4733650    -1.0522610     0.1409170
  H       -1.0158520    -2.0724200     0.2054930
  H       -0.3572580     1.7151740     0.1591030
units angstrom
no_reorient  #important for SAPT in psi4, default
symmetry c1  #important for SAPT in psi4, default
}

set PROPERTIES_ORIGIN ["COM"]
properties('MP2/aug-cc-pvtz', properties = ['dipole'])
--------------------------------------------------------------------------

    Molecular point group: c1
  Charge       = -1
  Multiplicity = 1
  Basis Set: AUG-CC-PVTZ
    Blend: AUG-CC-PVTZ
  Basis Set: (AUG-CC-PVTZ AUX)
    Blend: AUG-CC-PVTZ-JKFIT

    Orbital Energies [Eh]
    ---------------------

    Doubly Occupied:

       1A    -20.382009     2A    -20.319557     3A    -20.311636
       4A    -11.154391     5A    -11.122313     6A    -11.073034
       7A     -1.205205     8A     -1.164142     9A     -1.084540
      10A     -0.860132    11A     -0.697432    12A     -0.565737
      13A     -0.497326    14A     -0.475355    15A     -0.437309
      16A     -0.406422    17A     -0.402145    18A     -0.371638
      19A     -0.364125    20A     -0.349593    21A     -0.276442
      22A     -0.235351    23A     -0.215745    24A     -0.214659

  @DF-RHF Final Energy:  -341.27745333737340

   => Energetics <=

    Nuclear Repulsion Energy =            238.7216021555769601
    One-Electron Energy =                -951.6256381297191638
    Two-Electron Energy =                 371.6265826367687737
    Total Energy =                       -341.2774533373734016
  Basis Set: (AUG-CC-PVTZ AUX)
    Blend: AUG-CC-PVTZ-RI
    Molecular point group: c1

    Geometry (in Angstrom), charge = -1, multiplicity = 1:

       Center              X                  Y                   Z               Mass
    ------------   -----------------  -----------------  -----------------  -----------------
         O           -1.233560898242     1.240178782746    -0.187682000004    15.994914619570
         O            1.424860101758    -1.157684217254    -0.218481000004    15.994914619570
         O            1.237394101758     1.024041782746     0.418233999996    15.994914619570
         C           -0.705818898242    -0.068702217254    -0.412520000004    12.000000000000
         C           -1.474660898242    -1.099345217254     0.401091999996    12.000000000000
         C            0.797655101758    -0.080421217254    -0.043316000004    12.000000000000
         H           -0.795327198242    -0.327018617254    -1.530579100004     1.007825032230
         H           -1.371400898242    -0.875226217254     1.467641999996     1.007825032230
         H           -2.538744898242    -1.080421217254     0.146808999996     1.007825032230
         H           -1.081231898242    -2.100580217254     0.211384999996     1.007825032230
         H           -0.422637898242     1.687013782746     0.164994999996     1.007825032230

  Basis Set: AUG-CC-PVTZ
    Blend: AUG-CC-PVTZ
  Basis Set: (AUG-CC-PVTZ AUX)
    Blend: AUG-CC-PVTZ-JKFIT
	 Reference Energy          =    -341.2774533373734016 [Eh]
	 Singles Energy            =      -0.0000000000000000 [Eh]
	 Same-Spin Energy          =      -0.3366741966867542 [Eh]
	 Opposite-Spin Energy      =      -1.0196218683366853 [Eh]
	 Correlation Energy        =      -1.3562960650234395 [Eh]
	 Total Energy              =    -342.6337494023968588 [Eh]

	 ================> DF-SCS-MP2 Energies <==================
	-----------------------------------------------------------
	 SCS Same-Spin Scale       =       0.3333333333333333 [-]
	 SCS Opposite-Spin Scale   =       1.2000000000000000 [-]
	 SCS Same-Spin Energy      =      -0.1122247322289181 [Eh]
	 SCS Opposite-Spin Energy  =      -1.2235462420040224 [Eh]
	 SCS Correlation Energy    =      -1.3357709742329404 [Eh]
	 SCS Total Energy          =    -342.6132243116063592 [Eh]
	-----------------------------------------------------------

  Dipole Moment: [D]
     X:    -3.7385      Y:    -0.5924      Z:    -0.2460     Total:     3.7931

*** Psi4 exiting successfully. Buy a developer a beer!
