                               Psi4 1.4a3.dev225

  ==> Input File <==

--------------------------------------------------------------------------
#psi4
#
memory 32 gb

molecule  {
-1 1
  O       -1.1681810     1.2683390    -0.1935740
  O        1.4902400    -1.1295240    -0.2243730
  O        1.3027740     1.0522020     0.4123420
  C       -0.6404390    -0.0405420    -0.4184120
  C       -1.4092810    -1.0711850     0.3952000
  C        0.8630350    -0.0522610    -0.0492080
  H       -0.7260590    -0.2876370    -1.4879020
  H       -1.3060210    -0.8470660     1.4617500
  H       -2.4733650    -1.0522610     0.1409170
  H       -1.0158520    -2.0724200     0.2054930
  H       -0.3163344     1.7377237     0.1769010
units angstrom
no_reorient  #important for SAPT in psi4, default
symmetry c1  #important for SAPT in psi4, default
}

set PROPERTIES_ORIGIN ["COM"]
properties('MP2/aug-cc-pvtz', properties = ['dipole'])
--------------------------------------------------------------------------

    Molecular point group: c1
  Charge       = -1
  Multiplicity = 1
  Basis Set: AUG-CC-PVTZ
    Blend: AUG-CC-PVTZ
  Basis Set: (AUG-CC-PVTZ AUX)
    Blend: AUG-CC-PVTZ-JKFIT

    Orbital Energies [Eh]
    ---------------------

    Doubly Occupied:

       1A    -20.380629     2A    -20.321728     3A    -20.312365
       4A    -11.154455     5A    -11.114668     6A    -11.071626
       7A     -1.200501     8A     -1.157375     9A     -1.085749
      10A     -0.858649    11A     -0.698706    12A     -0.561503
      13A     -0.497626    14A     -0.475998    15A     -0.436020
      16A     -0.404776    17A     -0.400344    18A     -0.369927
      19A     -0.359896    20A     -0.350172    21A     -0.275315
      22A     -0.236623    23A     -0.216394    24A     -0.215262

  @DF-RHF Final Energy:  -341.27506969299765

   => Energetics <=

    Nuclear Repulsion Energy =            238.7630056718650451
    One-Electron Energy =                -951.7635364752151190
    Two-Electron Energy =                 371.7254611103524553
    Total Energy =                       -341.2750696929976471
  Basis Set: (AUG-CC-PVTZ AUX)
    Blend: AUG-CC-PVTZ-RI
    Molecular point group: c1

    Geometry (in Angstrom), charge = -1, multiplicity = 1:

       Center              X                  Y                   Z               Mass
    ------------   -----------------  -----------------  -----------------  -----------------
         O           -1.234068206620     1.239796465505    -0.188433331365    15.994914619570
         O            1.424352793380    -1.158066534495    -0.219232331365    15.994914619570
         O            1.236886793380     1.023659465505     0.417482668635    15.994914619570
         C           -0.706326206620    -0.069084534495    -0.413271331365    12.000000000000
         C           -1.475168206620    -1.099727534495     0.400340668635    12.000000000000
         C            0.797147793380    -0.080803534495    -0.044067331365    12.000000000000
         H           -0.791946206620    -0.316179534495    -1.482761331365     1.007825032230
         H           -1.371908206620    -0.875608534495     1.466890668635     1.007825032230
         H           -2.539252206620    -1.080803534495     0.146057668635     1.007825032230
         H           -1.081739206620    -2.100962534495     0.210633668635     1.007825032230
         H           -0.382221606620     1.709181165505     0.182041668635     1.007825032230

  Basis Set: AUG-CC-PVTZ
    Blend: AUG-CC-PVTZ
  Basis Set: (AUG-CC-PVTZ AUX)
    Blend: AUG-CC-PVTZ-JKFIT
	 Reference Energy          =    -341.2750696929976471 [Eh]
	 Singles Energy            =      -0.0000000000000000 [Eh]
	 Same-Spin Energy          =      -0.3374975094220309 [Eh]
	 Opposite-Spin Energy      =      -1.0208891360431960 [Eh]
	 Correlation Energy        =      -1.3583866454652269 [Eh]
	 Total Energy              =    -342.6334563384628495 [Eh]

	 ================> DF-SCS-MP2 Energies <==================
	-----------------------------------------------------------
	 SCS Same-Spin Scale       =       0.3333333333333333 [-]
	 SCS Opposite-Spin Scale   =       1.2000000000000000 [-]
	 SCS Same-Spin Energy      =      -0.1124991698073436 [Eh]
	 SCS Opposite-Spin Energy  =      -1.2250669632518352 [Eh]
	 SCS Correlation Energy    =      -1.3375661330591788 [Eh]
	 SCS Total Energy          =    -342.6126358260568168 [Eh]
	-----------------------------------------------------------

  Dipole Moment: [D]
     X:    -3.6078      Y:    -0.6120      Z:    -0.2668     Total:     3.6690

*** Psi4 exiting successfully. Buy a developer a beer!
