                               Psi4 1.3.2 release

  ==> Input File <==

--------------------------------------------------------------------------
#psi4
#
memory 32 gb

molecule  {
-1 1
  O        1.1365690     1.2999450     0.1428980
  O       -1.4424670    -1.1799650     0.1827610
  O       -1.3575130     1.0293890    -0.3577040
  C        0.6435387    -0.0210658     0.4218897
  C        1.4464200    -1.0470520    -0.3590510
  C       -0.8609500    -0.0719650     0.0469300
  H        0.7165270    -0.2335850     1.4896730
  H        1.3445634    -0.8733384    -1.4350461
  H        2.5070550    -0.9809740    -0.0983190
  H        1.0872750    -2.0528800    -0.1336960
  H        0.3068940     1.7456410    -0.1582790
units angstrom
no_reorient  #important for SAPT in psi4, default
symmetry c1  #important for SAPT in psi4, default
}

set PROPERTIES_ORIGIN ["COM"]
properties('MP2/aug-cc-pvtz', properties = ['dipole'])
--------------------------------------------------------------------------

    Molecular point group: c1
  Charge       = -1
  Multiplicity = 1
  Basis Set: AUG-CC-PVTZ
    Blend: AUG-CC-PVTZ
  Basis Set: (AUG-CC-PVTZ AUX)
    Blend: AUG-CC-PVTZ-JKFIT

    Orbital Energies [Eh]
    ---------------------

    Doubly Occupied:

       1A    -20.380666     2A    -20.317973     3A    -20.310200
       4A    -11.152828     5A    -11.115886     6A    -11.072033
       7A     -1.202472     8A     -1.162103     9A     -1.083099
      10A     -0.861972    11A     -0.701207    12A     -0.565499
      13A     -0.500790    14A     -0.476816    15A     -0.435672
      16A     -0.404367    17A     -0.400723    18A     -0.370906
      19A     -0.365870    20A     -0.349352    21A     -0.280886
      22A     -0.233530    23A     -0.214259    24A     -0.213408

  @DF-RHF Final Energy:  -341.27956550874740

   => Energetics <=

    Nuclear Repulsion Energy =            238.7883130797263220
    One-Electron Energy =                -951.7907234454251011
    Two-Electron Energy =                 371.7228448569513830
    Total Energy =                       -341.2795655087473961
  Basis Set: (AUG-CC-PVTZ AUX)
    Blend: AUG-CC-PVTZ-RI
    Molecular point group: c1

    Geometry (in Angstrom), charge = -1, multiplicity = 1:

       Center              X                  Y                   Z               Mass
    ------------   -----------------  -----------------  -----------------  -----------------
         O            1.202270961556     1.274230694083     0.137659251558    15.994914619570
         O           -1.376765038444    -1.205679305917     0.177522251558    15.994914619570
         O           -1.291811038444     1.003674694083    -0.362942748442    15.994914619570
         C            0.709240661556    -0.046780105917     0.416650951558    12.000000000000
         C            1.512121961556    -1.072766305917    -0.364289748442    12.000000000000
         C           -0.795248038444    -0.097679305917     0.041691251558    12.000000000000
         H            0.782228961556    -0.259299305917     1.484434251558     1.007825032230
         H            1.410265361556    -0.899052705917    -1.440284848442     1.007825032230
         H            2.572756961556    -1.006688305917    -0.103557748442     1.007825032230
         H            1.152976961556    -2.078594305917    -0.138934748442     1.007825032230
         H            0.372595961556     1.719926694083    -0.163517748442     1.007825032230

  Basis Set: AUG-CC-PVTZ
    Blend: AUG-CC-PVTZ
  Basis Set: (AUG-CC-PVTZ AUX)
    Blend: AUG-CC-PVTZ-JKFIT
	 Reference Energy          =    -341.2795655087473961 [Eh]
	 Singles Energy            =      -0.0000000000000000 [Eh]
	 Same-Spin Energy          =      -0.3364321602145854 [Eh]
	 Opposite-Spin Energy      =      -1.0190283534071383 [Eh]
	 Correlation Energy        =      -1.3554605136217237 [Eh]
	 Total Energy              =    -342.6350260223691180 [Eh]

	 ================> DF-SCS-MP2 Energies <==================
	-----------------------------------------------------------
	 SCS Same-Spin Scale       =       0.3333333333333333 [-]
	 SCS Opposite-Spin Scale   =       1.2000000000000000 [-]
	 SCS Same-Spin Energy      =      -0.1121440534048618 [Eh]
	 SCS Opposite-Spin Energy  =      -1.2228340240885658 [Eh]
	 SCS Correlation Energy    =      -1.3349780774934277 [Eh]
	 SCS Total Energy          =    -342.6145435862408135 [Eh]
	-----------------------------------------------------------

  Dipole Moment: [D]
     X:     3.7852      Y:    -0.5032      Z:     0.3989     Total:     3.8393

*** Psi4 exiting successfully. Buy a developer a beer!
