                               Psi4 1.3.2 release

  ==> Input File <==

--------------------------------------------------------------------------
#psi4
#
memory 32 gb

molecule  {
-1 1
  O        1.1365690     1.2999450     0.1428980
  O       -1.4424670    -1.1799650     0.1827610
  O       -1.3575130     1.0293890    -0.3577040
  C        0.6396440    -0.0155260     0.4104950
  C        1.4464200    -1.0470520    -0.3590510
  C       -0.8609500    -0.0719650     0.0469300
  H        0.7304593    -0.2731003     1.6852348
  H        1.3388480    -0.8658950    -1.4332610
  H        2.5070550    -0.9809740    -0.0983190
  H        1.0872750    -2.0528800    -0.1336960
  H        0.3068940     1.7456410    -0.1582790
units angstrom
no_reorient  #important for SAPT in psi4, default
symmetry c1  #important for SAPT in psi4, default
}

set PROPERTIES_ORIGIN ["COM"]
properties('MP2/aug-cc-pvtz', properties = ['dipole'])
--------------------------------------------------------------------------

    Molecular point group: c1
  Charge       = -1
  Multiplicity = 1
  Basis Set: AUG-CC-PVTZ
    Blend: AUG-CC-PVTZ
  Basis Set: (AUG-CC-PVTZ AUX)
    Blend: AUG-CC-PVTZ-JKFIT

    Orbital Energies [Eh]
    ---------------------

    Doubly Occupied:

       1A    -20.387721     2A    -20.320295     3A    -20.311323
       4A    -11.155974     5A    -11.141667     6A    -11.075485
       7A     -1.207436     8A     -1.166583     9A     -1.084947
      10A     -0.860276    11A     -0.693519    12A     -0.563716
      13A     -0.495239    14A     -0.469327    15A     -0.439879
      16A     -0.406800    17A     -0.402164    18A     -0.374025
      19A     -0.363115    20A     -0.348168    21A     -0.269909
      22A     -0.235219    23A     -0.217264    24A     -0.214254

  @DF-RHF Final Energy:  -341.26009203615121

   => Energetics <=

    Nuclear Repulsion Energy =            238.0189940562411834
    One-Electron Energy =                -950.1495625976600650
    Two-Electron Energy =                 370.8704765052676180
    Total Energy =                       -341.2600920361512067
  Basis Set: (AUG-CC-PVTZ AUX)
    Blend: AUG-CC-PVTZ-RI
    Molecular point group: c1

    Geometry (in Angstrom), charge = -1, multiplicity = 1:

       Center              X                  Y                   Z               Mass
    ------------   -----------------  -----------------  -----------------  -----------------
         O            1.202702926634     1.273847035895     0.136961070873    15.994914619570
         O           -1.376333073366    -1.206062964105     0.176824070873    15.994914619570
         O           -1.291379073366     1.003291035895    -0.363640929127    15.994914619570
         C            0.705777926634    -0.041623964105     0.404558070873    12.000000000000
         C            1.512553926634    -1.073149964105    -0.364987929127    12.000000000000
         C           -0.794816073366    -0.098062964105     0.040993070873    12.000000000000
         H            0.796593226634    -0.299198264105     1.679297870873     1.007825032230
         H            1.404981926634    -0.891992964105    -1.439197929127     1.007825032230
         H            2.573188926634    -1.007071964105    -0.104255929127     1.007825032230
         H            1.153408926634    -2.078977964105    -0.139632929127     1.007825032230
         H            0.373027926634     1.719543035895    -0.164215929127     1.007825032230

  Basis Set: AUG-CC-PVTZ
    Blend: AUG-CC-PVTZ
  Basis Set: (AUG-CC-PVTZ AUX)
    Blend: AUG-CC-PVTZ-JKFIT
	 Reference Energy          =    -341.2600920361512067 [Eh]
	 Singles Energy            =      -0.0000000000000000 [Eh]
	 Same-Spin Energy          =      -0.3367184236590621 [Eh]
	 Opposite-Spin Energy      =      -1.0208436618034542 [Eh]
	 Correlation Energy        =      -1.3575620854625163 [Eh]
	 Total Energy              =    -342.6176541216137252 [Eh]

	 ================> DF-SCS-MP2 Energies <==================
	-----------------------------------------------------------
	 SCS Same-Spin Scale       =       0.3333333333333333 [-]
	 SCS Opposite-Spin Scale   =       1.2000000000000000 [-]
	 SCS Same-Spin Energy      =      -0.1122394745530207 [Eh]
	 SCS Opposite-Spin Energy  =      -1.2250123941641451 [Eh]
	 SCS Correlation Energy    =      -1.3372518687171657 [Eh]
	 SCS Total Energy          =    -342.5973439048683531 [Eh]
	-----------------------------------------------------------

  Dipole Moment: [D]
     X:     3.7673      Y:    -0.3901      Z:     0.0982     Total:     3.7888

*** Psi4 exiting successfully. Buy a developer a beer!
