                               Psi4 1.3.2 release

  ==> Input File <==

--------------------------------------------------------------------------
#psi4
#
memory 32 gb

molecule  {
-1 1
  O        1.1365690     1.2999450     0.1428980
  O       -1.4424670    -1.1799650     0.1827610
  O       -1.3575130     1.0293890    -0.3577040
  C        0.6396440    -0.0155260     0.4104950
  C        1.4464200    -1.0470520    -0.3590510
  C       -0.8609500    -0.0719650     0.0469300
  H        0.7165270    -0.2335850     1.4896730
  H        1.3388480    -0.8658950    -1.4332610
  H        2.5070550    -0.9809740    -0.0983190
  H        1.0872750    -2.0528800    -0.1336960
  H        0.1390784     1.8357904    -0.2191971
units angstrom
no_reorient  #important for SAPT in psi4, default
symmetry c1  #important for SAPT in psi4, default
}

set PROPERTIES_ORIGIN ["COM"]
properties('MP2/aug-cc-pvtz', properties = ['dipole'])
--------------------------------------------------------------------------

    Molecular point group: c1
  Charge       = -1
  Multiplicity = 1
  Basis Set: AUG-CC-PVTZ
    Blend: AUG-CC-PVTZ
  Basis Set: (AUG-CC-PVTZ AUX)
    Blend: AUG-CC-PVTZ-JKFIT

    Orbital Energies [Eh]
    ---------------------

    Doubly Occupied:

       1A    -20.376187     2A    -20.330472     3A    -20.314382
       4A    -11.156307     5A    -11.111693     6A    -11.068983
       7A     -1.198226     8A     -1.135856     9A     -1.089875
      10A     -0.852779    11A     -0.695700    12A     -0.547744
      13A     -0.496693    14A     -0.471407    15A     -0.435210
      16A     -0.404084    17A     -0.392225    18A     -0.365894
      19A     -0.350214    20A     -0.340710    21A     -0.266983
      22A     -0.239940    23A     -0.220779    24A     -0.215215

  @DF-RHF Final Energy:  -341.24962441495336

   => Energetics <=

    Nuclear Repulsion Energy =            238.2003622716492544
    One-Electron Energy =                -950.7448559573523426
    Two-Electron Energy =                 371.2948692707497003
    Total Energy =                       -341.2496244149533595
  Basis Set: (AUG-CC-PVTZ AUX)
    Blend: AUG-CC-PVTZ-RI
    Molecular point group: c1

    Geometry (in Angstrom), charge = -1, multiplicity = 1:

       Center              X                  Y                   Z               Mass
    ------------   -----------------  -----------------  -----------------  -----------------
         O            1.204760465642     1.272379122492     0.139864638942    15.994914619570
         O           -1.374275534358    -1.207530877508     0.179727638942    15.994914619570
         O           -1.289321534358     1.001823122492    -0.360737361058    15.994914619570
         C            0.707835465642    -0.043091877508     0.407461638942    12.000000000000
         C            1.514611465642    -1.074617877508    -0.362084361058    12.000000000000
         C           -0.792758534358    -0.099530877508     0.043896638942    12.000000000000
         H            0.784718465642    -0.261150877508     1.486639638942     1.007825032230
         H            1.407039465642    -0.893460877508    -1.436294361058     1.007825032230
         H            2.575246465642    -1.008539877508    -0.101352361058     1.007825032230
         H            1.155466465642    -2.080445877508    -0.136729361058     1.007825032230
         H            0.207269865642     1.808224522492    -0.222230461058     1.007825032230

  Basis Set: AUG-CC-PVTZ
    Blend: AUG-CC-PVTZ
  Basis Set: (AUG-CC-PVTZ AUX)
    Blend: AUG-CC-PVTZ-JKFIT
	 Reference Energy          =    -341.2496244149533595 [Eh]
	 Singles Energy            =      -0.0000000000000000 [Eh]
	 Same-Spin Energy          =      -0.3400143573218644 [Eh]
	 Opposite-Spin Energy      =      -1.0258671947201969 [Eh]
	 Correlation Energy        =      -1.3658815520420613 [Eh]
	 Total Energy              =    -342.6155059669954426 [Eh]

	 ================> DF-SCS-MP2 Energies <==================
	-----------------------------------------------------------
	 SCS Same-Spin Scale       =       0.3333333333333333 [-]
	 SCS Opposite-Spin Scale   =       1.2000000000000000 [-]
	 SCS Same-Spin Energy      =      -0.1133381191072881 [Eh]
	 SCS Opposite-Spin Energy  =      -1.2310406336642363 [Eh]
	 SCS Correlation Energy    =      -1.3443787527715245 [Eh]
	 SCS Total Energy          =    -342.5940031677249067 [Eh]
	-----------------------------------------------------------

  Dipole Moment: [D]
     X:     3.1865      Y:    -0.5147      Z:     0.2567     Total:     3.2380

*** Psi4 exiting successfully. Buy a developer a beer!
