                               Psi4 1.3.2 release

  ==> Input File <==

--------------------------------------------------------------------------
#psi4
#
memory 32 gb

molecule  {
-1 1
  O        1.1365690     1.2999450     0.1428980
  O       -1.4045627    -1.1972818     0.1966745
  O       -1.3176325     1.0483745    -0.3525254
  C        0.6396440    -0.0155260     0.4104950
  C        1.4464200    -1.0470520    -0.3590510
  C       -0.8609500    -0.0719650     0.0469300
  H        0.7165270    -0.2335850     1.4896730
  H        1.3388480    -0.8658950    -1.4332610
  H        2.5070550    -0.9809740    -0.0983190
  H        1.0872750    -2.0528800    -0.1336960
  H        0.3068940     1.7456410    -0.1582790
units angstrom
no_reorient  #important for SAPT in psi4, default
symmetry c1  #important for SAPT in psi4, default
}

set PROPERTIES_ORIGIN ["COM"]
properties('MP2/aug-cc-pvtz', properties = ['dipole'])
--------------------------------------------------------------------------

    Molecular point group: c1
  Charge       = -1
  Multiplicity = 1
  Basis Set: AUG-CC-PVTZ
    Blend: AUG-CC-PVTZ
  Basis Set: (AUG-CC-PVTZ AUX)
    Blend: AUG-CC-PVTZ-JKFIT

    Orbital Energies [Eh]
    ---------------------

    Doubly Occupied:

       1A    -20.376676     2A    -20.321973     3A    -20.314266
       4A    -11.154863     5A    -11.111062     6A    -11.069203
       7A     -1.204144     8A     -1.160960     9A     -1.090536
      10A     -0.858477    11A     -0.698010    12A     -0.563532
      13A     -0.502121    14A     -0.476057    15A     -0.436765
      16A     -0.404761    17A     -0.398787    18A     -0.370683
      19A     -0.363740    20A     -0.349303    21A     -0.276015
      22A     -0.238877    23A     -0.218430    24A     -0.212593

  @DF-RHF Final Energy:  -341.27889102325412

   => Energetics <=

    Nuclear Repulsion Energy =            239.4964395725496047
    One-Electron Energy =                -953.2069978911499675
    Two-Electron Energy =                 372.4316672953461875
    Total Energy =                       -341.2788910232541184
  Basis Set: (AUG-CC-PVTZ AUX)
    Blend: AUG-CC-PVTZ-RI
    Molecular point group: c1

    Geometry (in Angstrom), charge = -1, multiplicity = 1:

       Center              X                  Y                   Z               Mass
    ------------   -----------------  -----------------  -----------------  -----------------
         O            1.188885060397     1.273099874226     0.135744718077    15.994914619570
         O           -1.352246639603    -1.224126925774     0.189521218077    15.994914619570
         O           -1.265316439603     1.021529374226    -0.359678681923    15.994914619570
         C            0.691960060397    -0.042371125774     0.403341718077    12.000000000000
         C            1.498736060397    -1.073897125774    -0.366204281923    12.000000000000
         C           -0.808633939603    -0.098810125774     0.039776718077    12.000000000000
         H            0.768843060397    -0.260430125774     1.482519718077     1.007825032230
         H            1.391164060397    -0.892740125774    -1.440414281923     1.007825032230
         H            2.559371060397    -1.007819125774    -0.105472281923     1.007825032230
         H            1.139591060397    -2.079725125774    -0.140849281923     1.007825032230
         H            0.359210060397     1.718795874226    -0.165432281923     1.007825032230

  Basis Set: AUG-CC-PVTZ
    Blend: AUG-CC-PVTZ
  Basis Set: (AUG-CC-PVTZ AUX)
    Blend: AUG-CC-PVTZ-JKFIT
	 Reference Energy          =    -341.2788910232541184 [Eh]
	 Singles Energy            =      -0.0000000000000000 [Eh]
	 Same-Spin Energy          =      -0.3367517291913745 [Eh]
	 Opposite-Spin Energy      =      -1.0192847562267904 [Eh]
	 Correlation Energy        =      -1.3560364854181648 [Eh]
	 Total Energy              =    -342.6349275086722628 [Eh]

	 ================> DF-SCS-MP2 Energies <==================
	-----------------------------------------------------------
	 SCS Same-Spin Scale       =       0.3333333333333333 [-]
	 SCS Opposite-Spin Scale   =       1.2000000000000000 [-]
	 SCS Same-Spin Energy      =      -0.1122505763971248 [Eh]
	 SCS Opposite-Spin Energy  =      -1.2231417074721485 [Eh]
	 SCS Correlation Energy    =      -1.3353922838692733 [Eh]
	 SCS Total Energy          =    -342.6142833071234008 [Eh]
	-----------------------------------------------------------

  Dipole Moment: [D]
     X:     3.5453      Y:    -0.4856      Z:     0.3345     Total:     3.5940

*** Psi4 exiting successfully. Buy a developer a beer!
