                               Psi4 1.3.2 release

  ==> Input File <==

--------------------------------------------------------------------------
#psi4
#
memory 32 gb

molecule  {
-1 1
  O        1.1365690     1.2999450     0.1428980
  O       -1.4611563    -1.1707990     0.1757411
  O       -1.3772294     1.0193916    -0.3601088
  C        0.6396440    -0.0155260     0.4104950
  C        1.4464200    -1.0470520    -0.3590510
  C       -0.8609500    -0.0719650     0.0469300
  H        0.7165270    -0.2335850     1.4896730
  H        1.3388480    -0.8658950    -1.4332610
  H        2.5070550    -0.9809740    -0.0983190
  H        1.0872750    -2.0528800    -0.1336960
  H        0.3068940     1.7456410    -0.1582790
units angstrom
no_reorient  #important for SAPT in psi4, default
symmetry c1  #important for SAPT in psi4, default
}

set PROPERTIES_ORIGIN ["COM"]
properties('MP2/aug-cc-pvtz', properties = ['dipole'])
--------------------------------------------------------------------------

    Molecular point group: c1
  Charge       = -1
  Multiplicity = 1
  Basis Set: AUG-CC-PVTZ
    Blend: AUG-CC-PVTZ
  Basis Set: (AUG-CC-PVTZ AUX)
    Blend: AUG-CC-PVTZ-JKFIT

    Orbital Energies [Eh]
    ---------------------

    Doubly Occupied:

       1A    -20.384041     2A    -20.315801     3A    -20.308167
       4A    -11.151499     5A    -11.118872     6A    -11.073291
       7A     -1.204421     8A     -1.164678     9A     -1.079344
      10A     -0.863592    11A     -0.702660    12A     -0.567861
      13A     -0.499693    14A     -0.477813    15A     -0.436842
      16A     -0.405144    17A     -0.399589    18A     -0.372789
      19A     -0.367651    20A     -0.349328    21A     -0.280865
      22A     -0.231357    23A     -0.215441    24A     -0.210923

  @DF-RHF Final Energy:  -341.27929456292264

   => Energetics <=

    Nuclear Repulsion Energy =            238.7059958214489654
    One-Electron Energy =                -951.6072613302355876
    Two-Electron Energy =                 371.6219709458640068
    Total Energy =                       -341.2792945629226438
  Basis Set: (AUG-CC-PVTZ AUX)
    Blend: AUG-CC-PVTZ-RI
    Molecular point group: c1

    Geometry (in Angstrom), charge = -1, multiplicity = 1:

       Center              X                  Y                   Z               Mass
    ------------   -----------------  -----------------  -----------------  -----------------
         O            1.209761002406     1.273549067083     0.140868330275    15.994914619570
         O           -1.387964297594    -1.197194932917     0.173711430275    15.994914619570
         O           -1.304037397594     0.992995667083    -0.362138469725    15.994914619570
         C            0.712836002406    -0.041921932917     0.408465330275    12.000000000000
         C            1.519612002406    -1.073447932917    -0.361080669725    12.000000000000
         C           -0.787757997594    -0.098360932917     0.044900330275    12.000000000000
         H            0.789719002406    -0.259980932917     1.487643330275     1.007825032230
         H            1.412040002406    -0.892290932917    -1.435290669725     1.007825032230
         H            2.580247002406    -1.007369932917    -0.100348669725     1.007825032230
         H            1.160467002406    -2.079275932917    -0.135725669725     1.007825032230
         H            0.380086002406     1.719245067083    -0.160308669725     1.007825032230

  Basis Set: AUG-CC-PVTZ
    Blend: AUG-CC-PVTZ
  Basis Set: (AUG-CC-PVTZ AUX)
    Blend: AUG-CC-PVTZ-JKFIT
	 Reference Energy          =    -341.2792945629226438 [Eh]
	 Singles Energy            =      -0.0000000000000000 [Eh]
	 Same-Spin Energy          =      -0.3363667561602972 [Eh]
	 Opposite-Spin Energy      =      -1.0189256748983722 [Eh]
	 Correlation Energy        =      -1.3552924310586694 [Eh]
	 Total Energy              =    -342.6345869939813156 [Eh]

	 ================> DF-SCS-MP2 Energies <==================
	-----------------------------------------------------------
	 SCS Same-Spin Scale       =       0.3333333333333333 [-]
	 SCS Opposite-Spin Scale   =       1.2000000000000000 [-]
	 SCS Same-Spin Energy      =      -0.1121222520534324 [Eh]
	 SCS Opposite-Spin Energy  =      -1.2227108098780466 [Eh]
	 SCS Correlation Energy    =      -1.3348330619314790 [Eh]
	 SCS Total Energy          =    -342.6141276248541203 [Eh]
	-----------------------------------------------------------

  Dipole Moment: [D]
     X:     3.9141      Y:    -0.4733      Z:     0.3953     Total:     3.9624

*** Psi4 exiting successfully. Buy a developer a beer!
