                               Psi4 1.3.2 release

  ==> Input File <==

--------------------------------------------------------------------------
#psi4
#
memory 32 gb

molecule  {
-1 1
  O        1.1365690     1.2999450     0.1428980
  O       -1.4330555    -1.1844216     0.1862556
  O       -1.3475977     1.0342621    -0.3564553
  C        0.6396440    -0.0155260     0.4104950
  C        1.4464200    -1.0470520    -0.3590510
  C       -0.8609500    -0.0719650     0.0469300
  H        0.7165270    -0.2335850     1.4896730
  H        1.3388480    -0.8658950    -1.4332610
  H        2.5070550    -0.9809740    -0.0983190
  H        1.0872750    -2.0528800    -0.1336960
  H        0.3068940     1.7456410    -0.1582790
units angstrom
no_reorient  #important for SAPT in psi4, default
symmetry c1  #important for SAPT in psi4, default
}

set PROPERTIES_ORIGIN ["COM"]
properties('MP2/aug-cc-pvtz', properties = ['dipole'])
--------------------------------------------------------------------------

    Molecular point group: c1
  Charge       = -1
  Multiplicity = 1
  Basis Set: AUG-CC-PVTZ
    Blend: AUG-CC-PVTZ
  Basis Set: (AUG-CC-PVTZ AUX)
    Blend: AUG-CC-PVTZ-JKFIT

    Orbital Energies [Eh]
    ---------------------

    Doubly Occupied:

       1A    -20.380423     2A    -20.318948     3A    -20.311269
       4A    -11.153163     5A    -11.115005     6A    -11.071266
       7A     -1.204123     8A     -1.162875     9A     -1.085110
      10A     -0.861053    11A     -0.700334    12A     -0.565698
      13A     -0.500660    14A     -0.477136    15A     -0.436655
      16A     -0.404301    17A     -0.399933    18A     -0.371796
      19A     -0.365715    20A     -0.349425    21A     -0.278441
      22A     -0.234955    23A     -0.215000    24A     -0.214346

  @DF-RHF Final Energy:  -341.27981575621146

   => Energetics <=

    Nuclear Repulsion Energy =            239.0835792146437200
    One-Electron Energy =                -952.3715300500134617
    Two-Electron Energy =                 372.0081350791583077
    Total Energy =                       -341.2798157562114625
  Basis Set: (AUG-CC-PVTZ AUX)
    Blend: AUG-CC-PVTZ-RI
    Molecular point group: c1

    Geometry (in Angstrom), charge = -1, multiplicity = 1:

       Center              X                  Y                   Z               Mass
    ------------   -----------------  -----------------  -----------------  -----------------
         O            1.199388206678     1.273324856945     0.138322766340    15.994914619570
         O           -1.370236293322    -1.211041743055     0.181680366340    15.994914619570
         O           -1.284778493322     1.007641956945    -0.361030533660    15.994914619570
         C            0.702463206678    -0.042146143055     0.405919766340    12.000000000000
         C            1.509239206678    -1.073672143055    -0.363626233660    12.000000000000
         C           -0.798130793322    -0.098585143055     0.042354766340    12.000000000000
         H            0.779346206678    -0.260205143055     1.485097766340     1.007825032230
         H            1.401667206678    -0.892515143055    -1.437836233660     1.007825032230
         H            2.569874206678    -1.007594143055    -0.102894233660     1.007825032230
         H            1.150094206678    -2.079500143055    -0.138271233660     1.007825032230
         H            0.369713206678     1.719020856945    -0.162854233660     1.007825032230

  Basis Set: AUG-CC-PVTZ
    Blend: AUG-CC-PVTZ
  Basis Set: (AUG-CC-PVTZ AUX)
    Blend: AUG-CC-PVTZ-JKFIT
	 Reference Energy          =    -341.2798157562114625 [Eh]
	 Singles Energy            =      -0.0000000000000000 [Eh]
	 Same-Spin Energy          =      -0.3365278778994406 [Eh]
	 Opposite-Spin Energy      =      -1.0190513093172289 [Eh]
	 Correlation Energy        =      -1.3555791872166694 [Eh]
	 Total Energy              =    -342.6353949434281390 [Eh]

	 ================> DF-SCS-MP2 Energies <==================
	-----------------------------------------------------------
	 SCS Same-Spin Scale       =       0.3333333333333333 [-]
	 SCS Opposite-Spin Scale   =       1.2000000000000000 [-]
	 SCS Same-Spin Energy      =      -0.1121759592998135 [Eh]
	 SCS Opposite-Spin Energy  =      -1.2228615711806745 [Eh]
	 SCS Correlation Energy    =      -1.3350375304804880 [Eh]
	 SCS Total Energy          =    -342.6148532866919254 [Eh]
	-----------------------------------------------------------

  Dipole Moment: [D]
     X:     3.7315      Y:    -0.4790      Z:     0.3651     Total:     3.7797

*** Psi4 exiting successfully. Buy a developer a beer!
