                               Psi4 1.3.2 release

  ==> Input File <==

--------------------------------------------------------------------------
#psi4
#
memory 32 gb

molecule  {
-1 1
  O        1.1365690     1.2999450     0.1428980
  O       -1.3853743    -1.2054121     0.2036239
  O       -1.3575130     1.0293890    -0.3577040
  C        0.6358045    -0.0940485     0.4295338
  C        1.4464200    -1.0470520    -0.3590510
  C       -0.8609500    -0.0719650     0.0469300
  H        0.7165270    -0.2335850     1.4896730
  H        1.3388480    -0.8658950    -1.4332610
  H        2.5070550    -0.9809740    -0.0983190
  H        1.0872750    -2.0528800    -0.1336960
  H        0.3068940     1.7456410    -0.1582790
units angstrom
no_reorient  #important for SAPT in psi4, default
symmetry c1  #important for SAPT in psi4, default
}

set PROPERTIES_ORIGIN ["COM"]
properties('MP2/aug-cc-pvtz', properties = ['dipole'])
--------------------------------------------------------------------------

    Molecular point group: c1
  Charge       = -1
  Multiplicity = 1
  Basis Set: AUG-CC-PVTZ
    Blend: AUG-CC-PVTZ
  Basis Set: (AUG-CC-PVTZ AUX)
    Blend: AUG-CC-PVTZ-JKFIT

    Orbital Energies [Eh]
    ---------------------

    Doubly Occupied:

       1A    -20.369615     2A    -20.322662     3A    -20.312143
       4A    -11.155712     5A    -11.113201     6A    -11.071677
       7A     -1.194278     8A     -1.143345     9A     -1.088941
      10A     -0.871992    11A     -0.701620    12A     -0.558700
      13A     -0.497841    14A     -0.474726    15A     -0.435450
      16A     -0.408479    17A     -0.401565    18A     -0.367987
      19A     -0.355106    20A     -0.344471    21A     -0.283125
      22A     -0.237992    23A     -0.217017    24A     -0.212543

  @DF-RHF Final Energy:  -341.27065648668810

   => Energetics <=

    Nuclear Repulsion Energy =            238.7893685083956541
    One-Electron Energy =                -951.8396733026803531
    Two-Electron Energy =                 371.7796483075965739
    Total Energy =                       -341.2706564866880967
  Basis Set: (AUG-CC-PVTZ AUX)
    Blend: AUG-CC-PVTZ-RI
    Molecular point group: c1

    Geometry (in Angstrom), charge = -1, multiplicity = 1:

       Center              X                  Y                   Z               Mass
    ------------   -----------------  -----------------  -----------------  -----------------
         O            1.193120355683     1.288556233526     0.132860217575    15.994914619570
         O           -1.328822944317    -1.216800866474     0.193586117575    15.994914619570
         O           -1.300961644317     1.018000233526    -0.367741782425    15.994914619570
         C            0.692355855683    -0.105437266474     0.419496017575    12.000000000000
         C            1.502971355683    -1.058440766474    -0.369088782425    12.000000000000
         C           -0.804398644317    -0.083353766474     0.036892217575    12.000000000000
         H            0.773078355683    -0.244973766474     1.479635217575     1.007825032230
         H            1.395399355683    -0.877283766474    -1.443298782425     1.007825032230
         H            2.563606355683    -0.992362766474    -0.108356782425     1.007825032230
         H            1.143826355683    -2.064268766474    -0.143733782425     1.007825032230
         H            0.363445355683     1.734252233526    -0.168316782425     1.007825032230

  Basis Set: AUG-CC-PVTZ
    Blend: AUG-CC-PVTZ
  Basis Set: (AUG-CC-PVTZ AUX)
    Blend: AUG-CC-PVTZ-JKFIT
	 Reference Energy          =    -341.2706564866880967 [Eh]
	 Singles Energy            =      -0.0000000000000000 [Eh]
	 Same-Spin Energy          =      -0.3370453971803689 [Eh]
	 Opposite-Spin Energy      =      -1.0209299919101600 [Eh]
	 Correlation Energy        =      -1.3579753890905288 [Eh]
	 Total Energy              =    -342.6286318757786375 [Eh]

	 ================> DF-SCS-MP2 Energies <==================
	-----------------------------------------------------------
	 SCS Same-Spin Scale       =       0.3333333333333333 [-]
	 SCS Opposite-Spin Scale   =       1.2000000000000000 [-]
	 SCS Same-Spin Energy      =      -0.1123484657267896 [Eh]
	 SCS Opposite-Spin Energy  =      -1.2251159902921920 [Eh]
	 SCS Correlation Energy    =      -1.3374644560189817 [Eh]
	 SCS Total Energy          =    -342.6081209427071030 [Eh]
	-----------------------------------------------------------

  Dipole Moment: [D]
     X:     3.5857      Y:    -0.7837      Z:     0.3845     Total:     3.6904

*** Psi4 exiting successfully. Buy a developer a beer!
