                               Psi4 1.3.2 release

  ==> Input File <==

--------------------------------------------------------------------------
#psi4
#
memory 32 gb

molecule  {
-1 1
  O        1.1365690     1.2999450     0.1428980
  O       -1.4424670    -1.1799650     0.1827610
  O       -1.3575130     1.0293890    -0.3577040
  C        0.6857305    -0.0292204     0.4240927
  C        1.4464200    -1.0470520    -0.3590510
  C       -0.8609500    -0.0719650     0.0469300
  H        0.7165270    -0.2335850     1.4896730
  H        1.3388480    -0.8658950    -1.4332610
  H        2.5070550    -0.9809740    -0.0983190
  H        1.0872750    -2.0528800    -0.1336960
  H        0.3248727     1.7747637    -0.1627315
units angstrom
no_reorient  #important for SAPT in psi4, default
symmetry c1  #important for SAPT in psi4, default
}

set PROPERTIES_ORIGIN ["COM"]
properties('MP2/aug-cc-pvtz', properties = ['dipole'])
--------------------------------------------------------------------------

    Molecular point group: c1
  Charge       = -1
  Multiplicity = 1
  Basis Set: AUG-CC-PVTZ
    Blend: AUG-CC-PVTZ
  Basis Set: (AUG-CC-PVTZ AUX)
    Blend: AUG-CC-PVTZ-JKFIT

    Orbital Energies [Eh]
    ---------------------

    Doubly Occupied:

       1A    -20.380585     2A    -20.316745     3A    -20.309325
       4A    -11.152668     5A    -11.114989     6A    -11.071040
       7A     -1.199989     8A     -1.161657     9A     -1.081258
      10A     -0.866971    11A     -0.694756    12A     -0.562851
      13A     -0.503114    14A     -0.477294    15A     -0.434237
      16A     -0.408686    17A     -0.401151    18A     -0.372655
      19A     -0.360544    20A     -0.349065    21A     -0.284710
      22A     -0.230875    23A     -0.212260    24A     -0.206731

  @DF-RHF Final Energy:  -341.27705848950956

   => Energetics <=

    Nuclear Repulsion Energy =            238.4103525694568759
    One-Electron Energy =                -951.0665124750318000
    Two-Electron Energy =                 371.3791014160653390
    Total Energy =                       -341.2770584895095567
  Basis Set: (AUG-CC-PVTZ AUX)
    Blend: AUG-CC-PVTZ-RI
    Molecular point group: c1

    Geometry (in Angstrom), charge = -1, multiplicity = 1:

       Center              X                  Y                   Z               Mass
    ------------   -----------------  -----------------  -----------------  -----------------
         O            1.196444873941     1.274915936926     0.137392494701    15.994914619570
         O           -1.382591126059    -1.204994063074     0.177255494701    15.994914619570
         O           -1.297637126059     1.004359936926    -0.363209505299    15.994914619570
         C            0.745606373941    -0.054249463074     0.418587194701    12.000000000000
         C            1.506295873941    -1.072081063074    -0.364556505299    12.000000000000
         C           -0.801074126059    -0.096994063074     0.041424494701    12.000000000000
         H            0.776402873941    -0.258614063074     1.484167494701     1.007825032230
         H            1.398723873941    -0.890924063074    -1.438766505299     1.007825032230
         H            2.566930873941    -1.006003063074    -0.103824505299     1.007825032230
         H            1.147150873941    -2.077909063074    -0.139201505299     1.007825032230
         H            0.384748573941     1.749734636926    -0.168237005299     1.007825032230

  Basis Set: AUG-CC-PVTZ
    Blend: AUG-CC-PVTZ
  Basis Set: (AUG-CC-PVTZ AUX)
    Blend: AUG-CC-PVTZ-JKFIT
	 Reference Energy          =    -341.2770584895095567 [Eh]
	 Singles Energy            =      -0.0000000000000000 [Eh]
	 Same-Spin Energy          =      -0.3364376111565421 [Eh]
	 Opposite-Spin Energy      =      -1.0188525238307207 [Eh]
	 Correlation Energy        =      -1.3552901349872628 [Eh]
	 Total Energy              =    -342.6323486244968421 [Eh]

	 ================> DF-SCS-MP2 Energies <==================
	-----------------------------------------------------------
	 SCS Same-Spin Scale       =       0.3333333333333333 [-]
	 SCS Opposite-Spin Scale   =       1.2000000000000000 [-]
	 SCS Same-Spin Energy      =      -0.1121458703855140 [Eh]
	 SCS Opposite-Spin Energy  =      -1.2226230285968647 [Eh]
	 SCS Correlation Energy    =      -1.3347688989823787 [Eh]
	 SCS Total Energy          =    -342.6118273884919176 [Eh]
	-----------------------------------------------------------

  Dipole Moment: [D]
     X:     3.8391      Y:    -0.4765      Z:     0.3742     Total:     3.8866

*** Psi4 exiting successfully. Buy a developer a beer!
