                               Psi4 1.3.2 release

  ==> Input File <==

--------------------------------------------------------------------------
#psi4
#
memory 32 gb

molecule  {
-1 1
  O        1.1365690     1.2999450     0.1428980
  O       -1.4424670    -1.1799650     0.1827610
  O       -1.3575130     1.0293890    -0.3577040
  C        0.6396440    -0.0155260     0.4104950
  C        1.4464200    -1.0470520    -0.3590510
  C       -0.9533511    -0.2480224     0.0685131
  H        0.7165270    -0.2335850     1.4896730
  H        1.3388480    -0.8658950    -1.4332610
  H        2.5070550    -0.9809740    -0.0983190
  H        1.0872750    -2.0528800    -0.1336960
  H        0.3068940     1.7456410    -0.1582790
units angstrom
no_reorient  #important for SAPT in psi4, default
symmetry c1  #important for SAPT in psi4, default
}

set PROPERTIES_ORIGIN ["COM"]
properties('MP2/aug-cc-pvtz', properties = ['dipole'])
--------------------------------------------------------------------------

    Molecular point group: c1
  Charge       = -1
  Multiplicity = 1
  Basis Set: AUG-CC-PVTZ
    Blend: AUG-CC-PVTZ
  Basis Set: (AUG-CC-PVTZ AUX)
    Blend: AUG-CC-PVTZ-JKFIT

    Orbital Energies [Eh]
    ---------------------

    Doubly Occupied:

       1A    -20.369591     2A    -20.356844     3A    -20.280267
       4A    -11.145386     5A    -11.103649     6A    -11.066652
       7A     -1.318078     8A     -1.169870     9A     -1.029893
      10A     -0.852716    11A     -0.678279    12A     -0.556733
      13A     -0.527241    14A     -0.479107    15A     -0.444575
      16A     -0.431739    17A     -0.403248    18A     -0.392969
      19A     -0.384098    20A     -0.363638    21A     -0.267160
      22A     -0.214921    23A     -0.204673    24A     -0.173606

  @DF-RHF Final Energy:  -341.20710667226297

   => Energetics <=

    Nuclear Repulsion Energy =            239.1853628019589166
    One-Electron Energy =                -952.3550685617435647
    Two-Electron Energy =                 371.9625990875216530
    Total Energy =                       -341.2071066722629666
  Basis Set: (AUG-CC-PVTZ AUX)
    Blend: AUG-CC-PVTZ-RI
    Molecular point group: c1

    Geometry (in Angstrom), charge = -1, multiplicity = 1:

       Center              X                  Y                   Z               Mass
    ------------   -----------------  -----------------  -----------------  -----------------
         O            1.215315886877     1.297131401249     0.136265694191    15.994914619570
         O           -1.363720113123    -1.182778598751     0.176128694191    15.994914619570
         O           -1.278766113123     1.026575401249    -0.364336305809    15.994914619570
         C            0.718390886877    -0.018339598751     0.403862694191    12.000000000000
         C            1.525166886877    -1.049865598751    -0.365683305809    12.000000000000
         C           -0.874604213123    -0.250835998751     0.061880794191    12.000000000000
         H            0.795273886877    -0.236398598751     1.483040694191     1.007825032230
         H            1.417594886877    -0.868708598751    -1.439893305809     1.007825032230
         H            2.585801886877    -0.983787598751    -0.104951305809     1.007825032230
         H            1.166021886877    -2.055693598751    -0.140328305809     1.007825032230
         H            0.385640886877     1.742827401249    -0.164911305809     1.007825032230

  Basis Set: AUG-CC-PVTZ
    Blend: AUG-CC-PVTZ
  Basis Set: (AUG-CC-PVTZ AUX)
    Blend: AUG-CC-PVTZ-JKFIT
	 Reference Energy          =    -341.2071066722629666 [Eh]
	 Singles Energy            =      -0.0000000000000000 [Eh]
	 Same-Spin Energy          =      -0.3352373983329023 [Eh]
	 Opposite-Spin Energy      =      -1.0164964586071372 [Eh]
	 Correlation Energy        =      -1.3517338569400394 [Eh]
	 Total Energy              =    -342.5588405292029961 [Eh]

	 ================> DF-SCS-MP2 Energies <==================
	-----------------------------------------------------------
	 SCS Same-Spin Scale       =       0.3333333333333333 [-]
	 SCS Opposite-Spin Scale   =       1.2000000000000000 [-]
	 SCS Same-Spin Energy      =      -0.1117457994443008 [Eh]
	 SCS Opposite-Spin Energy  =      -1.2197957503285646 [Eh]
	 SCS Correlation Energy    =      -1.3315415497728653 [Eh]
	 SCS Total Energy          =    -342.5386482220358175 [Eh]
	-----------------------------------------------------------

  Dipole Moment: [D]
     X:     3.0724      Y:    -2.4091      Z:     0.7316     Total:     3.9722

*** Psi4 exiting successfully. Buy a developer a beer!
