                               Psi4 1.3.2 release

  ==> Input File <==

--------------------------------------------------------------------------
#psi4
#
memory 32 gb

molecule  {
-1 1
  O        1.1462408     1.3052555     0.1916284
  O       -1.4424670    -1.1799650     0.1827610
  O       -1.3575130     1.0293890    -0.3577040
  C        0.6396440    -0.0155260     0.4104950
  C        1.4464200    -1.0470520    -0.3590510
  C       -0.8609500    -0.0719650     0.0469300
  H        0.7316703    -0.1985631     1.4949831
  H        1.3388480    -0.8658950    -1.4332610
  H        2.5070550    -0.9809740    -0.0983190
  H        1.0872750    -2.0528800    -0.1336960
  H        0.3068940     1.7456410    -0.1582790
units angstrom
no_reorient  #important for SAPT in psi4, default
symmetry c1  #important for SAPT in psi4, default
}

set PROPERTIES_ORIGIN ["COM"]
properties('MP2/aug-cc-pvtz', properties = ['dipole'])
--------------------------------------------------------------------------

    Molecular point group: c1
  Charge       = -1
  Multiplicity = 1
  Basis Set: AUG-CC-PVTZ
    Blend: AUG-CC-PVTZ
  Basis Set: (AUG-CC-PVTZ AUX)
    Blend: AUG-CC-PVTZ-JKFIT

    Orbital Energies [Eh]
    ---------------------

    Doubly Occupied:

       1A    -20.382129     2A    -20.319378     3A    -20.311072
       4A    -11.153677     5A    -11.115686     6A    -11.072593
       7A     -1.202151     8A     -1.162075     9A     -1.084199
      10A     -0.860887    11A     -0.700450    12A     -0.565940
      13A     -0.496548    14A     -0.476509    15A     -0.437134
      16A     -0.405162    17A     -0.401028    18A     -0.371185
      19A     -0.364859    20A     -0.350395    21A     -0.277143
      22A     -0.234744    23A     -0.216018    24A     -0.214451

  @DF-RHF Final Energy:  -341.27781962943658

   => Energetics <=

    Nuclear Repulsion Energy =            238.6040740230776009
    One-Electron Energy =                -951.4129588246755702
    Two-Electron Energy =                 371.5310651721613908
    Total Energy =                       -341.2778196294365785
  Basis Set: (AUG-CC-PVTZ AUX)
    Blend: AUG-CC-PVTZ-RI
    Molecular point group: c1

    Geometry (in Angstrom), charge = -1, multiplicity = 1:

       Center              X                  Y                   Z               Mass
    ------------   -----------------  -----------------  -----------------  -----------------
         O            1.210623285216     1.277359574833     0.179089891227    15.994914619570
         O           -1.378084514784    -1.207860925167     0.170222491227    15.994914619570
         O           -1.293130514784     1.001493074833    -0.370242508773    15.994914619570
         C            0.704026485216    -0.043421925167     0.397956491227    12.000000000000
         C            1.510802485216    -1.074947925167    -0.371589508773    12.000000000000
         C           -0.796567514784    -0.099860925167     0.034391491227    12.000000000000
         H            0.796052785216    -0.226459025167     1.482444591227     1.007825032230
         H            1.403230485216    -0.893790925167    -1.445799508773     1.007825032230
         H            2.571437485216    -1.008869925167    -0.110857508773     1.007825032230
         H            1.151657485216    -2.080775925167    -0.146234508773     1.007825032230
         H            0.371276485216     1.717745074833    -0.170817508773     1.007825032230

  Basis Set: AUG-CC-PVTZ
    Blend: AUG-CC-PVTZ
  Basis Set: (AUG-CC-PVTZ AUX)
    Blend: AUG-CC-PVTZ-JKFIT
	 Reference Energy          =    -341.2778196294365785 [Eh]
	 Singles Energy            =      -0.0000000000000000 [Eh]
	 Same-Spin Energy          =      -0.3368212986703810 [Eh]
	 Opposite-Spin Energy      =      -1.0198218474074339 [Eh]
	 Correlation Energy        =      -1.3566431460778148 [Eh]
	 Total Energy              =    -342.6344627755144074 [Eh]

	 ================> DF-SCS-MP2 Energies <==================
	-----------------------------------------------------------
	 SCS Same-Spin Scale       =       0.3333333333333333 [-]
	 SCS Opposite-Spin Scale   =       1.2000000000000000 [-]
	 SCS Same-Spin Energy      =      -0.1122737662234603 [Eh]
	 SCS Opposite-Spin Energy  =      -1.2237862168889206 [Eh]
	 SCS Correlation Energy    =      -1.3360599831123809 [Eh]
	 SCS Total Energy          =    -342.6138796125489421 [Eh]
	-----------------------------------------------------------

  Dipole Moment: [D]
     X:     3.7570      Y:    -0.5085      Z:     0.3095     Total:     3.8038

*** Psi4 exiting successfully. Buy a developer a beer!
