                               Psi4 1.3.2 release

  ==> Input File <==

--------------------------------------------------------------------------
#psi4
#
memory 32 gb

molecule  {
-1 1
  O        1.1365690     1.2999450     0.1428980
  O       -1.4045727    -1.1972716     0.1967145
  O       -1.3575130     1.0293890    -0.3577040
  C        0.6375409    -0.0678705     0.4233015
  C        1.4464200    -1.0470520    -0.3590510
  C       -0.8609500    -0.0719650     0.0469300
  H        0.7165270    -0.2335850     1.4896730
  H        1.3388480    -0.8658950    -1.4332610
  H        2.5070550    -0.9809740    -0.0983190
  H        1.0872750    -2.0528800    -0.1336960
  H        0.3068940     1.7456410    -0.1582790
units angstrom
no_reorient  #important for SAPT in psi4, default
symmetry c1  #important for SAPT in psi4, default
}

set PROPERTIES_ORIGIN ["COM"]
properties('MP2/aug-cc-pvtz', properties = ['dipole'])
--------------------------------------------------------------------------

    Molecular point group: c1
  Charge       = -1
  Multiplicity = 1
  Basis Set: AUG-CC-PVTZ
    Blend: AUG-CC-PVTZ
  Basis Set: (AUG-CC-PVTZ AUX)
    Blend: AUG-CC-PVTZ-JKFIT

    Orbital Energies [Eh]
    ---------------------

    Doubly Occupied:

       1A    -20.373779     2A    -20.321037     3A    -20.311417
       4A    -11.154558     5A    -11.113909     6A    -11.071750
       7A     -1.196165     8A     -1.150771     9A     -1.087002
      10A     -0.868653    11A     -0.701410    12A     -0.560457
      13A     -0.498934    14A     -0.475330    15A     -0.435425
      16A     -0.405948    17A     -0.401849    18A     -0.367977
      19A     -0.359230    20A     -0.347396    21A     -0.282847
      22A     -0.236528    23A     -0.215799    24A     -0.213634

  @DF-RHF Final Energy:  -341.27527713461092

   => Energetics <=

    Nuclear Repulsion Energy =            238.8283244612149758
    One-Electron Energy =                -951.9035958093572845
    Two-Electron Energy =                 371.7999942135314200
    Total Energy =                       -341.2752771346109171
  Basis Set: (AUG-CC-PVTZ AUX)
    Blend: AUG-CC-PVTZ-RI
    Molecular point group: c1

    Geometry (in Angstrom), charge = -1, multiplicity = 1:

       Center              X                  Y                   Z               Mass
    ------------   -----------------  -----------------  -----------------  -----------------
         O            1.196335672788     1.283564958631     0.134941713978    15.994914619570
         O           -1.344806027212    -1.213651641369     0.188758213978    15.994914619570
         O           -1.297746327212     1.013008958631    -0.365660286022    15.994914619570
         C            0.697307572788    -0.084250541369     0.415345213978    12.000000000000
         C            1.506186672788    -1.063432041369    -0.367007286022    12.000000000000
         C           -0.801183327212    -0.088345041369     0.038973713978    12.000000000000
         H            0.776293672788    -0.249965041369     1.481716713978     1.007825032230
         H            1.398614672788    -0.882275041369    -1.441217286022     1.007825032230
         H            2.566821672788    -0.997354041369    -0.106275286022     1.007825032230
         H            1.147041672788    -2.069260041369    -0.141652286022     1.007825032230
         H            0.366660672788     1.729260958631    -0.166235286022     1.007825032230

  Basis Set: AUG-CC-PVTZ
    Blend: AUG-CC-PVTZ
  Basis Set: (AUG-CC-PVTZ AUX)
    Blend: AUG-CC-PVTZ-JKFIT
	 Reference Energy          =    -341.2752771346109171 [Eh]
	 Singles Energy            =      -0.0000000000000000 [Eh]
	 Same-Spin Energy          =      -0.3367808498709106 [Eh]
	 Opposite-Spin Energy      =      -1.0201670418767232 [Eh]
	 Correlation Energy        =      -1.3569478917476339 [Eh]
	 Total Energy              =    -342.6322250263585261 [Eh]

	 ================> DF-SCS-MP2 Energies <==================
	-----------------------------------------------------------
	 SCS Same-Spin Scale       =       0.3333333333333333 [-]
	 SCS Opposite-Spin Scale   =       1.2000000000000000 [-]
	 SCS Same-Spin Energy      =      -0.1122602832903035 [Eh]
	 SCS Opposite-Spin Energy  =      -1.2242004502520678 [Eh]
	 SCS Correlation Energy    =      -1.3364607335423713 [Eh]
	 SCS Total Energy          =    -342.6117378681532841 [Eh]
	-----------------------------------------------------------

  Dipole Moment: [D]
     X:     3.6588      Y:    -0.6811      Z:     0.3832     Total:     3.7413

*** Psi4 exiting successfully. Buy a developer a beer!
