                               Psi4 1.3.2 release

  ==> Input File <==

--------------------------------------------------------------------------
#psi4
#
memory 32 gb

molecule  {
-1 1
  O        1.1365690     1.2999450     0.1428980
  O       -1.4424670    -1.1799650     0.1827610
  O       -1.3575130     1.0293890    -0.3577040
  C        0.6320391    -0.0046826     0.3875307
  C        1.4464200    -1.0470520    -0.3590510
  C       -0.8609500    -0.0719650     0.0469300
  H        0.7165270    -0.2335850     1.4896730
  H        1.3274423    -0.8510501    -1.4294455
  H        2.5070550    -0.9809740    -0.0983190
  H        1.0872750    -2.0528800    -0.1336960
  H        0.3068940     1.7456410    -0.1582790
units angstrom
no_reorient  #important for SAPT in psi4, default
symmetry c1  #important for SAPT in psi4, default
}

set PROPERTIES_ORIGIN ["COM"]
properties('MP2/aug-cc-pvtz', properties = ['dipole'])
--------------------------------------------------------------------------

    Molecular point group: c1
  Charge       = -1
  Multiplicity = 1
  Basis Set: AUG-CC-PVTZ
    Blend: AUG-CC-PVTZ
  Basis Set: (AUG-CC-PVTZ AUX)
    Blend: AUG-CC-PVTZ-JKFIT

    Orbital Energies [Eh]
    ---------------------

    Doubly Occupied:

       1A    -20.383647     2A    -20.317832     3A    -20.310361
       4A    -11.152246     5A    -11.117306     6A    -11.071869
       7A     -1.207896     8A     -1.166048     9A     -1.083509
      10A     -0.861910    11A     -0.701222    12A     -0.568370
      13A     -0.499213    14A     -0.478739    15A     -0.438905
      16A     -0.404646    17A     -0.398523    18A     -0.374873
      19A     -0.367207    20A     -0.349568    21A     -0.275380
      22A     -0.233962    23A     -0.216604    24A     -0.213578

  @DF-RHF Final Energy:  -341.27897626357588

   => Energetics <=

    Nuclear Repulsion Energy =            239.2806641968595613
    One-Electron Energy =                -952.7324506503495058
    Two-Electron Energy =                 372.1728101899140597
    Total Energy =                       -341.2789762635758848
  Basis Set: (AUG-CC-PVTZ AUX)
    Blend: AUG-CC-PVTZ-RI
    Molecular point group: c1

    Geometry (in Angstrom), charge = -1, multiplicity = 1:

       Center              X                  Y                   Z               Mass
    ------------   -----------------  -----------------  -----------------  -----------------
         O            1.204014878944     1.271769993273     0.142227280106    15.994914619570
         O           -1.375021121056    -1.208140006727     0.182090280106    15.994914619570
         O           -1.290067121056     1.001213993273    -0.358374719894    15.994914619570
         C            0.699484978944    -0.032857606727     0.386859980106    12.000000000000
         C            1.513865878944    -1.075227006727    -0.359721719894    12.000000000000
         C           -0.793504121056    -0.100140006727     0.046259280106    12.000000000000
         H            0.783972878944    -0.261760006727     1.489002280106     1.007825032230
         H            1.394888178944    -0.879225106727    -1.430116219894     1.007825032230
         H            2.574500878944    -1.009149006727    -0.098989719894     1.007825032230
         H            1.154720878944    -2.081055006727    -0.134366719894     1.007825032230
         H            0.374339878944     1.717465993273    -0.158949719894     1.007825032230

  Basis Set: AUG-CC-PVTZ
    Blend: AUG-CC-PVTZ
  Basis Set: (AUG-CC-PVTZ AUX)
    Blend: AUG-CC-PVTZ-JKFIT
	 Reference Energy          =    -341.2789762635758848 [Eh]
	 Singles Energy            =      -0.0000000000000000 [Eh]
	 Same-Spin Energy          =      -0.3365738381638643 [Eh]
	 Opposite-Spin Energy      =      -1.0190220187718604 [Eh]
	 Correlation Energy        =      -1.3555958569357247 [Eh]
	 Total Energy              =    -342.6345721205116206 [Eh]

	 ================> DF-SCS-MP2 Energies <==================
	-----------------------------------------------------------
	 SCS Same-Spin Scale       =       0.3333333333333333 [-]
	 SCS Opposite-Spin Scale   =       1.2000000000000000 [-]
	 SCS Same-Spin Energy      =      -0.1121912793879548 [Eh]
	 SCS Opposite-Spin Energy  =      -1.2228264225262324 [Eh]
	 SCS Correlation Energy    =      -1.3350177019141871 [Eh]
	 SCS Total Energy          =    -342.6139939654900672 [Eh]
	-----------------------------------------------------------

  Dipole Moment: [D]
     X:     3.8070      Y:    -0.4245      Z:     0.3246     Total:     3.8443

*** Psi4 exiting successfully. Buy a developer a beer!
