                               Psi4 1.3.2 release

  ==> Input File <==

--------------------------------------------------------------------------
#psi4
#
memory 32 gb

molecule  {
-1 1
  O        1.1365690     1.2999450     0.1428980
  O       -1.4424670    -1.1799650     0.1827610
  O       -1.3575130     1.0293890    -0.3577040
  C        0.6396440    -0.0155260     0.4104950
  C        1.4464200    -1.0470520    -0.3590510
  C       -0.8609500    -0.0719650     0.0469300
  H        0.7234931    -0.2533426     1.5874539
  H        1.3388480    -0.8658950    -1.4332610
  H        2.5070550    -0.9809740    -0.0983190
  H        1.0872750    -2.0528800    -0.1336960
  H        0.3068940     1.7456410    -0.1582790
units angstrom
no_reorient  #important for SAPT in psi4, default
symmetry c1  #important for SAPT in psi4, default
}

set PROPERTIES_ORIGIN ["COM"]
properties('MP2/aug-cc-pvtz', properties = ['dipole'])
--------------------------------------------------------------------------

    Molecular point group: c1
  Charge       = -1
  Multiplicity = 1
  Basis Set: AUG-CC-PVTZ
    Blend: AUG-CC-PVTZ
  Basis Set: (AUG-CC-PVTZ AUX)
    Blend: AUG-CC-PVTZ-JKFIT

    Orbital Energies [Eh]
    ---------------------

    Doubly Occupied:

       1A    -20.384359     2A    -20.318948     3A    -20.310629
       4A    -11.154092     5A    -11.129307     6A    -11.073520
       7A     -1.205534     8A     -1.164835     9A     -1.083932
      10A     -0.860401    11A     -0.696147    12A     -0.564161
      13A     -0.496699    14A     -0.473782    15A     -0.438069
      16A     -0.405438    17A     -0.400905    18A     -0.372569
      19A     -0.364466    20A     -0.348931    21A     -0.275119
      22A     -0.234380    23A     -0.216027    24A     -0.213798

  @DF-RHF Final Energy:  -341.27310925736754

   => Energetics <=

    Nuclear Repulsion Energy =            238.4639322407938948
    One-Electron Energy =                -951.1019863201823910
    Two-Electron Energy =                 371.3649448220209024
    Total Energy =                       -341.2731092573675369
  Basis Set: (AUG-CC-PVTZ AUX)
    Blend: AUG-CC-PVTZ-RI
    Molecular point group: c1

    Geometry (in Angstrom), charge = -1, multiplicity = 1:

       Center              X                  Y                   Z               Mass
    ------------   -----------------  -----------------  -----------------  -----------------
         O            1.202781789874     1.273623362122     0.138068032857    15.994914619570
         O           -1.376254210126    -1.206286637878     0.177931032857    15.994914619570
         O           -1.291300210126     1.003067362122    -0.362533967143    15.994914619570
         C            0.705856789874    -0.041847637878     0.405665032857    12.000000000000
         C            1.512632789874    -1.073373637878    -0.363880967143    12.000000000000
         C           -0.794737210126    -0.098286637878     0.042100032857    12.000000000000
         H            0.789705889874    -0.279664237878     1.582623932857     1.007825032230
         H            1.405060789874    -0.892216637878    -1.438090967143     1.007825032230
         H            2.573267789874    -1.007295637878    -0.103148967143     1.007825032230
         H            1.153487789874    -2.079201637878    -0.138525967143     1.007825032230
         H            0.373106789874     1.719319362122    -0.163108967143     1.007825032230

  Basis Set: AUG-CC-PVTZ
    Blend: AUG-CC-PVTZ
  Basis Set: (AUG-CC-PVTZ AUX)
    Blend: AUG-CC-PVTZ-JKFIT
	 Reference Energy          =    -341.2731092573675369 [Eh]
	 Singles Energy            =      -0.0000000000000000 [Eh]
	 Same-Spin Energy          =      -0.3365832554717618 [Eh]
	 Opposite-Spin Energy      =      -1.0198240198593229 [Eh]
	 Correlation Energy        =      -1.3564072753310847 [Eh]
	 Total Energy              =    -342.6295165326986307 [Eh]

	 ================> DF-SCS-MP2 Energies <==================
	-----------------------------------------------------------
	 SCS Same-Spin Scale       =       0.3333333333333333 [-]
	 SCS Opposite-Spin Scale   =       1.2000000000000000 [-]
	 SCS Same-Spin Energy      =      -0.1121944184905873 [Eh]
	 SCS Opposite-Spin Energy  =      -1.2237888238311874 [Eh]
	 SCS Correlation Energy    =      -1.3359832423217746 [Eh]
	 SCS Total Energy          =    -342.6090924996893250 [Eh]
	-----------------------------------------------------------

  Dipole Moment: [D]
     X:     3.7829      Y:    -0.4371      Z:     0.2554     Total:     3.8166

*** Psi4 exiting successfully. Buy a developer a beer!
