                               Psi4 1.3.2 release

  ==> Input File <==

--------------------------------------------------------------------------
#psi4
#
memory 32 gb

molecule  {
-1 1
  O        1.1365690     1.2999450     0.1428980
  O       -1.4424670    -1.1799650     0.1827610
  O       -1.3575130     1.0293890    -0.3577040
  C        0.6474946    -0.0266837     0.4332249
  C        1.4464200    -1.0470520    -0.3590510
  C       -0.8609500    -0.0719650     0.0469300
  H        0.7165270    -0.2335850     1.4896730
  H        1.3502865    -0.8807951    -1.4367493
  H        2.5070550    -0.9809740    -0.0983190
  H        1.0872750    -2.0528800    -0.1336960
  H        0.3068940     1.7456410    -0.1582790
units angstrom
no_reorient  #important for SAPT in psi4, default
symmetry c1  #important for SAPT in psi4, default
}

set PROPERTIES_ORIGIN ["COM"]
properties('MP2/aug-cc-pvtz', properties = ['dipole'])
--------------------------------------------------------------------------

    Molecular point group: c1
  Charge       = -1
  Multiplicity = 1
  Basis Set: AUG-CC-PVTZ
    Blend: AUG-CC-PVTZ
  Basis Set: (AUG-CC-PVTZ AUX)
    Blend: AUG-CC-PVTZ-JKFIT

    Orbital Energies [Eh]
    ---------------------

    Doubly Occupied:

       1A    -20.379703     2A    -20.318048     3A    -20.310160
       4A    -11.153082     5A    -11.115523     6A    -11.072155
       7A     -1.200855     8A     -1.160645     9A     -1.082983
      10A     -0.862087    11A     -0.701414    12A     -0.564619
      13A     -0.501277    14A     -0.476268    15A     -0.434729
      16A     -0.404364    17A     -0.401429    18A     -0.369855
      19A     -0.365232    20A     -0.349276    21A     -0.282315
      22A     -0.233382    23A     -0.213597    24A     -0.213174

  @DF-RHF Final Energy:  -341.27887603969759

   => Energetics <=

    Nuclear Repulsion Energy =            238.6216511376170502
    One-Electron Energy =                -951.4687126047321044
    Two-Electron Energy =                 371.5681854274174611
    Total Energy =                       -341.2788760396975931
  Basis Set: (AUG-CC-PVTZ AUX)
    Blend: AUG-CC-PVTZ-RI
    Molecular point group: c1

    Geometry (in Angstrom), charge = -1, multiplicity = 1:

       Center              X                  Y                   Z               Mass
    ------------   -----------------  -----------------  -----------------  -----------------
         O            1.201672934487     1.275072376766     0.136150601418    15.994914619570
         O           -1.377363065513    -1.204837623234     0.176013601418    15.994914619570
         O           -1.292409065513     1.004516376766    -0.364451398582    15.994914619570
         C            0.712598534487    -0.051556323234     0.426477501418    12.000000000000
         C            1.511523934487    -1.071924623234    -0.365798398582    12.000000000000
         C           -0.795846065513    -0.096837623234     0.040182601418    12.000000000000
         H            0.781630934487    -0.258457623234     1.482925601418     1.007825032230
         H            1.415390434487    -0.905667723234    -1.443496698582     1.007825032230
         H            2.572158934487    -1.005846623234    -0.105066398582     1.007825032230
         H            1.152378934487    -2.077752623234    -0.140443398582     1.007825032230
         H            0.371997934487     1.720768376766    -0.165026398582     1.007825032230

  Basis Set: AUG-CC-PVTZ
    Blend: AUG-CC-PVTZ
  Basis Set: (AUG-CC-PVTZ AUX)
    Blend: AUG-CC-PVTZ-JKFIT
	 Reference Energy          =    -341.2788760396975931 [Eh]
	 Singles Energy            =      -0.0000000000000000 [Eh]
	 Same-Spin Energy          =      -0.3364096056683158 [Eh]
	 Opposite-Spin Energy      =      -1.0190891068209209 [Eh]
	 Correlation Energy        =      -1.3554987124892368 [Eh]
	 Total Energy              =    -342.6343747521868295 [Eh]

	 ================> DF-SCS-MP2 Energies <==================
	-----------------------------------------------------------
	 SCS Same-Spin Scale       =       0.3333333333333333 [-]
	 SCS Opposite-Spin Scale   =       1.2000000000000000 [-]
	 SCS Same-Spin Energy      =      -0.1121365352227719 [Eh]
	 SCS Opposite-Spin Energy  =      -1.2229069281851050 [Eh]
	 SCS Correlation Energy    =      -1.3350434634078769 [Eh]
	 SCS Total Energy          =    -342.6139195031054783 [Eh]
	-----------------------------------------------------------

  Dipole Moment: [D]
     X:     3.7773      Y:    -0.5293      Z:     0.4217     Total:     3.8375

*** Psi4 exiting successfully. Buy a developer a beer!
