                               Psi4 1.4a3.dev225

  ==> Input File <==

--------------------------------------------------------------------------
#psi4
#
memory 32 gb

molecule  {
-1 1
  O       -1.1681810     1.2683390    -0.1935740
  O        1.4902400    -1.1295240    -0.2243730
  O        1.3027740     1.0522020     0.4123420
  C       -0.6404390    -0.0405420    -0.4184120
  C       -1.3840170    -1.0373182     0.3684648
  C        0.8630350    -0.0522610    -0.0492080
  H       -0.7260590    -0.2876370    -1.4879020
  H       -1.3060210    -0.8470660     1.4617500
  H       -2.4733650    -1.0522610     0.1409170
  H       -1.0158520    -2.0724200     0.2054930
  H       -0.3572580     1.7151740     0.1591030
units angstrom
no_reorient  #important for SAPT in psi4, default
symmetry c1  #important for SAPT in psi4, default
}

set PROPERTIES_ORIGIN ["COM"]
properties('MP2/aug-cc-pvtz', properties = ['dipole'])
--------------------------------------------------------------------------

    Molecular point group: c1
  Charge       = -1
  Multiplicity = 1
  Basis Set: AUG-CC-PVTZ
    Blend: AUG-CC-PVTZ
  Basis Set: (AUG-CC-PVTZ AUX)
    Blend: AUG-CC-PVTZ-JKFIT

    Orbital Energies [Eh]
    ---------------------

    Doubly Occupied:

       1A    -20.380609     2A    -20.319316     3A    -20.311748
       4A    -11.154038     5A    -11.113080     6A    -11.074966
       7A     -1.205419     8A     -1.163985     9A     -1.084579
      10A     -0.869219    11A     -0.696816    12A     -0.569455
      13A     -0.499752    14A     -0.479981    15A     -0.440778
      16A     -0.404136    17A     -0.400064    18A     -0.367624
      19A     -0.361981    20A     -0.348113    21A     -0.282793
      22A     -0.234816    23A     -0.215437    24A     -0.214641

  @DF-RHF Final Energy:  -341.27665463754090

   => Energetics <=

    Nuclear Repulsion Energy =            239.7812568176013599
    One-Electron Energy =                -953.7291325839547653
    Two-Electron Energy =                 372.6712211288124763
    Total Energy =                       -341.2766546375409007
  Basis Set: (AUG-CC-PVTZ AUX)
    Blend: AUG-CC-PVTZ-RI
    Molecular point group: c1

    Geometry (in Angstrom), charge = -1, multiplicity = 1:

       Center              X                  Y                   Z               Mass
    ------------   -----------------  -----------------  -----------------  -----------------
         O           -1.237010385772     1.235486661269    -0.184628063478    15.994914619570
         O            1.421410614228    -1.162376338731    -0.215427063478    15.994914619570
         O            1.233944614228     1.019349661269     0.421287936522    15.994914619570
         C           -0.709268385772    -0.073394338731    -0.409466063478    12.000000000000
         C           -1.452846385772    -1.070170538731     0.377410736522    12.000000000000
         C            0.794205614228    -0.085113338731    -0.040262063478    12.000000000000
         H           -0.794888385772    -0.320489338731    -1.478956063478     1.007825032230
         H           -1.374850385772    -0.879918338731     1.470695936522     1.007825032230
         H           -2.542194385772    -1.085113338731     0.149862936522     1.007825032230
         H           -1.084681385772    -2.105272338731     0.214438936522     1.007825032230
         H           -0.426087385772     1.682321661269     0.168048936522     1.007825032230

  Basis Set: AUG-CC-PVTZ
    Blend: AUG-CC-PVTZ
  Basis Set: (AUG-CC-PVTZ AUX)
    Blend: AUG-CC-PVTZ-JKFIT
	 Reference Energy          =    -341.2766546375409007 [Eh]
	 Singles Energy            =      -0.0000000000000000 [Eh]
	 Same-Spin Energy          =      -0.3370028272585104 [Eh]
	 Opposite-Spin Energy      =      -1.0196750148474993 [Eh]
	 Correlation Energy        =      -1.3566778421060097 [Eh]
	 Total Energy              =    -342.6333324796469242 [Eh]

	 ================> DF-SCS-MP2 Energies <==================
	-----------------------------------------------------------
	 SCS Same-Spin Scale       =       0.3333333333333333 [-]
	 SCS Opposite-Spin Scale   =       1.2000000000000000 [-]
	 SCS Same-Spin Energy      =      -0.1123342757528368 [Eh]
	 SCS Opposite-Spin Energy  =      -1.2236100178169991 [Eh]
	 SCS Correlation Energy    =      -1.3359442935698358 [Eh]
	 SCS Total Energy          =    -342.6125989311107105 [Eh]
	-----------------------------------------------------------

  Dipole Moment: [D]
     X:    -3.7154      Y:    -0.6190      Z:    -0.3056     Total:     3.7790

*** Psi4 exiting successfully. Buy a developer a beer!
