                               Psi4 1.3.2 release

  ==> Input File <==

--------------------------------------------------------------------------
#psi4
#
memory 32 gb

molecule  {
-1 1
  O        1.1414813     1.3028010     0.1672262
  O       -1.4424670    -1.1799650     0.1827610
  O       -1.3575130     1.0293890    -0.3577040
  C        0.6396440    -0.0155260     0.4104950
  C        1.4464200    -1.0470520    -0.3590510
  C       -0.8609500    -0.0719650     0.0469300
  H        0.7241115    -0.2161046     1.4924928
  H        1.3388480    -0.8658950    -1.4332610
  H        2.5070550    -0.9809740    -0.0983190
  H        1.0872750    -2.0528800    -0.1336960
  H        0.3068940     1.7456410    -0.1582790
units angstrom
no_reorient  #important for SAPT in psi4, default
symmetry c1  #important for SAPT in psi4, default
}

set PROPERTIES_ORIGIN ["COM"]
properties('MP2/aug-cc-pvtz', properties = ['dipole'])
--------------------------------------------------------------------------

    Molecular point group: c1
  Charge       = -1
  Multiplicity = 1
  Basis Set: AUG-CC-PVTZ
    Blend: AUG-CC-PVTZ
  Basis Set: (AUG-CC-PVTZ AUX)
    Blend: AUG-CC-PVTZ-JKFIT

    Orbital Energies [Eh]
    ---------------------

    Doubly Occupied:

       1A    -20.381866     2A    -20.318639     3A    -20.310661
       4A    -11.153145     5A    -11.115999     6A    -11.072274
       7A     -1.203120     8A     -1.162823     9A     -1.083711
      10A     -0.861396    11A     -0.700791    12A     -0.566170
      13A     -0.498300    14A     -0.477053    15A     -0.436904
      16A     -0.404816    17A     -0.400514    18A     -0.371621
      19A     -0.365733    20A     -0.349942    21A     -0.278232
      22A     -0.234211    23A     -0.215539    24A     -0.213980

  @DF-RHF Final Energy:  -341.27909857529392

   => Energetics <=

    Nuclear Repulsion Energy =            238.7775932129873979
    One-Electron Energy =                -951.7585094825482201
    Two-Electron Energy =                 371.7018176942668788
    Total Energy =                       -341.2790985752939150
  Basis Set: (AUG-CC-PVTZ AUX)
    Blend: AUG-CC-PVTZ-RI
    Molecular point group: c1

    Geometry (in Angstrom), charge = -1, multiplicity = 1:

       Center              X                  Y                   Z               Mass
    ------------   -----------------  -----------------  -----------------  -----------------
         O            1.206804496341     1.275544659265     0.159100225714    15.994914619570
         O           -1.377143803659    -1.207221340735     0.174635025714    15.994914619570
         O           -1.292189803659     1.002132659265    -0.365829974286    15.994914619570
         C            0.704967196341    -0.042782340735     0.402369025714    12.000000000000
         C            1.511743196341    -1.074308340735    -0.367176974286    12.000000000000
         C           -0.795626803659    -0.099221340735     0.038804025714    12.000000000000
         H            0.789434696341    -0.243360940735     1.484366825714     1.007825032230
         H            1.404171196341    -0.893151340735    -1.441386974286     1.007825032230
         H            2.572378196341    -1.008230340735    -0.106444974286     1.007825032230
         H            1.152598196341    -2.080136340735    -0.141821974286     1.007825032230
         H            0.372217196341     1.718384659265    -0.166404974286     1.007825032230

  Basis Set: AUG-CC-PVTZ
    Blend: AUG-CC-PVTZ
  Basis Set: (AUG-CC-PVTZ AUX)
    Blend: AUG-CC-PVTZ-JKFIT
	 Reference Energy          =    -341.2790985752939150 [Eh]
	 Singles Energy            =      -0.0000000000000000 [Eh]
	 Same-Spin Energy          =      -0.3366301381584452 [Eh]
	 Opposite-Spin Energy      =      -1.0193837283916214 [Eh]
	 Correlation Energy        =      -1.3560138665500667 [Eh]
	 Total Energy              =    -342.6351124418440008 [Eh]

	 ================> DF-SCS-MP2 Energies <==================
	-----------------------------------------------------------
	 SCS Same-Spin Scale       =       0.3333333333333333 [-]
	 SCS Opposite-Spin Scale   =       1.2000000000000000 [-]
	 SCS Same-Spin Energy      =      -0.1122100460528151 [Eh]
	 SCS Opposite-Spin Energy  =      -1.2232604740699455 [Eh]
	 SCS Correlation Energy    =      -1.3354705201227606 [Eh]
	 SCS Total Energy          =    -342.6145690954166980 [Eh]
	-----------------------------------------------------------

  Dipole Moment: [D]
     X:     3.7749      Y:    -0.4933      Z:     0.3425     Total:     3.8224

*** Psi4 exiting successfully. Buy a developer a beer!
