                               Psi4 1.3.2 release

  ==> Input File <==

--------------------------------------------------------------------------
#psi4
#
memory 32 gb

molecule  {
-1 1
  O        1.1365690     1.2999450     0.1428980
  O       -1.4424670    -1.1799650     0.1827610
  O       -1.3575130     1.0293890    -0.3577040
  C        0.7089832    -0.0354613     0.4307642
  C        1.4464200    -1.0470520    -0.3590510
  C       -0.8609500    -0.0719650     0.0469300
  H        0.7165270    -0.2335850     1.4896730
  H        1.3388480    -0.8658950    -1.4332610
  H        2.5070550    -0.9809740    -0.0983190
  H        1.0872750    -2.0528800    -0.1336960
  H        0.3342343     1.7891104    -0.1648184
units angstrom
no_reorient  #important for SAPT in psi4, default
symmetry c1  #important for SAPT in psi4, default
}

set PROPERTIES_ORIGIN ["COM"]
properties('MP2/aug-cc-pvtz', properties = ['dipole'])
--------------------------------------------------------------------------

    Molecular point group: c1
  Charge       = -1
  Multiplicity = 1
  Basis Set: AUG-CC-PVTZ
    Blend: AUG-CC-PVTZ
  Basis Set: (AUG-CC-PVTZ AUX)
    Blend: AUG-CC-PVTZ-JKFIT

    Orbital Energies [Eh]
    ---------------------

    Doubly Occupied:

       1A    -20.380077     2A    -20.316225     3A    -20.308907
       4A    -11.152615     5A    -11.114573     6A    -11.070689
       7A     -1.198047     8A     -1.160814     9A     -1.080329
      10A     -0.869625    11A     -0.692223    12A     -0.560795
      13A     -0.504815    14A     -0.477027    15A     -0.433504
      16A     -0.411406    17A     -0.400991    18A     -0.373048
      19A     -0.357669    20A     -0.348575    21A     -0.287047
      22A     -0.229637    23A     -0.211664    24A     -0.202019

  @DF-RHF Final Energy:  -341.27363049168389

   => Energetics <=

    Nuclear Repulsion Energy =            238.1438152165728752
    One-Electron Energy =                -950.5502425929851142
    Two-Electron Energy =                 371.1327968847283501
    Total Energy =                       -341.2736304916838890
  Basis Set: (AUG-CC-PVTZ AUX)
    Blend: AUG-CC-PVTZ-RI
    Molecular point group: c1

    Geometry (in Angstrom), charge = -1, multiplicity = 1:

       Center              X                  Y                   Z               Mass
    ------------   -----------------  -----------------  -----------------  -----------------
         O            1.193204537861     1.275594764271     0.136516833254    15.994914619570
         O           -1.385831462139    -1.204315235729     0.176379833254    15.994914619570
         O           -1.300877462139     1.005038764271    -0.364085166746    15.994914619570
         C            0.765618737861    -0.059811535729     0.424383033254    12.000000000000
         C            1.503055537861    -1.071402235729    -0.365432166746    12.000000000000
         C           -0.804314462139    -0.096315235729     0.040548833254    12.000000000000
         H            0.773162537861    -0.257935235729     1.483291833254     1.007825032230
         H            1.395483537861    -0.890245235729    -1.439642166746     1.007825032230
         H            2.563690537861    -1.005324235729    -0.104700166746     1.007825032230
         H            1.143910537861    -2.077230235729    -0.140077166746     1.007825032230
         H            0.390869837861     1.764760164271    -0.171199566746     1.007825032230

  Basis Set: AUG-CC-PVTZ
    Blend: AUG-CC-PVTZ
  Basis Set: (AUG-CC-PVTZ AUX)
    Blend: AUG-CC-PVTZ-JKFIT
	 Reference Energy          =    -341.2736304916838890 [Eh]
	 Singles Energy            =      -0.0000000000000000 [Eh]
	 Same-Spin Energy          =      -0.3365385593878544 [Eh]
	 Opposite-Spin Energy      =      -1.0189802041184199 [Eh]
	 Correlation Energy        =      -1.3555187635062742 [Eh]
	 Total Energy              =    -342.6291492551901570 [Eh]

	 ================> DF-SCS-MP2 Energies <==================
	-----------------------------------------------------------
	 SCS Same-Spin Scale       =       0.3333333333333333 [-]
	 SCS Opposite-Spin Scale   =       1.2000000000000000 [-]
	 SCS Same-Spin Energy      =      -0.1121795197959514 [Eh]
	 SCS Opposite-Spin Energy  =      -1.2227762449421038 [Eh]
	 SCS Correlation Energy    =      -1.3349557647380552 [Eh]
	 SCS Total Energy          =    -342.6085862564219724 [Eh]
	-----------------------------------------------------------

  Dipole Moment: [D]
     X:     3.8576      Y:    -0.4734      Z:     0.3722     Total:     3.9044

*** Psi4 exiting successfully. Buy a developer a beer!
