                               Psi4 1.3.2 release

  ==> Input File <==

--------------------------------------------------------------------------
#psi4
#
memory 32 gb

molecule  {
-1 1
  O        1.1365690     1.2999450     0.1428980
  O       -1.4424670    -1.1799650     0.1827610
  O       -1.3575130     1.0293890    -0.3577040
  C        0.6282148    -0.0118513     0.4070440
  C        1.4464200    -1.0470520    -0.3590510
  C       -0.8609500    -0.0719650     0.0469300
  H        0.7165270    -0.2335850     1.4896730
  H        1.3388480    -0.8658950    -1.4332610
  H        2.5070550    -0.9809740    -0.0983190
  H        1.0872750    -2.0528800    -0.1336960
  H        0.3025564     1.7382741    -0.1571083
units angstrom
no_reorient  #important for SAPT in psi4, default
symmetry c1  #important for SAPT in psi4, default
}

set PROPERTIES_ORIGIN ["COM"]
properties('MP2/aug-cc-pvtz', properties = ['dipole'])
--------------------------------------------------------------------------

    Molecular point group: c1
  Charge       = -1
  Multiplicity = 1
  Basis Set: AUG-CC-PVTZ
    Blend: AUG-CC-PVTZ
  Basis Set: (AUG-CC-PVTZ AUX)
    Blend: AUG-CC-PVTZ-JKFIT

    Orbital Energies [Eh]
    ---------------------

    Doubly Occupied:

       1A    -20.381917     2A    -20.318227     3A    -20.310489
       4A    -11.152547     5A    -11.116729     6A    -11.072215
       7A     -1.205305     8A     -1.163975     9A     -1.083735
      10A     -0.860707    11A     -0.702979    12A     -0.567157
      13A     -0.499734    14A     -0.477337    15A     -0.437426
      16A     -0.404055    17A     -0.399072    18A     -0.372553
      19A     -0.367244    20A     -0.349424    21A     -0.277722
      22A     -0.234456    23A     -0.216848    24A     -0.213827

  @DF-RHF Final Energy:  -341.27957579163893

   => Energetics <=

    Nuclear Repulsion Energy =            239.0921112030386553
    One-Electron Energy =                -952.3720160910135064
    Two-Electron Energy =                 372.0003290963359746
    Total Energy =                       -341.2795757916389334
  Basis Set: (AUG-CC-PVTZ AUX)
    Blend: AUG-CC-PVTZ-RI
    Molecular point group: c1

    Geometry (in Angstrom), charge = -1, multiplicity = 1:

       Center              X                  Y                   Z               Mass
    ------------   -----------------  -----------------  -----------------  -----------------
         O            1.204450359814     1.272987756657     0.139626920147    15.994914619570
         O           -1.374585640186    -1.206922243343     0.179489920147    15.994914619570
         O           -1.289631640186     1.002431756657    -0.360975079853    15.994914619570
         C            0.696096159814    -0.038808543343     0.403772920147    12.000000000000
         C            1.514301359814    -1.074009243343    -0.362322079853    12.000000000000
         C           -0.793068640186    -0.098922243343     0.043658920147    12.000000000000
         H            0.784408359814    -0.260542243343     1.486401920147     1.007825032230
         H            1.406729359814    -0.892852243343    -1.436532079853     1.007825032230
         H            2.574936359814    -1.007931243343    -0.101590079853     1.007825032230
         H            1.155156359814    -2.079837243343    -0.136967079853     1.007825032230
         H            0.370437759814     1.711316856657    -0.160379379853     1.007825032230

  Basis Set: AUG-CC-PVTZ
    Blend: AUG-CC-PVTZ
  Basis Set: (AUG-CC-PVTZ AUX)
    Blend: AUG-CC-PVTZ-JKFIT
	 Reference Energy          =    -341.2795757916389334 [Eh]
	 Singles Energy            =      -0.0000000000000000 [Eh]
	 Same-Spin Energy          =      -0.3365239249639759 [Eh]
	 Opposite-Spin Energy      =      -1.0191178932076932 [Eh]
	 Correlation Energy        =      -1.3556418181716690 [Eh]
	 Total Energy              =    -342.6352176098105815 [Eh]

	 ================> DF-SCS-MP2 Energies <==================
	-----------------------------------------------------------
	 SCS Same-Spin Scale       =       0.3333333333333333 [-]
	 SCS Opposite-Spin Scale   =       1.2000000000000000 [-]
	 SCS Same-Spin Energy      =      -0.1121746416546586 [Eh]
	 SCS Opposite-Spin Energy  =      -1.2229414718492317 [Eh]
	 SCS Correlation Energy    =      -1.3351161135038905 [Eh]
	 SCS Total Energy          =    -342.6146919051428199 [Eh]
	-----------------------------------------------------------

  Dipole Moment: [D]
     X:     3.7796      Y:    -0.4760      Z:     0.3748     Total:     3.8279

*** Psi4 exiting successfully. Buy a developer a beer!
