                               Psi4 1.3.2 release

  ==> Input File <==

--------------------------------------------------------------------------
#psi4
#
memory 32 gb

molecule  {
-1 1
  O        1.1365690     1.2999450     0.1428980
  O       -1.4611513    -1.1708041     0.1757211
  O       -1.3575130     1.0293890    -0.3577040
  C        0.6400100     0.0106244     0.4039246
  C        1.4464200    -1.0470520    -0.3590510
  C       -0.8609500    -0.0719650     0.0469300
  H        0.7165270    -0.2335850     1.4896730
  H        1.3388480    -0.8658950    -1.4332610
  H        2.5070550    -0.9809740    -0.0983190
  H        1.0872750    -2.0528800    -0.1336960
  H        0.3068940     1.7456410    -0.1582790
units angstrom
no_reorient  #important for SAPT in psi4, default
symmetry c1  #important for SAPT in psi4, default
}

set PROPERTIES_ORIGIN ["COM"]
properties('MP2/aug-cc-pvtz', properties = ['dipole'])
--------------------------------------------------------------------------

    Molecular point group: c1
  Charge       = -1
  Multiplicity = 1
  Basis Set: AUG-CC-PVTZ
    Blend: AUG-CC-PVTZ
  Basis Set: (AUG-CC-PVTZ AUX)
    Blend: AUG-CC-PVTZ-JKFIT

    Orbital Energies [Eh]
    ---------------------

    Doubly Occupied:

       1A    -20.385429     2A    -20.316418     3A    -20.309778
       4A    -11.151802     5A    -11.117978     6A    -11.072032
       7A     -1.211040     8A     -1.168110     9A     -1.081424
      10A     -0.858504    11A     -0.701020    12A     -0.570667
      13A     -0.500497    14A     -0.479015    15A     -0.438185
      16A     -0.404957    17A     -0.398521    18A     -0.377398
      19A     -0.365955    20A     -0.350315    21A     -0.275992
      22A     -0.232302    23A     -0.215335    24A     -0.212453

  @DF-RHF Final Energy:  -341.27951086812243

   => Energetics <=

    Nuclear Repulsion Energy =            239.0412070323517923
    One-Electron Energy =                -952.2511880692067052
    Two-Electron Energy =                 371.9304701687325405
    Total Energy =                       -341.2795108681224292
  Basis Set: (AUG-CC-PVTZ AUX)
    Blend: AUG-CC-PVTZ-RI
    Molecular point group: c1

    Geometry (in Angstrom), charge = -1, multiplicity = 1:

       Center              X                  Y                   Z               Mass
    ------------   -----------------  -----------------  -----------------  -----------------
         O            1.206168324255     1.268228799714     0.141325512467    15.994914619570
         O           -1.391551975745    -1.202520300286     0.174148612467    15.994914619570
         O           -1.287913675745     0.997672799714    -0.359276487533    15.994914619570
         C            0.709609324255    -0.021091800286     0.402352112467    12.000000000000
         C            1.516019324255    -1.078768200286    -0.360623487533    12.000000000000
         C           -0.791350675745    -0.103681200286     0.045357512467    12.000000000000
         H            0.786126324255    -0.265301200286     1.488100512467     1.007825032230
         H            1.408447324255    -0.897611200286    -1.434833487533     1.007825032230
         H            2.576654324255    -1.012690200286    -0.099891487533     1.007825032230
         H            1.156874324255    -2.084596200286    -0.135268487533     1.007825032230
         H            0.376493324255     1.713924799714    -0.159851487533     1.007825032230

  Basis Set: AUG-CC-PVTZ
    Blend: AUG-CC-PVTZ
  Basis Set: (AUG-CC-PVTZ AUX)
    Blend: AUG-CC-PVTZ-JKFIT
	 Reference Energy          =    -341.2795108681224292 [Eh]
	 Singles Energy            =      -0.0000000000000000 [Eh]
	 Same-Spin Energy          =      -0.3364198974629063 [Eh]
	 Opposite-Spin Energy      =      -1.0186035097893491 [Eh]
	 Correlation Energy        =      -1.3550234072522556 [Eh]
	 Total Energy              =    -342.6345342753746763 [Eh]

	 ================> DF-SCS-MP2 Energies <==================
	-----------------------------------------------------------
	 SCS Same-Spin Scale       =       0.3333333333333333 [-]
	 SCS Opposite-Spin Scale   =       1.2000000000000000 [-]
	 SCS Same-Spin Energy      =      -0.1121399658209688 [Eh]
	 SCS Opposite-Spin Energy  =      -1.2223242117472188 [Eh]
	 SCS Correlation Energy    =      -1.3344641775681876 [Eh]
	 SCS Total Energy          =    -342.6139750456906086 [Eh]
	-----------------------------------------------------------

  Dipole Moment: [D]
     X:     3.8540      Y:    -0.3738      Z:     0.3681     Total:     3.8895

*** Psi4 exiting successfully. Buy a developer a beer!
