                               Psi4 1.3.2 release

  ==> Input File <==

--------------------------------------------------------------------------
#psi4
#
memory 32 gb

molecule  {
-1 1
  O        1.1478876     1.2964090     0.1468256
  O       -1.4424670    -1.1799650     0.1827610
  O       -1.3575130     1.0293890    -0.3577040
  C        0.6396440    -0.0155260     0.4104950
  C        1.4464200    -1.0470520    -0.3590510
  C       -0.8613181    -0.0849027     0.0507076
  H        0.7165270    -0.2335850     1.4896730
  H        1.3388480    -0.8658950    -1.4332610
  H        2.5070550    -0.9809740    -0.0983190
  H        1.0872750    -2.0528800    -0.1336960
  H        0.3068940     1.7456410    -0.1582790
units angstrom
no_reorient  #important for SAPT in psi4, default
symmetry c1  #important for SAPT in psi4, default
}

set PROPERTIES_ORIGIN ["COM"]
properties('MP2/aug-cc-pvtz', properties = ['dipole'])
--------------------------------------------------------------------------

    Molecular point group: c1
  Charge       = -1
  Multiplicity = 1
  Basis Set: AUG-CC-PVTZ
    Blend: AUG-CC-PVTZ
  Basis Set: (AUG-CC-PVTZ AUX)
    Blend: AUG-CC-PVTZ-JKFIT

    Orbital Energies [Eh]
    ---------------------

    Doubly Occupied:

       1A    -20.382205     2A    -20.315543     3A    -20.313807
       4A    -11.153084     5A    -11.116051     6A    -11.071779
       7A     -1.202133     8A     -1.164613     9A     -1.082611
      10A     -0.861610    11A     -0.700828    12A     -0.564650
      13A     -0.498835    14A     -0.477543    15A     -0.436490
      16A     -0.404378    17A     -0.399168    18A     -0.372773
      19A     -0.366486    20A     -0.349866    21A     -0.278154
      22A     -0.232763    23A     -0.216200    24A     -0.214408

  @DF-RHF Final Energy:  -341.27869299686307

   => Energetics <=

    Nuclear Repulsion Energy =            238.8052302978403247
    One-Electron Energy =                -951.8158909979438249
    Two-Electron Energy =                 371.7319677032404002
    Total Energy =                       -341.2786929968630716
  Basis Set: (AUG-CC-PVTZ AUX)
    Blend: AUG-CC-PVTZ-RI
    Molecular point group: c1

    Geometry (in Angstrom), charge = -1, multiplicity = 1:

       Center              X                  Y                   Z               Mass
    ------------   -----------------  -----------------  -----------------  -----------------
         O            1.212195257772     1.272242943724     0.141887720360    15.994914619570
         O           -1.378159342228    -1.204131056276     0.177823120360    15.994914619570
         O           -1.293205342228     1.005222943724    -0.362641879640    15.994914619570
         C            0.703951657772    -0.039692056276     0.405557120360    12.000000000000
         C            1.510727657772    -1.071218056276    -0.363988879640    12.000000000000
         C           -0.797010442228    -0.109068756276     0.045769720360    12.000000000000
         H            0.780834657772    -0.257751056276     1.484735120360     1.007825032230
         H            1.403155657772    -0.890061056276    -1.438198879640     1.007825032230
         H            2.571362657772    -1.005140056276    -0.103256879640     1.007825032230
         H            1.151582657772    -2.077046056276    -0.138633879640     1.007825032230
         H            0.371201657772     1.721474943724    -0.163216879640     1.007825032230

  Basis Set: AUG-CC-PVTZ
    Blend: AUG-CC-PVTZ
  Basis Set: (AUG-CC-PVTZ AUX)
    Blend: AUG-CC-PVTZ-JKFIT
	 Reference Energy          =    -341.2786929968630716 [Eh]
	 Singles Energy            =      -0.0000000000000000 [Eh]
	 Same-Spin Energy          =      -0.3366994472701460 [Eh]
	 Opposite-Spin Energy      =      -1.0194754417543459 [Eh]
	 Correlation Energy        =      -1.3561748890244920 [Eh]
	 Total Energy              =    -342.6348678858875587 [Eh]

	 ================> DF-SCS-MP2 Energies <==================
	-----------------------------------------------------------
	 SCS Same-Spin Scale       =       0.3333333333333333 [-]
	 SCS Opposite-Spin Scale   =       1.2000000000000000 [-]
	 SCS Same-Spin Energy      =      -0.1122331490900487 [Eh]
	 SCS Opposite-Spin Energy  =      -1.2233705301052151 [Eh]
	 SCS Correlation Energy    =      -1.3356036791952639 [Eh]
	 SCS Total Energy          =    -342.6142966760583590 [Eh]
	-----------------------------------------------------------

  Dipole Moment: [D]
     X:     3.7522      Y:    -0.6130      Z:     0.4023     Total:     3.8231

*** Psi4 exiting successfully. Buy a developer a beer!
