                               Psi4 1.3.2 release

  ==> Input File <==

--------------------------------------------------------------------------
#psi4
#
memory 32 gb

molecule  {
-1 1
  O        1.1538182     1.2901078     0.1277374
  O       -1.4424670    -1.1799650     0.1827610
  O       -1.3575130     1.0293890    -0.3577040
  C        0.6396440    -0.0155260     0.4104950
  C        1.4612771    -1.0275571    -0.3691502
  C       -0.8609500    -0.0719650     0.0469300
  H        0.7165270    -0.2335850     1.4896730
  H        1.3388480    -0.8658950    -1.4332610
  H        2.5070550    -0.9809740    -0.0983190
  H        1.0872750    -2.0528800    -0.1336960
  H        0.3068940     1.7456410    -0.1582790
units angstrom
no_reorient  #important for SAPT in psi4, default
symmetry c1  #important for SAPT in psi4, default
}

set PROPERTIES_ORIGIN ["COM"]
properties('MP2/aug-cc-pvtz', properties = ['dipole'])
--------------------------------------------------------------------------

    Molecular point group: c1
  Charge       = -1
  Multiplicity = 1
  Basis Set: AUG-CC-PVTZ
    Blend: AUG-CC-PVTZ
  Basis Set: (AUG-CC-PVTZ AUX)
    Blend: AUG-CC-PVTZ-JKFIT

    Orbital Energies [Eh]
    ---------------------

    Doubly Occupied:

       1A    -20.382056     2A    -20.318970     3A    -20.310808
       4A    -11.153390     5A    -11.116093     6A    -11.071006
       7A     -1.202979     8A     -1.162733     9A     -1.083914
      10A     -0.860259    11A     -0.701199    12A     -0.564691
      13A     -0.499695    14A     -0.477904    15A     -0.437030
      16A     -0.402750    17A     -0.400208    18A     -0.369821
      19A     -0.366311    20A     -0.349111    21A     -0.278492
      22A     -0.234416    23A     -0.215801    24A     -0.214027

  @DF-RHF Final Energy:  -341.27775036492727

   => Energetics <=

    Nuclear Repulsion Energy =            238.8507666640823572
    One-Electron Energy =                -951.9097009824167799
    Two-Electron Energy =                 371.7811839534071510
    Total Energy =                       -341.2777503649272717
  Basis Set: (AUG-CC-PVTZ AUX)
    Blend: AUG-CC-PVTZ-RI
    Molecular point group: c1

    Geometry (in Angstrom), charge = -1, multiplicity = 1:

       Center              X                  Y                   Z               Mass
    ------------   -----------------  -----------------  -----------------  -----------------
         O            1.215008021582     1.262702117687     0.128099623967    15.994914619570
         O           -1.381277178418    -1.207370682313     0.183123223967    15.994914619570
         O           -1.296323178418     1.001983317687    -0.357341776033    15.994914619570
         C            0.700833821582    -0.042931682313     0.410857223967    12.000000000000
         C            1.522466921582    -1.054962782313    -0.368787976033    12.000000000000
         C           -0.799760178418    -0.099370682313     0.047292223967    12.000000000000
         H            0.777716821582    -0.260990682313     1.490035223967     1.007825032230
         H            1.400037821582    -0.893300682313    -1.432898776033     1.007825032230
         H            2.568244821582    -1.008379682313    -0.097956776033     1.007825032230
         H            1.148464821582    -2.080285682313    -0.133333776033     1.007825032230
         H            0.368083821582     1.718235317687    -0.157916776033     1.007825032230

  Basis Set: AUG-CC-PVTZ
    Blend: AUG-CC-PVTZ
  Basis Set: (AUG-CC-PVTZ AUX)
    Blend: AUG-CC-PVTZ-JKFIT
	 Reference Energy          =    -341.2777503649272717 [Eh]
	 Singles Energy            =      -0.0000000000000000 [Eh]
	 Same-Spin Energy          =      -0.3367803867276996 [Eh]
	 Opposite-Spin Energy      =      -1.0196504213395028 [Eh]
	 Correlation Energy        =      -1.3564308080672023 [Eh]
	 Total Energy              =    -342.6341811729944880 [Eh]

	 ================> DF-SCS-MP2 Energies <==================
	-----------------------------------------------------------
	 SCS Same-Spin Scale       =       0.3333333333333333 [-]
	 SCS Opposite-Spin Scale   =       1.2000000000000000 [-]
	 SCS Same-Spin Energy      =      -0.1122601289092332 [Eh]
	 SCS Opposite-Spin Energy  =      -1.2235805056074034 [Eh]
	 SCS Correlation Energy    =      -1.3358406345166365 [Eh]
	 SCS Total Energy          =    -342.6135909994438862 [Eh]
	-----------------------------------------------------------

  Dipole Moment: [D]
     X:     3.7659      Y:    -0.4406      Z:     0.3831     Total:     3.8109

*** Psi4 exiting successfully. Buy a developer a beer!
