                               Psi4 1.3.2 release

  ==> Input File <==

--------------------------------------------------------------------------
#psi4
#
memory 32 gb

molecule  {
-1 1
  O        1.1452128     1.2950763     0.1353072
  O       -1.4424670    -1.1799650     0.1827610
  O       -1.3575130     1.0293890    -0.3577040
  C        0.6396440    -0.0155260     0.4104950
  C        1.4538795    -1.0373435    -0.3641301
  C       -0.8609500    -0.0719650     0.0469300
  H        0.7165270    -0.2335850     1.4896730
  H        1.3388480    -0.8658950    -1.4332610
  H        2.5070550    -0.9809740    -0.0983190
  H        1.0872750    -2.0528800    -0.1336960
  H        0.3068940     1.7456410    -0.1582790
units angstrom
no_reorient  #important for SAPT in psi4, default
symmetry c1  #important for SAPT in psi4, default
}

set PROPERTIES_ORIGIN ["COM"]
properties('MP2/aug-cc-pvtz', properties = ['dipole'])
--------------------------------------------------------------------------

    Molecular point group: c1
  Charge       = -1
  Multiplicity = 1
  Basis Set: AUG-CC-PVTZ
    Blend: AUG-CC-PVTZ
  Basis Set: (AUG-CC-PVTZ AUX)
    Blend: AUG-CC-PVTZ-JKFIT

    Orbital Energies [Eh]
    ---------------------

    Doubly Occupied:

       1A    -20.381839     2A    -20.318435     3A    -20.310524
       4A    -11.152993     5A    -11.116181     6A    -11.071439
       7A     -1.203552     8A     -1.163113     9A     -1.083564
      10A     -0.861070    11A     -0.701115    12A     -0.565527
      13A     -0.499989    14A     -0.477596    15A     -0.436861
      16A     -0.403054    17A     -0.400339    18A     -0.370813
      19A     -0.366786    20A     -0.349335    21A     -0.278901
      22A     -0.234048    23A     -0.215427    24A     -0.213751

  @DF-RHF Final Energy:  -341.27905355919700

   => Energetics <=

    Nuclear Repulsion Energy =            238.9008708193192945
    One-Electron Energy =                -952.0073446589460673
    Two-Electron Energy =                 371.8274202804298056
    Total Energy =                       -341.2790535591969956
  Basis Set: (AUG-CC-PVTZ AUX)
    Blend: AUG-CC-PVTZ-RI
    Molecular point group: c1

    Geometry (in Angstrom), charge = -1, multiplicity = 1:

       Center              X                  Y                   Z               Mass
    ------------   -----------------  -----------------  -----------------  -----------------
         O            1.208945915204     1.268097088331     0.133632672400    15.994914619570
         O           -1.378733884796    -1.206944211669     0.181086472400    15.994914619570
         O           -1.293779884796     1.002409788331    -0.359378527600    15.994914619570
         C            0.703377115204    -0.042505211669     0.408820472400    12.000000000000
         C            1.517612615204    -1.064322711669    -0.365804627600    12.000000000000
         C           -0.797216884796    -0.098944211669     0.045255472400    12.000000000000
         H            0.780260115204    -0.260564211669     1.487998472400     1.007825032230
         H            1.402581115204    -0.892874211669    -1.434935527600     1.007825032230
         H            2.570788115204    -1.007953211669    -0.099993527600     1.007825032230
         H            1.151008115204    -2.079859211669    -0.135370527600     1.007825032230
         H            0.370627115204     1.718661788331    -0.159953527600     1.007825032230

  Basis Set: AUG-CC-PVTZ
    Blend: AUG-CC-PVTZ
  Basis Set: (AUG-CC-PVTZ AUX)
    Blend: AUG-CC-PVTZ-JKFIT
	 Reference Energy          =    -341.2790535591969956 [Eh]
	 Singles Energy            =      -0.0000000000000000 [Eh]
	 Same-Spin Energy          =      -0.3366173771358127 [Eh]
	 Opposite-Spin Energy      =      -1.0193080813743727 [Eh]
	 Correlation Energy        =      -1.3559254585101854 [Eh]
	 Total Energy              =    -342.6349790177071668 [Eh]

	 ================> DF-SCS-MP2 Energies <==================
	-----------------------------------------------------------
	 SCS Same-Spin Scale       =       0.3333333333333333 [-]
	 SCS Opposite-Spin Scale   =       1.2000000000000000 [-]
	 SCS Same-Spin Energy      =      -0.1122057923786042 [Eh]
	 SCS Opposite-Spin Energy  =      -1.2231696976492472 [Eh]
	 SCS Correlation Energy    =      -1.3353754900278514 [Eh]
	 SCS Total Energy          =    -342.6144290492248388 [Eh]
	-----------------------------------------------------------

  Dipole Moment: [D]
     X:     3.7796      Y:    -0.4595      Z:     0.3791     Total:     3.8263

*** Psi4 exiting successfully. Buy a developer a beer!
