                               Psi4 1.3.2 release

  ==> Input File <==

--------------------------------------------------------------------------
#psi4
#
memory 32 gb

molecule  {
-1 1
  O        1.1365690     1.2999450     0.1428980
  O       -1.4424670    -1.1799650     0.1827610
  O       -1.3575130     1.0293890    -0.3577040
  C        0.6396440    -0.0155260     0.4104950
  C        1.4464200    -1.0470520    -0.3590510
  C       -0.8999242     0.0144780     0.0151711
  H        0.7165270    -0.2335850     1.4896730
  H        1.3388480    -0.8658950    -1.4332610
  H        2.5070550    -0.9809740    -0.0983190
  H        1.0872750    -2.0528800    -0.1336960
  H        0.3068940     1.7456410    -0.1582790
units angstrom
no_reorient  #important for SAPT in psi4, default
symmetry c1  #important for SAPT in psi4, default
}

set PROPERTIES_ORIGIN ["COM"]
properties('MP2/aug-cc-pvtz', properties = ['dipole'])
--------------------------------------------------------------------------

    Molecular point group: c1
  Charge       = -1
  Multiplicity = 1
  Basis Set: AUG-CC-PVTZ
    Blend: AUG-CC-PVTZ
  Basis Set: (AUG-CC-PVTZ AUX)
    Blend: AUG-CC-PVTZ-JKFIT

    Orbital Energies [Eh]
    ---------------------

    Doubly Occupied:

       1A    -20.381993     2A    -20.340852     3A    -20.290894
       4A    -11.149864     5A    -11.111944     6A    -11.067805
       7A     -1.239330     8A     -1.175215     9A     -1.067714
      10A     -0.853218    11A     -0.689410    12A     -0.565515
      13A     -0.514540    14A     -0.478588    15A     -0.436602
      16A     -0.407178    17A     -0.399561    18A     -0.376663
      19A     -0.367842    20A     -0.361840    21A     -0.279591
      22A     -0.236610    23A     -0.208513    24A     -0.197491

  @DF-RHF Final Energy:  -341.26727648992983

   => Energetics <=

    Nuclear Repulsion Energy =            239.1331974481145437
    One-Electron Energy =                -952.4034056771874930
    Two-Electron Energy =                 372.0029317391431505
    Total Energy =                       -341.2672764899298272
  Basis Set: (AUG-CC-PVTZ AUX)
    Blend: AUG-CC-PVTZ-RI
    Molecular point group: c1

    Geometry (in Angstrom), charge = -1, multiplicity = 1:

       Center              X                  Y                   Z               Mass
    ------------   -----------------  -----------------  -----------------  -----------------
         O            1.208114191343     1.261747578520     0.143455945604    15.994914619570
         O           -1.370921808657    -1.218162421480     0.183318945604    15.994914619570
         O           -1.285967808657     0.991191578520    -0.357146054396    15.994914619570
         C            0.711189191343    -0.053723421480     0.411052945604    12.000000000000
         C            1.517965191343    -1.085249421480    -0.358493054396    12.000000000000
         C           -0.828379008657    -0.023719421480     0.015729045604    12.000000000000
         H            0.788072191343    -0.271782421480     1.490230945604     1.007825032230
         H            1.410393191343    -0.904092421480    -1.432703054396     1.007825032230
         H            2.578600191343    -1.019171421480    -0.097761054396     1.007825032230
         H            1.158820191343    -2.091077421480    -0.133138054396     1.007825032230
         H            0.378439191343     1.707443578520    -0.157721054396     1.007825032230

  Basis Set: AUG-CC-PVTZ
    Blend: AUG-CC-PVTZ
  Basis Set: (AUG-CC-PVTZ AUX)
    Blend: AUG-CC-PVTZ-JKFIT
	 Reference Energy          =    -341.2672764899298272 [Eh]
	 Singles Energy            =      -0.0000000000000000 [Eh]
	 Same-Spin Energy          =      -0.3356760885251932 [Eh]
	 Opposite-Spin Energy      =      -1.0174680263177911 [Eh]
	 Correlation Energy        =      -1.3531441148429844 [Eh]
	 Total Energy              =    -342.6204206047727894 [Eh]

	 ================> DF-SCS-MP2 Energies <==================
	-----------------------------------------------------------
	 SCS Same-Spin Scale       =       0.3333333333333333 [-]
	 SCS Opposite-Spin Scale   =       1.2000000000000000 [-]
	 SCS Same-Spin Energy      =      -0.1118920295083977 [Eh]
	 SCS Opposite-Spin Energy  =      -1.2209616315813492 [Eh]
	 SCS Correlation Energy    =      -1.3328536610897470 [Eh]
	 SCS Total Energy          =    -342.6001301510195844 [Eh]
	-----------------------------------------------------------

  Dipole Moment: [D]
     X:     3.6255      Y:     0.4713      Z:     0.1121     Total:     3.6578

*** Psi4 exiting successfully. Buy a developer a beer!
