                               Psi4 1.3.2 release

  ==> Input File <==

--------------------------------------------------------------------------
#psi4
#
memory 32 gb

molecule  {
-1 1
  O        1.1278873     1.3047135     0.1505092
  O       -1.4424670    -1.1799650     0.1827610
  O       -1.3575130     1.0293890    -0.3577040
  C        0.6396440    -0.0155260     0.4104950
  C        1.4388990    -1.0566820    -0.3539133
  C       -0.8609500    -0.0719650     0.0469300
  H        0.7165270    -0.2335850     1.4896730
  H        1.3388480    -0.8658950    -1.4332610
  H        2.5070550    -0.9809740    -0.0983190
  H        1.0872750    -2.0528800    -0.1336960
  H        0.3068940     1.7456410    -0.1582790
units angstrom
no_reorient  #important for SAPT in psi4, default
symmetry c1  #important for SAPT in psi4, default
}

set PROPERTIES_ORIGIN ["COM"]
properties('MP2/aug-cc-pvtz', properties = ['dipole'])
--------------------------------------------------------------------------

    Molecular point group: c1
  Charge       = -1
  Multiplicity = 1
  Basis Set: AUG-CC-PVTZ
    Blend: AUG-CC-PVTZ
  Basis Set: (AUG-CC-PVTZ AUX)
    Blend: AUG-CC-PVTZ-JKFIT

    Orbital Energies [Eh]
    ---------------------

    Doubly Occupied:

       1A    -20.381470     2A    -20.317403     3A    -20.309977
       4A    -11.152224     5A    -11.116459     6A    -11.072522
       7A     -1.204887     8A     -1.163855     9A     -1.082896
      10A     -0.862758    11A     -0.701187    12A     -0.567363
      13A     -0.500560    14A     -0.477355    15A     -0.436517
      16A     -0.406476    17A     -0.399573    18A     -0.373195
      19A     -0.365580    20A     -0.349398    21A     -0.279547
      22A     -0.233310    23A     -0.214713    24A     -0.213189

  @DF-RHF Final Energy:  -341.27998769241634

   => Energetics <=

    Nuclear Repulsion Energy =            239.0094968671485560
    One-Electron Energy =                -952.2141403040517389
    Two-Electron Energy =                 371.9246557444868699
    Total Energy =                       -341.2799876924163414
  Basis Set: (AUG-CC-PVTZ AUX)
    Blend: AUG-CC-PVTZ-RI
    Molecular point group: c1

    Geometry (in Angstrom), charge = -1, multiplicity = 1:

       Center              X                  Y                   Z               Mass
    ------------   -----------------  -----------------  -----------------  -----------------
         O            1.196752588162     1.278609512130     0.144726153010    15.994914619570
         O           -1.373601711838    -1.206068987870     0.176977953010    15.994914619570
         O           -1.288647711838     1.003285012130    -0.363487046990    15.994914619570
         C            0.708509288162    -0.041629987870     0.404711953010    12.000000000000
         C            1.507764288162    -1.082785987870    -0.359696346990    12.000000000000
         C           -0.792084711838    -0.098068987870     0.041146953010    12.000000000000
         H            0.785392288162    -0.259688987870     1.483889953010     1.007825032230
         H            1.407713288162    -0.891998987870    -1.439044046990     1.007825032230
         H            2.575920288162    -1.007077987870    -0.104102046990     1.007825032230
         H            1.156140288162    -2.078983987870    -0.139479046990     1.007825032230
         H            0.375759288162     1.719537012130    -0.164062046990     1.007825032230

  Basis Set: AUG-CC-PVTZ
    Blend: AUG-CC-PVTZ
  Basis Set: (AUG-CC-PVTZ AUX)
    Blend: AUG-CC-PVTZ-JKFIT
	 Reference Energy          =    -341.2799876924163414 [Eh]
	 Singles Energy            =      -0.0000000000000000 [Eh]
	 Same-Spin Energy          =      -0.3363297082148472 [Eh]
	 Opposite-Spin Energy      =      -1.0187180264625721 [Eh]
	 Correlation Energy        =      -1.3550477346774192 [Eh]
	 Total Energy              =    -342.6350354270937828 [Eh]

	 ================> DF-SCS-MP2 Energies <==================
	-----------------------------------------------------------
	 SCS Same-Spin Scale       =       0.3333333333333333 [-]
	 SCS Opposite-Spin Scale   =       1.2000000000000000 [-]
	 SCS Same-Spin Energy      =      -0.1121099027382824 [Eh]
	 SCS Opposite-Spin Energy  =      -1.2224616317550865 [Eh]
	 SCS Correlation Energy    =      -1.3345715344933688 [Eh]
	 SCS Total Energy          =    -342.6145592269097051 [Eh]
	-----------------------------------------------------------

  Dipole Moment: [D]
     X:     3.8053      Y:    -0.4931      Z:     0.3714     Total:     3.8551

*** Psi4 exiting successfully. Buy a developer a beer!
