                               Psi4 1.4a3.dev225

  ==> Input File <==

--------------------------------------------------------------------------
#psi4
#
memory 32 gb

molecule  {
-1 1
  O       -1.1681810     1.2683390    -0.1935740
  O        1.4902400    -1.1295240    -0.2243730
  O        1.3027740     1.0522020     0.4123420
  C       -0.6404390    -0.0405420    -0.4184120
  C       -1.4092810    -1.0711850     0.3952000
  C        0.8824574    -0.0524124    -0.0444385
  H       -0.7260590    -0.2876370    -1.4879020
  H       -1.3060210    -0.8470660     1.4617500
  H       -2.4733650    -1.0522610     0.1409170
  H       -1.0158520    -2.0724200     0.2054930
  H       -0.3572580     1.7151740     0.1591030
units angstrom
no_reorient  #important for SAPT in psi4, default
symmetry c1  #important for SAPT in psi4, default
}

set PROPERTIES_ORIGIN ["COM"]
properties('MP2/aug-cc-pvtz', properties = ['dipole'])
--------------------------------------------------------------------------

    Molecular point group: c1
  Charge       = -1
  Multiplicity = 1
  Basis Set: AUG-CC-PVTZ
    Blend: AUG-CC-PVTZ
  Basis Set: (AUG-CC-PVTZ AUX)
    Blend: AUG-CC-PVTZ-JKFIT

    Orbital Energies [Eh]
    ---------------------

    Doubly Occupied:

       1A    -20.379577     2A    -20.319648     3A    -20.312369
       4A    -11.153154     5A    -11.113632     6A    -11.070838
       7A     -1.205689     8A     -1.165779     9A     -1.090594
      10A     -0.858179    11A     -0.695009    12A     -0.564486
      13A     -0.499843    14A     -0.476237    15A     -0.436021
      16A     -0.406605    17A     -0.402096    18A     -0.372025
      19A     -0.365634    20A     -0.353025    21A     -0.276951
      22A     -0.236845    23A     -0.217280    24A     -0.211663

  @DF-RHF Final Energy:  -341.28083228518472

   => Energetics <=

    Nuclear Repulsion Energy =            238.9356943225378416
    One-Electron Energy =                -952.0666957201837022
    Two-Electron Energy =                 371.8501691124611170
    Total Energy =                       -341.2808322851847151
  Basis Set: (AUG-CC-PVTZ AUX)
    Blend: AUG-CC-PVTZ-RI
    Molecular point group: c1

    Geometry (in Angstrom), charge = -1, multiplicity = 1:

       Center              X                  Y                   Z               Mass
    ------------   -----------------  -----------------  -----------------  -----------------
         O           -1.236222965491     1.240072155075    -0.188874749273    15.994914619570
         O            1.422198034509    -1.157790844925    -0.219673749273    15.994914619570
         O            1.234732034509     1.023935155075     0.417041250727    15.994914619570
         C           -0.708480965491    -0.068808844925    -0.413712749273    12.000000000000
         C           -1.477322965491    -1.099451844925     0.399899250727    12.000000000000
         C            0.814415434509    -0.080679244925    -0.039739249273    12.000000000000
         H           -0.794100965491    -0.315903844925    -1.483202749273     1.007825032230
         H           -1.374062965491    -0.875332844925     1.466449250727     1.007825032230
         H           -2.541406965491    -1.080527844925     0.145616250727     1.007825032230
         H           -1.083893965491    -2.100686844925     0.210192250727     1.007825032230
         H           -0.425299965491     1.686907155075     0.163802250727     1.007825032230

  Basis Set: AUG-CC-PVTZ
    Blend: AUG-CC-PVTZ
  Basis Set: (AUG-CC-PVTZ AUX)
    Blend: AUG-CC-PVTZ-JKFIT
	 Reference Energy          =    -341.2808322851847151 [Eh]
	 Singles Energy            =      -0.0000000000000000 [Eh]
	 Same-Spin Energy          =      -0.3363001464221758 [Eh]
	 Opposite-Spin Energy      =      -1.0185238051515508 [Eh]
	 Correlation Energy        =      -1.3548239515737266 [Eh]
	 Total Energy              =    -342.6356562367584502 [Eh]

	 ================> DF-SCS-MP2 Energies <==================
	-----------------------------------------------------------
	 SCS Same-Spin Scale       =       0.3333333333333333 [-]
	 SCS Opposite-Spin Scale   =       1.2000000000000000 [-]
	 SCS Same-Spin Energy      =      -0.1121000488073919 [Eh]
	 SCS Opposite-Spin Energy  =      -1.2222285661818610 [Eh]
	 SCS Correlation Energy    =      -1.3343286149892530 [Eh]
	 SCS Total Energy          =    -342.6151609001739757 [Eh]
	-----------------------------------------------------------

  Dipole Moment: [D]
     X:    -3.6223      Y:    -0.6084      Z:    -0.2789     Total:     3.6836

*** Psi4 exiting successfully. Buy a developer a beer!
