                               Psi4 1.3.2 release

  ==> Input File <==

--------------------------------------------------------------------------
#psi4
#
memory 32 gb

molecule  {
-1 1
  O        1.1365690     1.2999450     0.1428980
  O       -1.4424670    -1.1799650     0.1827610
  O       -1.3575130     1.0293890    -0.3577040
  C        0.6396440    -0.0155260     0.4104950
  C        1.5526498    -1.1828751    -0.4603787
  C       -0.8609500    -0.0719650     0.0469300
  H        0.7165270    -0.2335850     1.4896730
  H        1.3388480    -0.8658950    -1.4332610
  H        2.5070550    -0.9809740    -0.0983190
  H        1.0872750    -2.0528800    -0.1336960
  H        0.3068940     1.7456410    -0.1582790
units angstrom
no_reorient  #important for SAPT in psi4, default
symmetry c1  #important for SAPT in psi4, default
}

set PROPERTIES_ORIGIN ["COM"]
properties('MP2/aug-cc-pvtz', properties = ['dipole'])
--------------------------------------------------------------------------

    Molecular point group: c1
  Charge       = -1
  Multiplicity = 1
  Basis Set: AUG-CC-PVTZ
    Blend: AUG-CC-PVTZ
  Basis Set: (AUG-CC-PVTZ AUX)
    Blend: AUG-CC-PVTZ-JKFIT

    Orbital Energies [Eh]
    ---------------------

    Doubly Occupied:

       1A    -20.384135     2A    -20.318211     3A    -20.310304
       4A    -11.153116     5A    -11.126336     6A    -11.068730
       7A     -1.203421     8A     -1.163507     9A     -1.083113
      10A     -0.840980    11A     -0.711901    12A     -0.561935
      13A     -0.498818    14A     -0.474699    15A     -0.442298
      16A     -0.421733    17A     -0.409499    18A     -0.376992
      19A     -0.363037    20A     -0.346982    21A     -0.252198
      22A     -0.234134    23A     -0.214892    24A     -0.213094

  @DF-RHF Final Energy:  -341.25321473565168

   => Energetics <=

    Nuclear Repulsion Energy =            235.9334054819414632
    One-Electron Energy =                -946.0251123629608401
    Two-Electron Energy =                 368.8384921453676952
    Total Energy =                       -341.2532147356516816
  Basis Set: (AUG-CC-PVTZ AUX)
    Blend: AUG-CC-PVTZ-RI
    Molecular point group: c1

    Geometry (in Angstrom), charge = -1, multiplicity = 1:

       Center              X                  Y                   Z               Mass
    ------------   -----------------  -----------------  -----------------  -----------------
         O            1.188541373185     1.291708006318     0.152833493549    15.994914619570
         O           -1.390494626815    -1.188201993682     0.192696493549    15.994914619570
         O           -1.305540626815     1.021152006318    -0.347768506451    15.994914619570
         C            0.691616373185    -0.023762993682     0.420430493549    12.000000000000
         C            1.604622173185    -1.191112093682    -0.450443206451    12.000000000000
         C           -0.808977626815    -0.080201993682     0.056865493549    12.000000000000
         H            0.768499373185    -0.241821993682     1.499608493549     1.007825032230
         H            1.390820373185    -0.874131993682    -1.423325506451     1.007825032230
         H            2.559027373185    -0.989210993682    -0.088383506451     1.007825032230
         H            1.139247373185    -2.061116993682    -0.123760506451     1.007825032230
         H            0.358866373185     1.737404006318    -0.148343506451     1.007825032230

  Basis Set: AUG-CC-PVTZ
    Blend: AUG-CC-PVTZ
  Basis Set: (AUG-CC-PVTZ AUX)
    Blend: AUG-CC-PVTZ-JKFIT
	 Reference Energy          =    -341.2532147356516816 [Eh]
	 Singles Energy            =      -0.0000000000000000 [Eh]
	 Same-Spin Energy          =      -0.3367985267949606 [Eh]
	 Opposite-Spin Energy      =      -1.0205482647329065 [Eh]
	 Correlation Energy        =      -1.3573467915278672 [Eh]
	 Total Energy              =    -342.6105615271795273 [Eh]

	 ================> DF-SCS-MP2 Energies <==================
	-----------------------------------------------------------
	 SCS Same-Spin Scale       =       0.3333333333333333 [-]
	 SCS Opposite-Spin Scale   =       1.2000000000000000 [-]
	 SCS Same-Spin Energy      =      -0.1122661755983202 [Eh]
	 SCS Opposite-Spin Energy  =      -1.2246579176794878 [Eh]
	 SCS Correlation Energy    =      -1.3369240932778081 [Eh]
	 SCS Total Energy          =    -342.5901388289294687 [Eh]
	-----------------------------------------------------------

  Dipole Moment: [D]
     X:     3.7659      Y:    -0.3358      Z:     0.4225     Total:     3.8044

*** Psi4 exiting successfully. Buy a developer a beer!
