                               Psi4 1.3.2 release

  ==> Input File <==

--------------------------------------------------------------------------
#psi4
#
memory 32 gb

molecule  {
-1 1
  O        1.1365690     1.2999450     0.1428980
  O       -1.4424670    -1.1799650     0.1827610
  O       -1.3575130     1.0293890    -0.3577040
  C        0.6396440    -0.0155260     0.4104950
  C        1.4464200    -1.0470520    -0.3590510
  C       -0.9388984     0.1009209    -0.0165877
  H        0.7165270    -0.2335850     1.4896730
  H        1.3388480    -0.8658950    -1.4332610
  H        2.5070550    -0.9809740    -0.0983190
  H        1.0872750    -2.0528800    -0.1336960
  H        0.3068940     1.7456410    -0.1582790
units angstrom
no_reorient  #important for SAPT in psi4, default
symmetry c1  #important for SAPT in psi4, default
}

set PROPERTIES_ORIGIN ["COM"]
properties('MP2/aug-cc-pvtz', properties = ['dipole'])
--------------------------------------------------------------------------

    Molecular point group: c1
  Charge       = -1
  Multiplicity = 1
  Basis Set: AUG-CC-PVTZ
    Blend: AUG-CC-PVTZ
  Basis Set: (AUG-CC-PVTZ AUX)
    Blend: AUG-CC-PVTZ-JKFIT

    Orbital Energies [Eh]
    ---------------------

    Doubly Occupied:

       1A    -20.382539     2A    -20.364402     3A    -20.272754
       4A    -11.144874     5A    -11.105910     6A    -11.063193
       7A     -1.318115     8A     -1.181582     9A     -1.028387
      10A     -0.844890    11A     -0.678268    12A     -0.569648
      13A     -0.544888    14A     -0.481641    15A     -0.444860
      16A     -0.428020    17A     -0.395648    18A     -0.393839
      19A     -0.376994    20A     -0.362325    21A     -0.277674
      22A     -0.222159    23A     -0.194606    24A     -0.172918

  @DF-RHF Final Energy:  -341.21145183311347

   => Energetics <=

    Nuclear Repulsion Energy =            239.6331355967354284
    One-Electron Energy =                -953.1889086138867242
    Two-Electron Energy =                 372.3443211840378240
    Total Energy =                       -341.2114518331134718
  Basis Set: (AUG-CC-PVTZ AUX)
    Blend: AUG-CC-PVTZ-RI
    Molecular point group: c1

    Geometry (in Angstrom), charge = -1, multiplicity = 1:

       Center              X                  Y                   Z               Mass
    ------------   -----------------  -----------------  -----------------  -----------------
         O            1.213367730704     1.250095481039     0.147736882888    15.994914619570
         O           -1.365668269296    -1.229814518961     0.187599882888    15.994914619570
         O           -1.280714269296     0.979539481039    -0.352865117112    15.994914619570
         C            0.716442730704    -0.065375518961     0.415333882888    12.000000000000
         C            1.523218730704    -1.096901518961    -0.354212117112    12.000000000000
         C           -0.862099669296     0.051071381039    -0.011748817112    12.000000000000
         H            0.793325730704    -0.283434518961     1.494511882888     1.007825032230
         H            1.415646730704    -0.915744518961    -1.428422117112     1.007825032230
         H            2.583853730704    -1.030823518961    -0.093480117112     1.007825032230
         H            1.164073730704    -2.102729518961    -0.128857117112     1.007825032230
         H            0.383692730704     1.695791481039    -0.153440117112     1.007825032230

  Basis Set: AUG-CC-PVTZ
    Blend: AUG-CC-PVTZ
  Basis Set: (AUG-CC-PVTZ AUX)
    Blend: AUG-CC-PVTZ-JKFIT
	 Reference Energy          =    -341.2114518331134718 [Eh]
	 Singles Energy            =      -0.0000000000000000 [Eh]
	 Same-Spin Energy          =      -0.3349859334482589 [Eh]
	 Opposite-Spin Energy      =      -1.0163529301302450 [Eh]
	 Correlation Energy        =      -1.3513388635785040 [Eh]
	 Total Energy              =    -342.5627906966919909 [Eh]

	 ================> DF-SCS-MP2 Energies <==================
	-----------------------------------------------------------
	 SCS Same-Spin Scale       =       0.3333333333333333 [-]
	 SCS Opposite-Spin Scale   =       1.2000000000000000 [-]
	 SCS Same-Spin Energy      =      -0.1116619778160863 [Eh]
	 SCS Opposite-Spin Energy  =      -1.2196235161562938 [Eh]
	 SCS Correlation Energy    =      -1.3312854939723802 [Eh]
	 SCS Total Energy          =    -342.5427373270858311 [Eh]
	-----------------------------------------------------------

  Dipole Moment: [D]
     X:     3.4623      Y:     1.4862      Z:    -0.1654     Total:     3.7714

*** Psi4 exiting successfully. Buy a developer a beer!
