                               Psi4 1.3.2 release

  ==> Input File <==

--------------------------------------------------------------------------
#psi4
#
memory 32 gb

molecule  {
-1 1
  O        1.1709107     1.2798729     0.1126629
  O       -1.4424670    -1.1799650     0.1827610
  O       -1.3575130     1.0293890    -0.3577040
  C        0.6396440    -0.0155260     0.4104950
  C        1.4758838    -1.0077540    -0.3790118
  C       -0.8609500    -0.0719650     0.0469300
  H        0.7165270    -0.2335850     1.4896730
  H        1.3388480    -0.8658950    -1.4332610
  H        2.5070550    -0.9809740    -0.0983190
  H        1.0872750    -2.0528800    -0.1336960
  H        0.3068940     1.7456410    -0.1582790
units angstrom
no_reorient  #important for SAPT in psi4, default
symmetry c1  #important for SAPT in psi4, default
}

set PROPERTIES_ORIGIN ["COM"]
properties('MP2/aug-cc-pvtz', properties = ['dipole'])
--------------------------------------------------------------------------

    Molecular point group: c1
  Charge       = -1
  Multiplicity = 1
  Basis Set: AUG-CC-PVTZ
    Blend: AUG-CC-PVTZ
  Basis Set: (AUG-CC-PVTZ AUX)
    Blend: AUG-CC-PVTZ-JKFIT

    Orbital Energies [Eh]
    ---------------------

    Doubly Occupied:

       1A    -20.382560     2A    -20.320081     3A    -20.311397
       4A    -11.154211     5A    -11.116017     6A    -11.070364
       7A     -1.202024     8A     -1.161974     9A     -1.084645
      10A     -0.858701    11A     -0.701581    12A     -0.563205
      13A     -0.499107    14A     -0.478878    15A     -0.437326
      16A     -0.404470    17A     -0.399014    18A     -0.370032
      19A     -0.362338    20A     -0.347854    21A     -0.277460
      22A     -0.235147    23A     -0.216574    24A     -0.214579

  @DF-RHF Final Energy:  -341.27354264282991

   => Energetics <=

    Nuclear Repulsion Energy =            238.7590647472837304
    One-Electron Energy =                -951.7261395836095517
    Two-Electron Energy =                 371.6935321934958552
    Total Energy =                       -341.2735426428299093
  Basis Set: (AUG-CC-PVTZ AUX)
    Blend: AUG-CC-PVTZ-RI
    Molecular point group: c1

    Geometry (in Angstrom), charge = -1, multiplicity = 1:

       Center              X                  Y                   Z               Mass
    ------------   -----------------  -----------------  -----------------  -----------------
         O            1.227060598210     1.251636756720     0.117062856143    15.994914619570
         O           -1.386317101790    -1.208201143280     0.187160956143    15.994914619570
         O           -1.301363101790     1.001152856720    -0.353304043857    15.994914619570
         C            0.695793898210    -0.043762143280     0.414894956143    12.000000000000
         C            1.532033698210    -1.035990143280    -0.374611843857    12.000000000000
         C           -0.804800101790    -0.100201143280     0.051329956143    12.000000000000
         H            0.772676898210    -0.261821143280     1.494072956143     1.007825032230
         H            1.394997898210    -0.894131143280    -1.428861043857     1.007825032230
         H            2.563204898210    -1.009210143280    -0.093919043857     1.007825032230
         H            1.143424898210    -2.081116143280    -0.129296043857     1.007825032230
         H            0.363043898210     1.717404856720    -0.153879043857     1.007825032230

  Basis Set: AUG-CC-PVTZ
    Blend: AUG-CC-PVTZ
  Basis Set: (AUG-CC-PVTZ AUX)
    Blend: AUG-CC-PVTZ-JKFIT
	 Reference Energy          =    -341.2735426428299093 [Eh]
	 Singles Energy            =      -0.0000000000000000 [Eh]
	 Same-Spin Energy          =      -0.3371449254883577 [Eh]
	 Opposite-Spin Energy      =      -1.0204299523242715 [Eh]
	 Correlation Energy        =      -1.3575748778126293 [Eh]
	 Total Energy              =    -342.6311175206425332 [Eh]

	 ================> DF-SCS-MP2 Energies <==================
	-----------------------------------------------------------
	 SCS Same-Spin Scale       =       0.3333333333333333 [-]
	 SCS Opposite-Spin Scale   =       1.2000000000000000 [-]
	 SCS Same-Spin Energy      =      -0.1123816418294526 [Eh]
	 SCS Opposite-Spin Energy  =      -1.2245159427891257 [Eh]
	 SCS Correlation Energy    =      -1.3368975846185782 [Eh]
	 SCS Total Energy          =    -342.6104402274484642 [Eh]
	-----------------------------------------------------------

  Dipole Moment: [D]
     X:     3.7370      Y:    -0.3986      Z:     0.3913     Total:     3.7785

*** Psi4 exiting successfully. Buy a developer a beer!
