                               Psi4 1.3.2 release

  ==> Input File <==

--------------------------------------------------------------------------
#psi4
#
memory 32 gb

molecule  {
-1 1
  O        1.1365690     1.2999450     0.1428980
  O       -1.4424670    -1.1799650     0.1827610
  O       -1.3575130     1.0293890    -0.3577040
  C        0.6396440    -0.0155260     0.4104950
  C        1.4464200    -1.0470520    -0.3590510
  C       -0.8219758    -0.1584080     0.0786889
  H        0.7165270    -0.2335850     1.4896730
  H        1.3388480    -0.8658950    -1.4332610
  H        2.5070550    -0.9809740    -0.0983190
  H        1.0872750    -2.0528800    -0.1336960
  H        0.3068940     1.7456410    -0.1582790
units angstrom
no_reorient  #important for SAPT in psi4, default
symmetry c1  #important for SAPT in psi4, default
}

set PROPERTIES_ORIGIN ["COM"]
properties('MP2/aug-cc-pvtz', properties = ['dipole'])
--------------------------------------------------------------------------

    Molecular point group: c1
  Charge       = -1
  Multiplicity = 1
  Basis Set: AUG-CC-PVTZ
    Blend: AUG-CC-PVTZ
  Basis Set: (AUG-CC-PVTZ AUX)
    Blend: AUG-CC-PVTZ-JKFIT

    Orbital Energies [Eh]
    ---------------------

    Doubly Occupied:

       1A    -20.381639     2A    -20.329586     3A    -20.295923
       4A    -11.153125     5A    -11.120018     6A    -11.075827
       7A     -1.209663     8A     -1.179176     9A     -1.044616
      10A     -0.871256    11A     -0.712708    12A     -0.569441
      13A     -0.499560    14A     -0.483167    15A     -0.437905
      16A     -0.407805    17A     -0.395554    18A     -0.376811
      19A     -0.371571    20A     -0.351145    21A     -0.278971
      22A     -0.219751    23A     -0.216131    24A     -0.204597

  @DF-RHF Final Energy:  -341.26377594686880

   => Energetics <=

    Nuclear Repulsion Energy =            239.0004483228215122
    One-Electron Energy =                -952.1565559776616965
    Two-Electron Energy =                 371.8923317079713797
    Total Energy =                       -341.2637759468688046
  Basis Set: (AUG-CC-PVTZ AUX)
    Blend: AUG-CC-PVTZ-RI
    Molecular point group: c1

    Geometry (in Angstrom), charge = -1, multiplicity = 1:

       Center              X                  Y                   Z               Mass
    ------------   -----------------  -----------------  -----------------  -----------------
         O            1.197607112620     1.285051800442     0.134894044078    15.994914619570
         O           -1.381428887380    -1.194858199558     0.174757044078    15.994914619570
         O           -1.296474887380     1.014495800442    -0.365707955922    15.994914619570
         C            0.700682112620    -0.030419199558     0.402491044078    12.000000000000
         C            1.507458112620    -1.061945199558    -0.367054955922    12.000000000000
         C           -0.760937687380    -0.173301199558     0.070684944078    12.000000000000
         H            0.777565112620    -0.248478199558     1.481669044078     1.007825032230
         H            1.399886112620    -0.880788199558    -1.441264955922     1.007825032230
         H            2.568093112620    -0.995867199558    -0.106322955922     1.007825032230
         H            1.148313112620    -2.067773199558    -0.141699955922     1.007825032230
         H            0.367932112620     1.730747800442    -0.166282955922     1.007825032230

  Basis Set: AUG-CC-PVTZ
    Blend: AUG-CC-PVTZ
  Basis Set: (AUG-CC-PVTZ AUX)
    Blend: AUG-CC-PVTZ-JKFIT
	 Reference Energy          =    -341.2637759468688046 [Eh]
	 Singles Energy            =      -0.0000000000000000 [Eh]
	 Same-Spin Energy          =      -0.3373654307977111 [Eh]
	 Opposite-Spin Energy      =      -1.0209678263631625 [Eh]
	 Correlation Energy        =      -1.3583332571608735 [Eh]
	 Total Energy              =    -342.6221092040296980 [Eh]

	 ================> DF-SCS-MP2 Energies <==================
	-----------------------------------------------------------
	 SCS Same-Spin Scale       =       0.3333333333333333 [-]
	 SCS Opposite-Spin Scale   =       1.2000000000000000 [-]
	 SCS Same-Spin Energy      =      -0.1124551435992370 [Eh]
	 SCS Opposite-Spin Energy  =      -1.2251613916357951 [Eh]
	 SCS Correlation Energy    =      -1.3376165352350320 [Eh]
	 SCS Total Energy          =    -342.6013924821038472 [Eh]
	-----------------------------------------------------------

  Dipole Moment: [D]
     X:     3.9785      Y:    -1.3887      Z:     0.6332     Total:     4.2612

*** Psi4 exiting successfully. Buy a developer a beer!
