                               Psi4 1.3.2 release

  ==> Input File <==

--------------------------------------------------------------------------
#psi4
#
memory 32 gb

molecule  {
-1 1
  O        1.1365690     1.2999450     0.1428980
  O       -1.4424670    -1.1799650     0.1827610
  O       -1.3575130     1.0293890    -0.3577040
  C        0.6396440    -0.0155260     0.4104950
  C        1.4995349    -1.1149636    -0.4097148
  C       -0.8609500    -0.0719650     0.0469300
  H        0.7165270    -0.2335850     1.4896730
  H        1.3388480    -0.8658950    -1.4332610
  H        2.5070550    -0.9809740    -0.0983190
  H        1.0872750    -2.0528800    -0.1336960
  H        0.3068940     1.7456410    -0.1582790
units angstrom
no_reorient  #important for SAPT in psi4, default
symmetry c1  #important for SAPT in psi4, default
}

set PROPERTIES_ORIGIN ["COM"]
properties('MP2/aug-cc-pvtz', properties = ['dipole'])
--------------------------------------------------------------------------

    Molecular point group: c1
  Charge       = -1
  Multiplicity = 1
  Basis Set: AUG-CC-PVTZ
    Blend: AUG-CC-PVTZ
  Basis Set: (AUG-CC-PVTZ AUX)
    Blend: AUG-CC-PVTZ-JKFIT

    Orbital Energies [Eh]
    ---------------------

    Doubly Occupied:

       1A    -20.382454     2A    -20.317781     3A    -20.310043
       4A    -11.152483     5A    -11.121295     6A    -11.068888
       7A     -1.203309     8A     -1.163108     9A     -1.082886
      10A     -0.849474    11A     -0.706990    12A     -0.563400
      13A     -0.499040    14A     -0.474933    15A     -0.435145
      16A     -0.415409    17A     -0.402268    18A     -0.376575
      19A     -0.365977    20A     -0.349343    21A     -0.267295
      22A     -0.234050    23A     -0.214924    24A     -0.213261

  @DF-RHF Final Energy:  -341.27257130946998

   => Energetics <=

    Nuclear Repulsion Energy =            237.4088390870307421
    One-Electron Energy =                -949.0221596994837228
    Two-Electron Energy =                 370.3407493029829993
    Total Energy =                       -341.2725713094699813
  Basis Set: (AUG-CC-PVTZ AUX)
    Blend: AUG-CC-PVTZ-RI
    Molecular point group: c1

    Geometry (in Angstrom), charge = -1, multiplicity = 1:

       Center              X                  Y                   Z               Mass
    ------------   -----------------  -----------------  -----------------  -----------------
         O            1.195701012583     1.282553854639     0.146004237456    15.994914619570
         O           -1.383334987417    -1.197356145361     0.185867237456    15.994914619570
         O           -1.298380987417     1.011997854639    -0.354597762544    15.994914619570
         C            0.698776012583    -0.032917145361     0.413601237456    12.000000000000
         C            1.558666912583    -1.132354745361    -0.406608562544    12.000000000000
         C           -0.801817987417    -0.089356145361     0.050036237456    12.000000000000
         H            0.775659012583    -0.250976145361     1.492779237456     1.007825032230
         H            1.397980012583    -0.883286145361    -1.430154762544     1.007825032230
         H            2.566187012583    -0.998365145361    -0.095212762544     1.007825032230
         H            1.146407012583    -2.070271145361    -0.130589762544     1.007825032230
         H            0.366026012583     1.728249854639    -0.155172762544     1.007825032230

  Basis Set: AUG-CC-PVTZ
    Blend: AUG-CC-PVTZ
  Basis Set: (AUG-CC-PVTZ AUX)
    Blend: AUG-CC-PVTZ-JKFIT
	 Reference Energy          =    -341.2725713094699813 [Eh]
	 Singles Energy            =      -0.0000000000000000 [Eh]
	 Same-Spin Energy          =      -0.3362915077223507 [Eh]
	 Opposite-Spin Energy      =      -1.0191408254506675 [Eh]
	 Correlation Energy        =      -1.3554323331730183 [Eh]
	 Total Energy              =    -342.6280036426430229 [Eh]

	 ================> DF-SCS-MP2 Energies <==================
	-----------------------------------------------------------
	 SCS Same-Spin Scale       =       0.3333333333333333 [-]
	 SCS Opposite-Spin Scale   =       1.2000000000000000 [-]
	 SCS Same-Spin Energy      =      -0.1120971692407836 [Eh]
	 SCS Opposite-Spin Energy  =      -1.2229689905408010 [Eh]
	 SCS Correlation Energy    =      -1.3350661597815845 [Eh]
	 SCS Total Energy          =    -342.6076374692515856 [Eh]
	-----------------------------------------------------------

  Dipole Moment: [D]
     X:     3.8083      Y:    -0.4328      Z:     0.3816     Total:     3.8518

*** Psi4 exiting successfully. Buy a developer a beer!
