                               Psi4 1.3.2 release

  ==> Input File <==

--------------------------------------------------------------------------
#psi4
#
memory 32 gb

molecule  {
-1 1
  O        1.1365690     1.2999450     0.1428980
  O       -1.4424670    -1.1799650     0.1827610
  O       -1.3575130     1.0293890    -0.3577040
  C        0.6246823     0.0058434     0.3643389
  C        1.4464200    -1.0470520    -0.3590510
  C       -0.8609500    -0.0719650     0.0469300
  H        0.7165270    -0.2335850     1.4896730
  H        1.3160729    -0.8362649    -1.4253039
  H        2.5070550    -0.9809740    -0.0983190
  H        1.0872750    -2.0528800    -0.1336960
  H        0.3068940     1.7456410    -0.1582790
units angstrom
no_reorient  #important for SAPT in psi4, default
symmetry c1  #important for SAPT in psi4, default
}

set PROPERTIES_ORIGIN ["COM"]
properties('MP2/aug-cc-pvtz', properties = ['dipole'])
--------------------------------------------------------------------------

    Molecular point group: c1
  Charge       = -1
  Multiplicity = 1
  Basis Set: AUG-CC-PVTZ
    Blend: AUG-CC-PVTZ
  Basis Set: (AUG-CC-PVTZ AUX)
    Blend: AUG-CC-PVTZ-JKFIT

    Orbital Energies [Eh]
    ---------------------

    Doubly Occupied:

       1A    -20.385723     2A    -20.317804     3A    -20.310497
       4A    -11.152009     5A    -11.118545     6A    -11.071926
       7A     -1.211939     8A     -1.168349     9A     -1.083836
      10A     -0.862113    11A     -0.701704    12A     -0.570442
      13A     -0.498146    14A     -0.480247    15A     -0.441355
      16A     -0.404954    17A     -0.397098    18A     -0.377652
      19A     -0.368063    20A     -0.349838    21A     -0.270786
      22A     -0.234203    23A     -0.218004    24A     -0.213686

  @DF-RHF Final Energy:  -341.27649053487033

   => Energetics <=

    Nuclear Repulsion Energy =            239.6012808950957833
    One-Electron Energy =                -953.3377009271102906
    Two-Electron Energy =                 372.4599294971441736
    Total Energy =                       -341.2764905348703337
  Basis Set: (AUG-CC-PVTZ AUX)
    Blend: AUG-CC-PVTZ-RI
    Molecular point group: c1

    Geometry (in Angstrom), charge = -1, multiplicity = 1:

       Center              X                  Y                   Z               Mass
    ------------   -----------------  -----------------  -----------------  -----------------
         O            1.205135252244     1.270183756950     0.145306539577    15.994914619570
         O           -1.373900747756    -1.209726243050     0.185169539577    15.994914619570
         O           -1.288946747756     0.999627756950    -0.355295460423    15.994914619570
         C            0.693248552244    -0.023917843050     0.366747439577    12.000000000000
         C            1.514986252244    -1.076813243050    -0.356642460423    12.000000000000
         C           -0.792383747756    -0.101726243050     0.049338539577    12.000000000000
         H            0.785093252244    -0.263346243050     1.492081539577     1.007825032230
         H            1.384639152244    -0.866026143050    -1.422895360423     1.007825032230
         H            2.575621252244    -1.010735243050    -0.095910460423     1.007825032230
         H            1.155841252244    -2.082641243050    -0.131287460423     1.007825032230
         H            0.375460252244     1.715879756950    -0.155870460423     1.007825032230

  Basis Set: AUG-CC-PVTZ
    Blend: AUG-CC-PVTZ
  Basis Set: (AUG-CC-PVTZ AUX)
    Blend: AUG-CC-PVTZ-JKFIT
	 Reference Energy          =    -341.2764905348703337 [Eh]
	 Singles Energy            =      -0.0000000000000000 [Eh]
	 Same-Spin Energy          =      -0.3367283279036299 [Eh]
	 Opposite-Spin Energy      =      -1.0191588419402100 [Eh]
	 Correlation Energy        =      -1.3558871698438399 [Eh]
	 Total Energy              =    -342.6323777047142016 [Eh]

	 ================> DF-SCS-MP2 Energies <==================
	-----------------------------------------------------------
	 SCS Same-Spin Scale       =       0.3333333333333333 [-]
	 SCS Opposite-Spin Scale   =       1.2000000000000000 [-]
	 SCS Same-Spin Energy      =      -0.1122427759678766 [Eh]
	 SCS Opposite-Spin Energy  =      -1.2229906103282520 [Eh]
	 SCS Correlation Energy    =      -1.3352333862961285 [Eh]
	 SCS Total Energy          =    -342.6117239211664582 [Eh]
	-----------------------------------------------------------

  Dipole Moment: [D]
     X:     3.8202      Y:    -0.3718      Z:     0.2698     Total:     3.8477

*** Psi4 exiting successfully. Buy a developer a beer!
