                               Psi4 1.4a3.dev225

  ==> Input File <==

--------------------------------------------------------------------------
#psi4
#
memory 32 gb

molecule  {
-1 1
  O       -1.1681810     1.2683390    -0.1935740
  O        1.4902400    -1.1295240    -0.2243730
  O        1.3027740     1.0522020     0.4123420
  C       -0.6589036     0.0052529    -0.4105454
  C       -1.4092810    -1.0711850     0.3952000
  C        0.8630350    -0.0522610    -0.0492080
  H       -0.7260590    -0.2876370    -1.4879020
  H       -1.3060210    -0.8470660     1.4617500
  H       -2.4733650    -1.0522610     0.1409170
  H       -1.0158520    -2.0724200     0.2054930
  H       -0.3572580     1.7151740     0.1591030
units angstrom
no_reorient  #important for SAPT in psi4, default
symmetry c1  #important for SAPT in psi4, default
}

set PROPERTIES_ORIGIN ["COM"]
properties('MP2/aug-cc-pvtz', properties = ['dipole'])
--------------------------------------------------------------------------

    Molecular point group: c1
  Charge       = -1
  Multiplicity = 1
  Basis Set: AUG-CC-PVTZ
    Blend: AUG-CC-PVTZ
  Basis Set: (AUG-CC-PVTZ AUX)
    Blend: AUG-CC-PVTZ-JKFIT

    Orbital Energies [Eh]
    ---------------------

    Doubly Occupied:

       1A    -20.386366     2A    -20.318761     3A    -20.311701
       4A    -11.153321     5A    -11.116252     6A    -11.070611
       7A     -1.218196     8A     -1.170787     9A     -1.084060
      10A     -0.854292    11A     -0.696008    12A     -0.574079
      13A     -0.500134    14A     -0.480797    15A     -0.439436
      16A     -0.407507    17A     -0.400759    18A     -0.380067
      19A     -0.362226    20A     -0.351666    21A     -0.272477
      22A     -0.234452    23A     -0.214656    24A     -0.211973

  @DF-RHF Final Energy:  -341.27835673299904

   => Energetics <=

    Nuclear Repulsion Energy =            239.1751846682490452
    One-Electron Energy =                -952.4859164265003528
    Two-Electron Energy =                 372.0323750252522927
    Total Energy =                       -341.2783567329990433
  Basis Set: (AUG-CC-PVTZ AUX)
    Blend: AUG-CC-PVTZ-RI
    Molecular point group: c1

    Geometry (in Angstrom), charge = -1, multiplicity = 1:

       Center              X                  Y                   Z               Mass
    ------------   -----------------  -----------------  -----------------  -----------------
         O           -1.231115975590     1.233878809334    -0.189292223827    15.994914619570
         O            1.427305024410    -1.163984190666    -0.220091223827    15.994914619570
         O            1.239839024410     1.017741809334     0.416623776173    15.994914619570
         C           -0.721838575590    -0.029207290666    -0.406263623827    12.000000000000
         C           -1.472215975590    -1.105645190666     0.399481776173    12.000000000000
         C            0.800100024410    -0.086721190666    -0.044926223827    12.000000000000
         H           -0.788993975590    -0.322097190666    -1.483620223827     1.007825032230
         H           -1.368955975590    -0.881526190666     1.466031776173     1.007825032230
         H           -2.536299975590    -1.086721190666     0.145198776173     1.007825032230
         H           -1.078786975590    -2.106880190666     0.209774776173     1.007825032230
         H           -0.420192975590     1.680713809334     0.163384776173     1.007825032230

  Basis Set: AUG-CC-PVTZ
    Blend: AUG-CC-PVTZ
  Basis Set: (AUG-CC-PVTZ AUX)
    Blend: AUG-CC-PVTZ-JKFIT
	 Reference Energy          =    -341.2783567329990433 [Eh]
	 Singles Energy            =      -0.0000000000000000 [Eh]
	 Same-Spin Energy          =      -0.3366211801901342 [Eh]
	 Opposite-Spin Energy      =      -1.0185550558209626 [Eh]
	 Correlation Energy        =      -1.3551762360110968 [Eh]
	 Total Energy              =    -342.6335329690101617 [Eh]

	 ================> DF-SCS-MP2 Energies <==================
	-----------------------------------------------------------
	 SCS Same-Spin Scale       =       0.3333333333333333 [-]
	 SCS Opposite-Spin Scale   =       1.2000000000000000 [-]
	 SCS Same-Spin Energy      =      -0.1122070600633781 [Eh]
	 SCS Opposite-Spin Energy  =      -1.2222660669851551 [Eh]
	 SCS Correlation Energy    =      -1.3344731270485330 [Eh]
	 SCS Total Energy          =    -342.6128298600475546 [Eh]
	-----------------------------------------------------------

  Dipole Moment: [D]
     X:    -3.7667      Y:    -0.3999      Z:    -0.2707     Total:     3.7975

*** Psi4 exiting successfully. Buy a developer a beer!
