                               Psi4 1.3.2 release

  ==> Input File <==

--------------------------------------------------------------------------
#psi4
#
memory 32 gb

molecule  {
-1 1
  O        1.1365690     1.2999450     0.1428980
  O       -1.4424670    -1.1799650     0.1827610
  O       -1.3575130     1.0293890    -0.3577040
  C        0.6396440    -0.0155260     0.4104950
  C        1.4464200    -1.0470520    -0.3590510
  C       -0.7830016    -0.2448509     0.1104477
  H        0.7165270    -0.2335850     1.4896730
  H        1.3388480    -0.8658950    -1.4332610
  H        2.5070550    -0.9809740    -0.0983190
  H        1.0872750    -2.0528800    -0.1336960
  H        0.3068940     1.7456410    -0.1582790
units angstrom
no_reorient  #important for SAPT in psi4, default
symmetry c1  #important for SAPT in psi4, default
}

set PROPERTIES_ORIGIN ["COM"]
properties('MP2/aug-cc-pvtz', properties = ['dipole'])
--------------------------------------------------------------------------

    Molecular point group: c1
  Charge       = -1
  Multiplicity = 1
  Basis Set: AUG-CC-PVTZ
    Blend: AUG-CC-PVTZ
  Basis Set: (AUG-CC-PVTZ AUX)
    Blend: AUG-CC-PVTZ-JKFIT

    Orbital Energies [Eh]
    ---------------------

    Doubly Occupied:

       1A    -20.382095     2A    -20.348382     3A    -20.275069
       4A    -11.153070     5A    -11.124310     6A    -11.079710
       7A     -1.246608     8A     -1.184541     9A     -0.996822
      10A     -0.881437    11A     -0.723707    12A     -0.573438
      13A     -0.507370    14A     -0.493842    15A     -0.442166
      16A     -0.410599    17A     -0.401201    18A     -0.382424
      19A     -0.378407    20A     -0.364052    21A     -0.280689
      22A     -0.205445    23A     -0.194463    24A     -0.186574

  @DF-RHF Final Energy:  -341.22661543977722

   => Energetics <=

    Nuclear Repulsion Energy =            239.1886265197208843
    One-Electron Energy =                -952.3976414088268712
    Two-Electron Energy =                 371.9823994493287955
    Total Energy =                       -341.2266154397772198
  Basis Set: (AUG-CC-PVTZ AUX)
    Blend: AUG-CC-PVTZ-RI
    Molecular point group: c1

    Geometry (in Angstrom), charge = -1, multiplicity = 1:

       Center              X                  Y                   Z               Mass
    ------------   -----------------  -----------------  -----------------  -----------------
         O            1.192353573259     1.296703897924     0.130613106795    15.994914619570
         O           -1.386682426741    -1.183206102076     0.170476106795    15.994914619570
         O           -1.301728426741     1.026147897924    -0.369988893205    15.994914619570
         C            0.695428573259    -0.018767102076     0.398210106795    12.000000000000
         C            1.502204573259    -1.050293102076    -0.371335893205    12.000000000000
         C           -0.727217026741    -0.248092002076     0.098162806795    12.000000000000
         H            0.772311573259    -0.236826102076     1.477388106795     1.007825032230
         H            1.394632573259    -0.869136102076    -1.445545893205     1.007825032230
         H            2.562839573259    -0.984215102076    -0.110603893205     1.007825032230
         H            1.143059573259    -2.056121102076    -0.145980893205     1.007825032230
         H            0.362678573259     1.742399897924    -0.170563893205     1.007825032230

  Basis Set: AUG-CC-PVTZ
    Blend: AUG-CC-PVTZ
  Basis Set: (AUG-CC-PVTZ AUX)
    Blend: AUG-CC-PVTZ-JKFIT
	 Reference Energy          =    -341.2266154397772198 [Eh]
	 Singles Energy            =      -0.0000000000000000 [Eh]
	 Same-Spin Energy          =      -0.3385880869437949 [Eh]
	 Opposite-Spin Energy      =      -1.0237448842243062 [Eh]
	 Correlation Energy        =      -1.3623329711681011 [Eh]
	 Total Energy              =    -342.5889484109453065 [Eh]

	 ================> DF-SCS-MP2 Energies <==================
	-----------------------------------------------------------
	 SCS Same-Spin Scale       =       0.3333333333333333 [-]
	 SCS Opposite-Spin Scale   =       1.2000000000000000 [-]
	 SCS Same-Spin Energy      =      -0.1128626956479316 [Eh]
	 SCS Opposite-Spin Energy  =      -1.2284938610691674 [Eh]
	 SCS Correlation Energy    =      -1.3413565567170991 [Eh]
	 SCS Total Energy          =    -342.5679719964942933 [Eh]
	-----------------------------------------------------------

  Dipole Moment: [D]
     X:     4.1946      Y:    -2.3040      Z:     0.8967     Total:     4.8690

*** Psi4 exiting successfully. Buy a developer a beer!
