                               Psi4 1.3.2 release

  ==> Input File <==

--------------------------------------------------------------------------
#psi4
#
memory 32 gb

molecule  {
-1 1
  O        1.0678931     1.3190483     0.1197707
  O       -1.4424670    -1.1799650     0.1827610
  O       -1.3575130     1.0293890    -0.3577040
  C        0.6396440    -0.0155260     0.4104950
  C        1.4464200    -1.0470520    -0.3590510
  C       -0.8563434     0.0057171     0.0248557
  H        0.7165270    -0.2335850     1.4896730
  H        1.3388480    -0.8658950    -1.4332610
  H        2.5070550    -0.9809740    -0.0983190
  H        1.0872750    -2.0528800    -0.1336960
  H        0.3068940     1.7456410    -0.1582790
units angstrom
no_reorient  #important for SAPT in psi4, default
symmetry c1  #important for SAPT in psi4, default
}

set PROPERTIES_ORIGIN ["COM"]
properties('MP2/aug-cc-pvtz', properties = ['dipole'])
--------------------------------------------------------------------------

    Molecular point group: c1
  Charge       = -1
  Multiplicity = 1
  Basis Set: AUG-CC-PVTZ
    Blend: AUG-CC-PVTZ
  Basis Set: (AUG-CC-PVTZ AUX)
    Blend: AUG-CC-PVTZ-JKFIT

    Orbital Energies [Eh]
    ---------------------

    Doubly Occupied:

       1A    -20.377306     2A    -20.332302     3A    -20.288889
       4A    -11.148427     5A    -11.118396     6A    -11.073039
       7A     -1.230595     8A     -1.179419     9A     -1.057988
      10A     -0.864151    11A     -0.704143    12A     -0.578674
      13A     -0.512659    14A     -0.481806    15A     -0.438484
      16A     -0.410120    17A     -0.400484    18A     -0.375548
      19A     -0.363327    20A     -0.354456    21A     -0.285883
      22A     -0.232468    23A     -0.201996    24A     -0.201804

  @DF-RHF Final Energy:  -341.26737111092609

   => Energetics <=

    Nuclear Repulsion Energy =            240.0405157256762720
    One-Electron Energy =                -954.1910427142009894
    Two-Electron Energy =                 372.8831558775985968
    Total Energy =                       -341.2673711109260921
  Basis Set: (AUG-CC-PVTZ AUX)
    Blend: AUG-CC-PVTZ-RI
    Molecular point group: c1

    Geometry (in Angstrom), charge = -1, multiplicity = 1:

       Center              X                  Y                   Z               Mass
    ------------   -----------------  -----------------  -----------------  -----------------
         O            1.145902799831     1.278599517681     0.123178487918    15.994914619570
         O           -1.364457300169    -1.220413782319     0.186168787918    15.994914619570
         O           -1.279503300169     0.988940217681    -0.354296212082    15.994914619570
         C            0.717653699831    -0.055974782319     0.413902787918    12.000000000000
         C            1.524429699831    -1.087500782319    -0.355643212082    12.000000000000
         C           -0.778333700169    -0.034731682319     0.028263487918    12.000000000000
         H            0.794536699831    -0.274033782319     1.493080787918     1.007825032230
         H            1.416857699831    -0.906343782319    -1.429853212082     1.007825032230
         H            2.585064699831    -1.021422782319    -0.094911212082     1.007825032230
         H            1.165284699831    -2.093328782319    -0.130288212082     1.007825032230
         H            0.384903699831     1.705192217681    -0.154871212082     1.007825032230

  Basis Set: AUG-CC-PVTZ
    Blend: AUG-CC-PVTZ
  Basis Set: (AUG-CC-PVTZ AUX)
    Blend: AUG-CC-PVTZ-JKFIT
	 Reference Energy          =    -341.2673711109260921 [Eh]
	 Singles Energy            =      -0.0000000000000000 [Eh]
	 Same-Spin Energy          =      -0.3351871389423440 [Eh]
	 Opposite-Spin Energy      =      -1.0165143746267022 [Eh]
	 Correlation Energy        =      -1.3517015135690462 [Eh]
	 Total Energy              =    -342.6190726244951179 [Eh]

	 ================> DF-SCS-MP2 Energies <==================
	-----------------------------------------------------------
	 SCS Same-Spin Scale       =       0.3333333333333333 [-]
	 SCS Opposite-Spin Scale   =       1.2000000000000000 [-]
	 SCS Same-Spin Energy      =      -0.1117290463141147 [Eh]
	 SCS Opposite-Spin Energy  =      -1.2198172495520427 [Eh]
	 SCS Correlation Energy    =      -1.3315462958661575 [Eh]
	 SCS Total Energy          =    -342.5989174067922249 [Eh]
	-----------------------------------------------------------

  Dipole Moment: [D]
     X:     4.0508      Y:     0.3399      Z:     0.2145     Total:     4.0707

*** Psi4 exiting successfully. Buy a developer a beer!
