                               Psi4 1.3.2 release

  ==> Input File <==

--------------------------------------------------------------------------
#psi4
#
memory 32 gb

molecule  {
-1 1
  O        1.1365690     1.2999450     0.1428980
  O       -1.4424670    -1.1799650     0.1827610
  O       -1.3673880     1.0244295    -0.3589318
  C        0.6392922    -0.0286109     0.4137281
  C        1.4464200    -1.0470520    -0.3590510
  C       -0.8609500    -0.0719650     0.0469300
  H        0.7165270    -0.2335850     1.4896730
  H        1.3388480    -0.8658950    -1.4332610
  H        2.5070550    -0.9809740    -0.0983190
  H        1.0872750    -2.0528800    -0.1336960
  H        0.3068940     1.7456410    -0.1582790
units angstrom
no_reorient  #important for SAPT in psi4, default
symmetry c1  #important for SAPT in psi4, default
}

set PROPERTIES_ORIGIN ["COM"]
properties('MP2/aug-cc-pvtz', properties = ['dipole'])
--------------------------------------------------------------------------

    Molecular point group: c1
  Charge       = -1
  Multiplicity = 1
  Basis Set: AUG-CC-PVTZ
    Blend: AUG-CC-PVTZ
  Basis Set: (AUG-CC-PVTZ AUX)
    Blend: AUG-CC-PVTZ-JKFIT

    Orbital Energies [Eh]
    ---------------------

    Doubly Occupied:

       1A    -20.380935     2A    -20.317636     3A    -20.309480
       4A    -11.152493     5A    -11.116876     6A    -11.072571
       7A     -1.201529     8A     -1.161378     9A     -1.082251
      10A     -0.864450    11A     -0.701946    12A     -0.565316
      13A     -0.499721    14A     -0.477013    15A     -0.436209
      16A     -0.404436    17A     -0.400832    18A     -0.370075
      19A     -0.366677    20A     -0.348985    21A     -0.281346
      22A     -0.233152    23A     -0.215159    24A     -0.212771

  @DF-RHF Final Energy:  -341.27919897796289

   => Energetics <=

    Nuclear Repulsion Energy =            238.7888180394146218
    One-Electron Energy =                -951.7895636641360397
    Two-Electron Energy =                 371.7215466467584974
    Total Energy =                       -341.2791989779628921
  Basis Set: (AUG-CC-PVTZ AUX)
    Blend: AUG-CC-PVTZ-RI
    Molecular point group: c1

    Geometry (in Angstrom), charge = -1, multiplicity = 1:

       Center              X                  Y                   Z               Mass
    ------------   -----------------  -----------------  -----------------  -----------------
         O            1.204682313786     1.276054545776     0.138959786897    15.994914619570
         O           -1.374353686214    -1.203855454224     0.178822786897    15.994914619570
         O           -1.299274686214     1.000539045776    -0.362870013103    15.994914619570
         C            0.707405513786    -0.052501354224     0.409789886897    12.000000000000
         C            1.514533313786    -1.070942454224    -0.362989213103    12.000000000000
         C           -0.792836686214    -0.095855454224     0.042991786897    12.000000000000
         H            0.784640313786    -0.257475454224     1.485734786897     1.007825032230
         H            1.406961313786    -0.889785454224    -1.437199213103     1.007825032230
         H            2.575168313786    -1.004864454224    -0.102257213103     1.007825032230
         H            1.155388313786    -2.076770454224    -0.137634213103     1.007825032230
         H            0.375007313786     1.721750545776    -0.162217213103     1.007825032230

  Basis Set: AUG-CC-PVTZ
    Blend: AUG-CC-PVTZ
  Basis Set: (AUG-CC-PVTZ AUX)
    Blend: AUG-CC-PVTZ-JKFIT
	 Reference Energy          =    -341.2791989779628921 [Eh]
	 Singles Energy            =      -0.0000000000000000 [Eh]
	 Same-Spin Energy          =      -0.3364613147793358 [Eh]
	 Opposite-Spin Energy      =      -1.0191949464150714 [Eh]
	 Correlation Energy        =      -1.3556562611944072 [Eh]
	 Total Energy              =    -342.6348552391572753 [Eh]

	 ================> DF-SCS-MP2 Energies <==================
	-----------------------------------------------------------
	 SCS Same-Spin Scale       =       0.3333333333333333 [-]
	 SCS Opposite-Spin Scale   =       1.2000000000000000 [-]
	 SCS Same-Spin Energy      =      -0.1121537715931119 [Eh]
	 SCS Opposite-Spin Energy  =      -1.2230339356980855 [Eh]
	 SCS Correlation Energy    =      -1.3351877072911975 [Eh]
	 SCS Total Energy          =    -342.6143866852540896 [Eh]
	-----------------------------------------------------------

  Dipole Moment: [D]
     X:     3.8218      Y:    -0.5259      Z:     0.3880     Total:     3.8773

*** Psi4 exiting successfully. Buy a developer a beer!
