                               Psi4 1.3.2 release

  ==> Input File <==

--------------------------------------------------------------------------
#psi4
#
memory 32 gb

molecule  {
-1 1
  O        1.1365690     1.2999450     0.1428980
  O       -1.4424670    -1.1799650     0.1827610
  O       -1.3575130     1.0293890    -0.3577040
  C        0.6396440    -0.0155260     0.4104950
  C        1.4464200    -1.0470520    -0.3590510
  C       -0.9071505    -0.1599937     0.0577215
  H        0.7165270    -0.2335850     1.4896730
  H        1.3388480    -0.8658950    -1.4332610
  H        2.5070550    -0.9809740    -0.0983190
  H        1.0872750    -2.0528800    -0.1336960
  H        0.3068940     1.7456410    -0.1582790
units angstrom
no_reorient  #important for SAPT in psi4, default
symmetry c1  #important for SAPT in psi4, default
}

set PROPERTIES_ORIGIN ["COM"]
properties('MP2/aug-cc-pvtz', properties = ['dipole'])
--------------------------------------------------------------------------

    Molecular point group: c1
  Charge       = -1
  Multiplicity = 1
  Basis Set: AUG-CC-PVTZ
    Blend: AUG-CC-PVTZ
  Basis Set: (AUG-CC-PVTZ AUX)
    Blend: AUG-CC-PVTZ-JKFIT

    Orbital Energies [Eh]
    ---------------------

    Doubly Occupied:

       1A    -20.375961     2A    -20.333167     3A    -20.298459
       4A    -11.149934     5A    -11.110796     6A    -11.069437
       7A     -1.233132     8A     -1.177050     9A     -1.066805
      10A     -0.857629    11A     -0.689300    12A     -0.557689
      13A     -0.504439    14A     -0.478683    15A     -0.434791
      16A     -0.409004    17A     -0.399421    18A     -0.381437
      19A     -0.374767    20A     -0.361535    21A     -0.273102
      22A     -0.227963    23A     -0.215316    24A     -0.201136

  @DF-RHF Final Energy:  -341.26684739640530

   => Energetics <=

    Nuclear Repulsion Energy =            238.8893584421921616
    One-Electron Energy =                -951.9505020121353027
    Two-Electron Energy =                 371.7942961735378731
    Total Energy =                       -341.2668473964052964
  Basis Set: (AUG-CC-PVTZ AUX)
    Blend: AUG-CC-PVTZ-RI
    Molecular point group: c1

    Geometry (in Angstrom), charge = -1, multiplicity = 1:

       Center              X                  Y                   Z               Mass
    ------------   -----------------  -----------------  -----------------  -----------------
         O            1.209088262690     1.285265545365     0.137720351256    15.994914619570
         O           -1.369947737310    -1.194644454635     0.177583351256    15.994914619570
         O           -1.284993737310     1.014709545365    -0.362881648744    15.994914619570
         C            0.712163262690    -0.030205454635     0.405317351256    12.000000000000
         C            1.518939262690    -1.061731454635    -0.364228648744    12.000000000000
         C           -0.834631237310    -0.174673154635     0.052543851256    12.000000000000
         H            0.789046262690    -0.248264454635     1.484495351256     1.007825032230
         H            1.411367262690    -0.880574454635    -1.438438648744     1.007825032230
         H            2.579574262690    -0.995653454635    -0.103496648744     1.007825032230
         H            1.159794262690    -2.067559454635    -0.138873648744     1.007825032230
         H            0.379413262690     1.730961545365    -0.163456648744     1.007825032230

  Basis Set: AUG-CC-PVTZ
    Blend: AUG-CC-PVTZ
  Basis Set: (AUG-CC-PVTZ AUX)
    Blend: AUG-CC-PVTZ-JKFIT
	 Reference Energy          =    -341.2668473964052964 [Eh]
	 Singles Energy            =      -0.0000000000000000 [Eh]
	 Same-Spin Energy          =      -0.3357787273145864 [Eh]
	 Opposite-Spin Energy      =      -1.0175099003828592 [Eh]
	 Correlation Energy        =      -1.3532886276974456 [Eh]
	 Total Energy              =    -342.6201360241027487 [Eh]

	 ================> DF-SCS-MP2 Energies <==================
	-----------------------------------------------------------
	 SCS Same-Spin Scale       =       0.3333333333333333 [-]
	 SCS Opposite-Spin Scale   =       1.2000000000000000 [-]
	 SCS Same-Spin Energy      =      -0.1119262424381954 [Eh]
	 SCS Opposite-Spin Energy  =      -1.2210118804594310 [Eh]
	 SCS Correlation Energy    =      -1.3329381228976265 [Eh]
	 SCS Total Energy          =    -342.5997855193029409 [Eh]
	-----------------------------------------------------------

  Dipole Moment: [D]
     X:     3.4442      Y:    -1.4075      Z:     0.5465     Total:     3.7607

*** Psi4 exiting successfully. Buy a developer a beer!
