                               Psi4 1.3.2 release

  ==> Input File <==

--------------------------------------------------------------------------
#psi4
#
memory 32 gb

molecule  {
0 1
  S       -1.9906940    -0.0125100    -0.1365530
  O       -2.3617000    -0.1700640     1.4590810
  O       -2.4286150    -1.2343840    -0.7923790
  O       -2.4725380     1.3090340    -0.5392830
  C       -0.2242900    -0.0021990    -0.0874500
  C        1.8486770    -1.2201060     0.0278510
  C        1.8399080     1.2326580     0.0087760
  C        0.4429230     1.2221080    -0.0627730
  C        0.4524940    -1.2213400    -0.0491660
  C        2.5197880     0.0092800     0.0551460
  C        2.6241633    -2.5145672    -0.1666235
  C        2.5970370     2.5347130    -0.0106060
  H       -0.1225000     2.1495790    -0.1127420
  H       -0.1051200    -2.1541630    -0.0856740
  H        3.6080620     0.0137470     0.1195720
  H        2.0290960    -3.3176030     0.4912070
  H        2.8638720    -2.8264950    -0.9873940
  H        3.5515030    -2.4163920     0.5891050
  H        2.8417130     2.8282160    -1.0369270
  H        2.0062320     3.3400050     0.4339970
  H        3.5349660     2.4512730     0.5451920
  H       -2.8050090     0.6644540     1.7194690
units angstrom
no_reorient  #important for SAPT in psi4, default
symmetry c1  #important for SAPT in psi4, default
}

set PROPERTIES_ORIGIN ["COM"]
properties('MP2/aug-cc-pvtz', properties = ['dipole'])
--------------------------------------------------------------------------

    Molecular point group: c1
  Charge       = 0
  Multiplicity = 1
  Basis Set: AUG-CC-PVTZ
    Blend: AUG-CC-PVTZ
  Basis Set: (AUG-CC-PVTZ AUX)
    Blend: AUG-CC-PVTZ-JKFIT

    Orbital Energies [Eh]
    ---------------------

    Doubly Occupied:

       1A    -92.229236     2A    -20.629025     3A    -20.565486
       4A    -20.561170     5A    -11.286529     6A    -11.269204
       7A    -11.267979     8A    -11.264705     9A    -11.263336
      10A    -11.258499    11A    -11.244649    12A    -11.242032
      13A     -9.192137    14A     -6.877758    15A     -6.876460
      16A     -6.876217    17A     -1.493154    18A     -1.379486
      19A     -1.351898    20A     -1.188621    21A     -1.081713
      22A     -1.075897    23A     -0.965966    24A     -0.956175
      25A     -0.924565    26A     -0.820087    27A     -0.814812
      28A     -0.741159    29A     -0.725187    30A     -0.691727
      31A     -0.682798    32A     -0.669988    33A     -0.647128
      34A     -0.627546    35A     -0.598078    36A     -0.596039
      37A     -0.580479    38A     -0.574393    39A     -0.561864
      40A     -0.539052    41A     -0.527088    42A     -0.515995
      43A     -0.509213    44A     -0.505102    45A     -0.492509
      46A     -0.483739    47A     -0.470962    48A     -0.364829
      49A     -0.347107

  @DF-RHF Final Energy:  -931.00607849083224

   => Energetics <=

    Nuclear Repulsion Energy =            830.3246735644256660
    One-Electron Energy =               -2925.8439473129874386
    Two-Electron Energy =                1164.5131952577296488
    Total Energy =                       -931.0060784908321239
  Basis Set: (AUG-CC-PVTZ AUX)
    Blend: AUG-CC-PVTZ-RI
    Molecular point group: c1

    Geometry (in Angstrom), charge = 0, multiplicity = 1:

       Center              X                  Y                   Z               Mass
    ------------   -----------------  -----------------  -----------------  -----------------
         S           -1.898948244096    -0.008740850299    -0.114744993142    31.972071174400
         O           -2.269954244096    -0.166294850299     1.480889006858    15.994914619570
         O           -2.336869244096    -1.230614850299    -0.770570993142    15.994914619570
         O           -2.380792244096     1.312803149701    -0.517474993142    15.994914619570
         C           -0.132544244096     0.001570149701    -0.065641993142    12.000000000000
         C            1.940422755904    -1.216336850299     0.049659006858    12.000000000000
         C            1.931653755904     1.236427149701     0.030584006858    12.000000000000
         C            0.534668755904     1.225877149701    -0.040964993142    12.000000000000
         C            0.544239755904    -1.217570850299    -0.027357993142    12.000000000000
         C            2.611533755904     0.013049149701     0.076954006858    12.000000000000
         C            2.715909055904    -2.510798050299    -0.144815493142    12.000000000000
         C            2.688782755904     2.538482149701     0.011202006858    12.000000000000
         H           -0.030754244096     2.153348149701    -0.090933993142     1.007825032230
         H           -0.013374244096    -2.150393850299    -0.063865993142     1.007825032230
         H            3.699807755904     0.017516149701     0.141380006858     1.007825032230
         H            2.120841755904    -3.313833850299     0.513015006858     1.007825032230
         H            2.955617755904    -2.822725850299    -0.965585993142     1.007825032230
         H            3.643248755904    -2.412622850299     0.610913006858     1.007825032230
         H            2.933458755904     2.831985149701    -1.015118993142     1.007825032230
         H            2.097977755904     3.343774149701     0.455805006858     1.007825032230
         H            3.626711755904     2.455042149701     0.567000006858     1.007825032230
         H           -2.713263244096     0.668223149701     1.741277006858     1.007825032230

  Basis Set: AUG-CC-PVTZ
    Blend: AUG-CC-PVTZ
  Basis Set: (AUG-CC-PVTZ AUX)
    Blend: AUG-CC-PVTZ-JKFIT
	 Reference Energy          =    -931.0060784908322375 [Eh]
	 Singles Energy            =      -0.0000000000000000 [Eh]
	 Same-Spin Energy          =      -0.6218332166950153 [Eh]
	 Opposite-Spin Energy      =      -1.8697351166761993 [Eh]
	 Correlation Energy        =      -2.4915683333712146 [Eh]
	 Total Energy              =    -933.4976468242034571 [Eh]

	 ================> DF-SCS-MP2 Energies <==================
	-----------------------------------------------------------
	 SCS Same-Spin Scale       =       0.3333333333333333 [-]
	 SCS Opposite-Spin Scale   =       1.2000000000000000 [-]
	 SCS Same-Spin Energy      =      -0.2072777388983384 [Eh]
	 SCS Opposite-Spin Energy  =      -2.2436821400114391 [Eh]
	 SCS Correlation Energy    =      -2.4509598789097775 [Eh]
	 SCS Total Energy          =    -933.4570383697420084 [Eh]
	-----------------------------------------------------------

  Dipole Moment: [D]
     X:     4.3371      Y:     1.1545      Z:     1.8357     Total:     4.8491

*** Psi4 exiting successfully. Buy a developer a beer!
