                               Psi4 1.3.2 release

  ==> Input File <==

--------------------------------------------------------------------------
#psi4
#
memory 32 gb

molecule  {
0 1
  S       -1.9906940    -0.0125100    -0.1365530
  O       -2.3617000    -0.1700640     1.4590810
  O       -2.4286150    -1.2343840    -0.7923790
  O       -2.4725380     1.3090340    -0.5392830
  C       -0.2242900    -0.0021990    -0.0874500
  C        1.8486770    -1.2201060     0.0278510
  C        1.8399080     1.2326580     0.0087760
  C        0.4429230     1.2221080    -0.0627730
  C        0.4524940    -1.2213400    -0.0491660
  C        2.5197880     0.0092800     0.0551460
  C        2.6197397    -2.5156036    -0.0667267
  C        2.5970370     2.5347130    -0.0106060
  H       -0.1225000     2.1495790    -0.1127420
  H       -0.1051200    -2.1541630    -0.0856740
  H        3.6080620     0.0137470     0.1195720
  H        2.0290960    -3.3176030     0.4912070
  H        2.8638720    -2.8264950    -0.9873940
  H        3.5515030    -2.4163920     0.5891050
  H        2.8417130     2.8282160    -1.0369270
  H        2.0062320     3.3400050     0.4339970
  H        3.5349660     2.4512730     0.5451920
  H       -2.8050090     0.6644540     1.7194690
units angstrom
no_reorient  #important for SAPT in psi4, default
symmetry c1  #important for SAPT in psi4, default
}

set PROPERTIES_ORIGIN ["COM"]
properties('MP2/aug-cc-pvtz', properties = ['dipole'])
--------------------------------------------------------------------------

    Molecular point group: c1
  Charge       = 0
  Multiplicity = 1
  Basis Set: AUG-CC-PVTZ
    Blend: AUG-CC-PVTZ
  Basis Set: (AUG-CC-PVTZ AUX)
    Blend: AUG-CC-PVTZ-JKFIT

    Orbital Energies [Eh]
    ---------------------

    Doubly Occupied:

       1A    -92.228913     2A    -20.628754     3A    -20.565150
       4A    -20.560887     5A    -11.286147     6A    -11.267565
       7A    -11.267261     8A    -11.263626     9A    -11.262499
      10A    -11.257635    11A    -11.241666    12A    -11.241062
      13A     -9.191817    14A     -6.877438    15A     -6.876138
      16A     -6.875899    17A     -1.492854    18A     -1.379205
      19A     -1.351589    20A     -1.188111    21A     -1.081570
      22A     -1.075563    23A     -0.962992    24A     -0.954354
      25A     -0.924177    26A     -0.819271    27A     -0.810964
      28A     -0.740273    29A     -0.723459    30A     -0.691343
      31A     -0.682962    32A     -0.670123    33A     -0.627910
      34A     -0.622000    35A     -0.599552    36A     -0.595101
      37A     -0.585340    38A     -0.574145    39A     -0.563433
      40A     -0.539591    41A     -0.529991    42A     -0.522940
      43A     -0.511021    44A     -0.505102    45A     -0.500737
      46A     -0.483932    47A     -0.472617    48A     -0.364151
      49A     -0.346308

  @DF-RHF Final Energy:  -931.04579274330638

   => Energetics <=

    Nuclear Repulsion Energy =            830.4277762812281480
    One-Electron Energy =               -2926.1768641506414497
    Two-Electron Energy =                1164.7032951261069229
    Total Energy =                       -931.0457927433064924
  Basis Set: (AUG-CC-PVTZ AUX)
    Blend: AUG-CC-PVTZ-RI
    Molecular point group: c1

    Geometry (in Angstrom), charge = 0, multiplicity = 1:

       Center              X                  Y                   Z               Mass
    ------------   -----------------  -----------------  -----------------  -----------------
         S           -1.898662904341    -0.008673998386    -0.121188733185    31.972071174400
         O           -2.269668904341    -0.166227998386     1.474445266815    15.994914619570
         O           -2.336583904341    -1.230547998386    -0.777014733185    15.994914619570
         O           -2.380506904341     1.312870001614    -0.523918733185    15.994914619570
         C           -0.132258904341     0.001637001614    -0.072085733185    12.000000000000
         C            1.940708095659    -1.216269998386     0.043215266815    12.000000000000
         C            1.931939095659     1.236494001614     0.024140266815    12.000000000000
         C            0.534954095659     1.225944001614    -0.047408733185    12.000000000000
         C            0.544525095659    -1.217503998386    -0.033801733185    12.000000000000
         C            2.611819095659     0.013116001614     0.070510266815    12.000000000000
         C            2.711770795659    -2.511767598386    -0.051362433185    12.000000000000
         C            2.689068095659     2.538549001614     0.004758266815    12.000000000000
         H           -0.030468904341     2.153415001614    -0.097377733185     1.007825032230
         H           -0.013088904341    -2.150326998386    -0.070309733185     1.007825032230
         H            3.700093095659     0.017583001614     0.134936266815     1.007825032230
         H            2.121127095659    -3.313766998386     0.506571266815     1.007825032230
         H            2.955903095659    -2.822658998386    -0.972029733185     1.007825032230
         H            3.643534095659    -2.412555998386     0.604469266815     1.007825032230
         H            2.933744095659     2.832052001614    -1.021562733185     1.007825032230
         H            2.098263095659     3.343841001614     0.449361266815     1.007825032230
         H            3.626997095659     2.455109001614     0.560556266815     1.007825032230
         H           -2.712977904341     0.668290001614     1.734833266815     1.007825032230

  Basis Set: AUG-CC-PVTZ
    Blend: AUG-CC-PVTZ
  Basis Set: (AUG-CC-PVTZ AUX)
    Blend: AUG-CC-PVTZ-JKFIT
	 Reference Energy          =    -931.0457927433063787 [Eh]
	 Singles Energy            =      -0.0000000000000000 [Eh]
	 Same-Spin Energy          =      -0.6214196334174041 [Eh]
	 Opposite-Spin Energy      =      -1.8681865583751494 [Eh]
	 Correlation Energy        =      -2.4896061917925536 [Eh]
	 Total Energy              =    -933.5353989350988968 [Eh]

	 ================> DF-SCS-MP2 Energies <==================
	-----------------------------------------------------------
	 SCS Same-Spin Scale       =       0.3333333333333333 [-]
	 SCS Opposite-Spin Scale   =       1.2000000000000000 [-]
	 SCS Same-Spin Energy      =      -0.2071398778058014 [Eh]
	 SCS Opposite-Spin Energy  =      -2.2418238700501791 [Eh]
	 SCS Correlation Energy    =      -2.4489637478559807 [Eh]
	 SCS Total Energy          =    -933.4947564911623203 [Eh]
	-----------------------------------------------------------

  Dipole Moment: [D]
     X:     4.3933      Y:     1.0641      Z:     1.8547     Total:     4.8860

*** Psi4 exiting successfully. Buy a developer a beer!
