                               Psi4 1.3.2 release

  ==> Input File <==

--------------------------------------------------------------------------
#psi4
#
memory 32 gb

molecule  {
0 1
  S       -1.9906940    -0.0125100    -0.1365530
  O       -2.3617000    -0.1700640     1.4590810
  O       -2.4286150    -1.2343840    -0.7923790
  O       -2.4725380     1.3090340    -0.5392830
  C       -0.2242900    -0.0021990    -0.0874500
  C        1.8486770    -1.2201060     0.0278510
  C        1.8399080     1.2326580     0.0087760
  C        0.4429230     1.2221080    -0.0627730
  C        0.4574527    -1.2221554    -0.1990818
  C        2.5197880     0.0092800     0.0551460
  C        2.6153160    -2.5166400     0.0331700
  C        2.5970370     2.5347130    -0.0106060
  H       -0.1225000     2.1495790    -0.1127420
  H       -0.1051200    -2.1541630    -0.0856740
  H        3.6080620     0.0137470     0.1195720
  H        2.0290960    -3.3176030     0.4912070
  H        2.8638720    -2.8264950    -0.9873940
  H        3.5515030    -2.4163920     0.5891050
  H        2.8417130     2.8282160    -1.0369270
  H        2.0062320     3.3400050     0.4339970
  H        3.5349660     2.4512730     0.5451920
  H       -2.8050090     0.6644540     1.7194690
units angstrom
no_reorient  #important for SAPT in psi4, default
symmetry c1  #important for SAPT in psi4, default
}

set PROPERTIES_ORIGIN ["COM"]
properties('MP2/aug-cc-pvtz', properties = ['dipole'])
--------------------------------------------------------------------------

    Molecular point group: c1
  Charge       = 0
  Multiplicity = 1
  Basis Set: AUG-CC-PVTZ
    Blend: AUG-CC-PVTZ
  Basis Set: (AUG-CC-PVTZ AUX)
    Blend: AUG-CC-PVTZ-JKFIT

    Orbital Energies [Eh]
    ---------------------

    Doubly Occupied:

       1A    -92.228628     2A    -20.628975     3A    -20.564758
       4A    -20.560525     5A    -11.287563     6A    -11.269242
       7A    -11.268354     8A    -11.264109     9A    -11.262303
      10A    -11.256813    11A    -11.241810    12A    -11.240484
      13A     -9.191563    14A     -6.877172    15A     -6.875881
      16A     -6.875649    17A     -1.492692    18A     -1.379176
      19A     -1.351250    20A     -1.186884    21A     -1.080979
      22A     -1.075045    23A     -0.962584    24A     -0.953128
      25A     -0.923829    26A     -0.818680    27A     -0.809057
      28A     -0.738995    29A     -0.721904    30A     -0.690778
      31A     -0.682881    32A     -0.669651    33A     -0.627593
      34A     -0.602649    35A     -0.601333    36A     -0.590348
      37A     -0.584271    38A     -0.574266    39A     -0.569291
      40A     -0.547991    41A     -0.536923    42A     -0.523194
      43A     -0.509245    44A     -0.505094    45A     -0.499679
      46A     -0.483807    47A     -0.473663    48A     -0.362727
      49A     -0.344440

  @DF-RHF Final Energy:  -931.05035130158569

   => Energetics <=

    Nuclear Repulsion Energy =            830.1019591504727941
    One-Electron Energy =               -2925.5689077847364388
    Two-Electron Energy =                1164.4165973326780659
    Total Energy =                       -931.0503513015855788
  Basis Set: (AUG-CC-PVTZ AUX)
    Blend: AUG-CC-PVTZ-RI
    Molecular point group: c1

    Geometry (in Angstrom), charge = 0, multiplicity = 1:

       Center              X                  Y                   Z               Mass
    ------------   -----------------  -----------------  -----------------  -----------------
         S           -1.898697413964    -0.008554549937    -0.117962302733    31.972071174400
         O           -2.269703413964    -0.166108549937     1.477671697267    15.994914619570
         O           -2.336618413964    -1.230428549937    -0.773788302733    15.994914619570
         O           -2.380541413964     1.312989450063    -0.520692302733    15.994914619570
         C           -0.132293413964     0.001756450063    -0.068859302733    12.000000000000
         C            1.940673586036    -1.216150549937     0.046441697267    12.000000000000
         C            1.931904586036     1.236613450063     0.027366697267    12.000000000000
         C            0.534919586036     1.226063450063    -0.044182302733    12.000000000000
         C            0.549449286036    -1.218199949937    -0.180491102733    12.000000000000
         C            2.611784586036     0.013235450063     0.073736697267    12.000000000000
         C            2.707312586036    -2.512684549937     0.051760697267    12.000000000000
         C            2.689033586036     2.538668450063     0.007984697267    12.000000000000
         H           -0.030503413964     2.153534450063    -0.094151302733     1.007825032230
         H           -0.013123413964    -2.150207549937    -0.067083302733     1.007825032230
         H            3.700058586036     0.017702450063     0.138162697267     1.007825032230
         H            2.121092586036    -3.313647549937     0.509797697267     1.007825032230
         H            2.955868586036    -2.822539549937    -0.968803302733     1.007825032230
         H            3.643499586036    -2.412436549937     0.607695697267     1.007825032230
         H            2.933709586036     2.832171450063    -1.018336302733     1.007825032230
         H            2.098228586036     3.343960450063     0.452587697267     1.007825032230
         H            3.626962586036     2.455228450063     0.563782697267     1.007825032230
         H           -2.713012413964     0.668409450063     1.738059697267     1.007825032230

  Basis Set: AUG-CC-PVTZ
    Blend: AUG-CC-PVTZ
  Basis Set: (AUG-CC-PVTZ AUX)
    Blend: AUG-CC-PVTZ-JKFIT
	 Reference Energy          =    -931.0503513015856925 [Eh]
	 Singles Energy            =      -0.0000000000000000 [Eh]
	 Same-Spin Energy          =      -0.6216940286882995 [Eh]
	 Opposite-Spin Energy      =      -1.8686675046557202 [Eh]
	 Correlation Energy        =      -2.4903615333440197 [Eh]
	 Total Energy              =    -933.5407128349297636 [Eh]

	 ================> DF-SCS-MP2 Energies <==================
	-----------------------------------------------------------
	 SCS Same-Spin Scale       =       0.3333333333333333 [-]
	 SCS Opposite-Spin Scale   =       1.2000000000000000 [-]
	 SCS Same-Spin Energy      =      -0.2072313428960998 [Eh]
	 SCS Opposite-Spin Energy  =      -2.2424010055868639 [Eh]
	 SCS Correlation Energy    =      -2.4496323484829636 [Eh]
	 SCS Total Energy          =    -933.4999836500686570 [Eh]
	-----------------------------------------------------------

  Dipole Moment: [D]
     X:     4.4456      Y:     1.0280      Z:     1.9398     Total:     4.9581

*** Psi4 exiting successfully. Buy a developer a beer!
