                               Psi4 1.3.2 release

  ==> Input File <==

--------------------------------------------------------------------------
#psi4
#
memory 32 gb

molecule  {
0 1
  S       -1.9906940    -0.0125100    -0.1365530
  O       -2.3617000    -0.1700640     1.4590810
  O       -2.4286150    -1.2343840    -0.7923790
  O       -2.4725380     1.3090340    -0.5392830
  C       -0.2242900    -0.0021990    -0.0874500
  C        1.8486770    -1.2201060     0.0278510
  C        1.8399080     1.2326580     0.0087760
  C        0.4429230     1.2221080    -0.0627730
  C        0.4557998    -1.2218836    -0.1491099
  C        2.5197880     0.0092800     0.0551460
  C        2.6153160    -2.5166400     0.0331700
  C        2.5970370     2.5347130    -0.0106060
  H       -0.1225000     2.1495790    -0.1127420
  H       -0.1051200    -2.1541630    -0.0856740
  H        3.6080620     0.0137470     0.1195720
  H        2.0290960    -3.3176030     0.4912070
  H        2.8638720    -2.8264950    -0.9873940
  H        3.5515030    -2.4163920     0.5891050
  H        2.8417130     2.8282160    -1.0369270
  H        2.0062320     3.3400050     0.4339970
  H        3.5349660     2.4512730     0.5451920
  H       -2.8050090     0.6644540     1.7194690
units angstrom
no_reorient  #important for SAPT in psi4, default
symmetry c1  #important for SAPT in psi4, default
}

set PROPERTIES_ORIGIN ["COM"]
properties('MP2/aug-cc-pvtz', properties = ['dipole'])
--------------------------------------------------------------------------

    Molecular point group: c1
  Charge       = 0
  Multiplicity = 1
  Basis Set: AUG-CC-PVTZ
    Blend: AUG-CC-PVTZ
  Basis Set: (AUG-CC-PVTZ AUX)
    Blend: AUG-CC-PVTZ-JKFIT

    Orbital Energies [Eh]
    ---------------------

    Doubly Occupied:

       1A    -92.228703     2A    -20.628863     3A    -20.564854
       4A    -20.560635     5A    -11.286725     6A    -11.268103
       7A    -11.267806     8A    -11.263063     9A    -11.262495
      10A    -11.256965    11A    -11.241595    12A    -11.240408
      13A     -9.191623    14A     -6.877236    15A     -6.875941
      16A     -6.875710    17A     -1.492718    18A     -1.379157
      19A     -1.351341    20A     -1.187377    21A     -1.081275
      22A     -1.075255    23A     -0.962479    24A     -0.953457
      25A     -0.923958    26A     -0.818962    27A     -0.809508
      28A     -0.739454    29A     -0.722485    30A     -0.691065
      31A     -0.683410    32A     -0.670121    33A     -0.627698
      34A     -0.602574    35A     -0.600979    36A     -0.591217
      37A     -0.584750    38A     -0.574372    39A     -0.569252
      40A     -0.548071    41A     -0.537317    42A     -0.523358
      43A     -0.508976    44A     -0.505683    45A     -0.500392
      46A     -0.483919    47A     -0.473702    48A     -0.363048
      49A     -0.344649

  @DF-RHF Final Energy:  -931.05429033746327

   => Energetics <=

    Nuclear Repulsion Energy =            830.2897306306708742
    One-Electron Energy =               -2925.9426363025713727
    Two-Electron Energy =                1164.5986153344372269
    Total Energy =                       -931.0542903374632715
  Basis Set: (AUG-CC-PVTZ AUX)
    Blend: AUG-CC-PVTZ-RI
    Molecular point group: c1

    Geometry (in Angstrom), charge = 0, multiplicity = 1:

       Center              X                  Y                   Z               Mass
    ------------   -----------------  -----------------  -----------------  -----------------
         S           -1.898590795354    -0.008572082116    -0.121185688598    31.972071174400
         O           -2.269596795354    -0.166126082116     1.474448311402    15.994914619570
         O           -2.336511795354    -1.230446082116    -0.777011688598    15.994914619570
         O           -2.380434795354     1.312971917884    -0.523915688598    15.994914619570
         C           -0.132186795354     0.001738917884    -0.072082688598    12.000000000000
         C            1.940780204646    -1.216168082116     0.043218311402    12.000000000000
         C            1.932011204646     1.236595917884     0.024143311402    12.000000000000
         C            0.535026204646     1.226045917884    -0.047405688598    12.000000000000
         C            0.547903004646    -1.217945682116    -0.133742588598    12.000000000000
         C            2.611891204646     0.013217917884     0.070513311402    12.000000000000
         C            2.707419204646    -2.512702082116     0.048537311402    12.000000000000
         C            2.689140204646     2.538650917884     0.004761311402    12.000000000000
         H           -0.030396795354     2.153516917884    -0.097374688598     1.007825032230
         H           -0.013016795354    -2.150225082116    -0.070306688598     1.007825032230
         H            3.700165204646     0.017684917884     0.134939311402     1.007825032230
         H            2.121199204646    -3.313665082116     0.506574311402     1.007825032230
         H            2.955975204646    -2.822557082116    -0.972026688598     1.007825032230
         H            3.643606204646    -2.412454082116     0.604472311402     1.007825032230
         H            2.933816204646     2.832153917884    -1.021559688598     1.007825032230
         H            2.098335204646     3.343942917884     0.449364311402     1.007825032230
         H            3.627069204646     2.455210917884     0.560559311402     1.007825032230
         H           -2.712905795354     0.668391917884     1.734836311402     1.007825032230

  Basis Set: AUG-CC-PVTZ
    Blend: AUG-CC-PVTZ
  Basis Set: (AUG-CC-PVTZ AUX)
    Blend: AUG-CC-PVTZ-JKFIT
	 Reference Energy          =    -931.0542903374632715 [Eh]
	 Singles Energy            =      -0.0000000000000000 [Eh]
	 Same-Spin Energy          =      -0.6214701536734413 [Eh]
	 Opposite-Spin Energy      =      -1.8680935473995692 [Eh]
	 Correlation Energy        =      -2.4895637010730107 [Eh]
	 Total Energy              =    -933.5438540385363240 [Eh]

	 ================> DF-SCS-MP2 Energies <==================
	-----------------------------------------------------------
	 SCS Same-Spin Scale       =       0.3333333333333333 [-]
	 SCS Opposite-Spin Scale   =       1.2000000000000000 [-]
	 SCS Same-Spin Energy      =      -0.2071567178911471 [Eh]
	 SCS Opposite-Spin Energy  =      -2.2417122568794832 [Eh]
	 SCS Correlation Energy    =      -2.4488689747706305 [Eh]
	 SCS Total Energy          =    -933.5031593122339473 [Eh]
	-----------------------------------------------------------

  Dipole Moment: [D]
     X:     4.4331      Y:     1.0119      Z:     1.9226     Total:     4.9369

*** Psi4 exiting successfully. Buy a developer a beer!
