                               Psi4 1.3.2 release

  ==> Input File <==

--------------------------------------------------------------------------
#psi4
#
memory 32 gb

molecule  {
0 1
  S       -1.9906940    -0.0125100    -0.1365530
  O       -2.3617000    -0.1700640     1.4590810
  O       -2.4286150    -1.2343840    -0.7923790
  O       -2.4725380     1.3090340    -0.5392830
  C       -0.2242900    -0.0021990    -0.0874500
  C        1.8486770    -1.2201060     0.0278510
  C        1.8399080     1.2326580     0.0087760
  C        0.4429230     1.2221080    -0.0627730
  C        0.4524940    -1.2213400    -0.0491660
  C        2.5197880     0.0092800     0.0551460
  C        2.6219515    -2.5150854    -0.1166751
  C        2.5970370     2.5347130    -0.0106060
  H       -0.1225000     2.1495790    -0.1127420
  H       -0.1051200    -2.1541630    -0.0856740
  H        3.6080620     0.0137470     0.1195720
  H        2.0290960    -3.3176030     0.4912070
  H        2.8638720    -2.8264950    -0.9873940
  H        3.5515030    -2.4163920     0.5891050
  H        2.8417130     2.8282160    -1.0369270
  H        2.0062320     3.3400050     0.4339970
  H        3.5349660     2.4512730     0.5451920
  H       -2.8050090     0.6644540     1.7194690
units angstrom
no_reorient  #important for SAPT in psi4, default
symmetry c1  #important for SAPT in psi4, default
}

set PROPERTIES_ORIGIN ["COM"]
properties('MP2/aug-cc-pvtz', properties = ['dipole'])
--------------------------------------------------------------------------

    Molecular point group: c1
  Charge       = 0
  Multiplicity = 1
  Basis Set: AUG-CC-PVTZ
    Blend: AUG-CC-PVTZ
  Basis Set: (AUG-CC-PVTZ AUX)
    Blend: AUG-CC-PVTZ-JKFIT

    Orbital Energies [Eh]
    ---------------------

    Doubly Occupied:

       1A    -92.229050     2A    -20.628869     3A    -20.565296
       4A    -20.561007     5A    -11.286299     6A    -11.268005
       7A    -11.267729     8A    -11.264134     9A    -11.262867
      10A    -11.258022    11A    -11.242490    12A    -11.241826
      13A     -9.191953    14A     -6.877574    15A     -6.876275
      16A     -6.876034    17A     -1.492983    18A     -1.379325
      19A     -1.351722    20A     -1.188330    21A     -1.081610
      22A     -1.075700    23A     -0.964031    24A     -0.955158
      25A     -0.924339    26A     -0.819530    27A     -0.812538
      28A     -0.740610    29A     -0.724171    30A     -0.691503
      31A     -0.682820    32A     -0.670002    33A     -0.635391
      34A     -0.627326    35A     -0.598638    36A     -0.595642
      37A     -0.583189    38A     -0.574252    39A     -0.562421
      40A     -0.539124    41A     -0.526992    42A     -0.518445
      43A     -0.511871    44A     -0.505024    45A     -0.497709
      46A     -0.483891    47A     -0.471937    48A     -0.364513
      49A     -0.346752

  @DF-RHF Final Energy:  -931.02999799976692

   => Energetics <=

    Nuclear Repulsion Energy =            830.3818388260461916
    One-Electron Energy =               -2926.0338352983189907
    Two-Electron Energy =                1164.6219984725059930
    Total Energy =                       -931.0299979997669197
  Basis Set: (AUG-CC-PVTZ AUX)
    Blend: AUG-CC-PVTZ-RI
    Molecular point group: c1

    Geometry (in Angstrom), charge = 0, multiplicity = 1:

       Center              X                  Y                   Z               Mass
    ------------   -----------------  -----------------  -----------------  -----------------
         S           -1.898805574218    -0.008707424342    -0.117966863164    31.972071174400
         O           -2.269811574218    -0.166261424342     1.477667136836    15.994914619570
         O           -2.336726574218    -1.230581424342    -0.773792863164    15.994914619570
         O           -2.380649574218     1.312836575658    -0.520696863164    15.994914619570
         C           -0.132401574218     0.001603575658    -0.068863863164    12.000000000000
         C            1.940565425782    -1.216303424342     0.046437136836    12.000000000000
         C            1.931796425782     1.236460575658     0.027362136836    12.000000000000
         C            0.534811425782     1.225910575658    -0.044186863164    12.000000000000
         C            0.544382425782    -1.217537424342    -0.030579863164    12.000000000000
         C            2.611676425782     0.013082575658     0.073732136836    12.000000000000
         C            2.713839925782    -2.511282824342    -0.098088963164    12.000000000000
         C            2.688925425782     2.538515575658     0.007980136836    12.000000000000
         H           -0.030611574218     2.153381575658    -0.094155863164     1.007825032230
         H           -0.013231574218    -2.150360424342    -0.067087863164     1.007825032230
         H            3.699950425782     0.017549575658     0.138158136836     1.007825032230
         H            2.120984425782    -3.313800424342     0.509793136836     1.007825032230
         H            2.955760425782    -2.822692424342    -0.968807863164     1.007825032230
         H            3.643391425782    -2.412589424342     0.607691136836     1.007825032230
         H            2.933601425782     2.832018575658    -1.018340863164     1.007825032230
         H            2.098120425782     3.343807575658     0.452583136836     1.007825032230
         H            3.626854425782     2.455075575658     0.563778136836     1.007825032230
         H           -2.713120574218     0.668256575658     1.738055136836     1.007825032230

  Basis Set: AUG-CC-PVTZ
    Blend: AUG-CC-PVTZ
  Basis Set: (AUG-CC-PVTZ AUX)
    Blend: AUG-CC-PVTZ-JKFIT
	 Reference Energy          =    -931.0299979997669197 [Eh]
	 Singles Energy            =      -0.0000000000000000 [Eh]
	 Same-Spin Energy          =      -0.6215875604331983 [Eh]
	 Opposite-Spin Energy      =      -1.8688185750826392 [Eh]
	 Correlation Energy        =      -2.4904061355158373 [Eh]
	 Total Energy              =    -933.5204041352827744 [Eh]

	 ================> DF-SCS-MP2 Energies <==================
	-----------------------------------------------------------
	 SCS Same-Spin Scale       =       0.3333333333333333 [-]
	 SCS Opposite-Spin Scale   =       1.2000000000000000 [-]
	 SCS Same-Spin Energy      =      -0.2071958534777328 [Eh]
	 SCS Opposite-Spin Energy  =      -2.2425822900991670 [Eh]
	 SCS Correlation Energy    =      -2.4497781435768999 [Eh]
	 SCS Total Energy          =    -933.4797761433437699 [Eh]
	-----------------------------------------------------------

  Dipole Moment: [D]
     X:     4.3680      Y:     1.1054      Z:     1.8431     Total:     4.8681

*** Psi4 exiting successfully. Buy a developer a beer!
