                               Psi4 1.3.2 release

  ==> Input File <==

--------------------------------------------------------------------------
#psi4
#
memory 32 gb

molecule  {
0 1
  S       -1.9906940    -0.0125100    -0.1365530
  O       -2.3617000    -0.1700640     1.4590810
  O       -2.4286150    -1.2343840    -0.7923790
  O       -2.4725380     1.3090340    -0.5392830
  C       -0.2242900    -0.0021990    -0.0874500
  C        1.8486770    -1.2201060     0.0278510
  C        1.8399080     1.2326580     0.0087760
  C        0.4429230     1.2221080    -0.0627730
  C        0.4607585    -1.2226990    -0.2990257
  C        2.5197880     0.0092800     0.0551460
  C        2.6153160    -2.5166400     0.0331700
  C        2.5970370     2.5347130    -0.0106060
  H       -0.1225000     2.1495790    -0.1127420
  H       -0.1051200    -2.1541630    -0.0856740
  H        3.6080620     0.0137470     0.1195720
  H        2.0290960    -3.3176030     0.4912070
  H        2.8638720    -2.8264950    -0.9873940
  H        3.5515030    -2.4163920     0.5891050
  H        2.8417130     2.8282160    -1.0369270
  H        2.0062320     3.3400050     0.4339970
  H        3.5349660     2.4512730     0.5451920
  H       -2.8050090     0.6644540     1.7194690
units angstrom
no_reorient  #important for SAPT in psi4, default
symmetry c1  #important for SAPT in psi4, default
}

set PROPERTIES_ORIGIN ["COM"]
properties('MP2/aug-cc-pvtz', properties = ['dipole'])
--------------------------------------------------------------------------

    Molecular point group: c1
  Charge       = 0
  Multiplicity = 1
  Basis Set: AUG-CC-PVTZ
    Blend: AUG-CC-PVTZ
  Basis Set: (AUG-CC-PVTZ AUX)
    Blend: AUG-CC-PVTZ-JKFIT

    Orbital Energies [Eh]
    ---------------------

    Doubly Occupied:

       1A    -92.228417     2A    -20.629217     3A    -20.564515
       4A    -20.560215     5A    -11.290186     6A    -11.272729
       7A    -11.270223     8A    -11.267145     9A    -11.261861
      10A    -11.256385    11A    -11.242573    12A    -11.240737
      13A     -9.191389    14A     -6.876992    15A     -6.875708
      16A     -6.875467    17A     -1.492601    18A     -1.379186
      19A     -1.350988    20A     -1.185478    21A     -1.080176
      22A     -1.074407    23A     -0.962994    24A     -0.952081
      25A     -0.923367    26A     -0.817882    27A     -0.807660
      28A     -0.737928    29A     -0.720094    30A     -0.689805
      31A     -0.681182    32A     -0.668228    33A     -0.627294
      34A     -0.602853    35A     -0.602246    36A     -0.588847
      37A     -0.582344    38A     -0.573584    39A     -0.569443
      40A     -0.547631    41A     -0.535585    42A     -0.522824
      43A     -0.509560    44A     -0.503924    45A     -0.497151
      46A     -0.483422    47A     -0.473376    48A     -0.361780
      49A     -0.344046

  @DF-RHF Final Energy:  -931.03761447737884

   => Energetics <=

    Nuclear Repulsion Energy =            829.5422980672221911
    One-Electron Energy =               -2924.4523645030467378
    Two-Electron Energy =                1163.8724519584459358
    Total Energy =                       -931.0376144773788383
  Basis Set: (AUG-CC-PVTZ AUX)
    Blend: AUG-CC-PVTZ-RI
    Molecular point group: c1

    Geometry (in Angstrom), charge = 0, multiplicity = 1:

       Center              X                  Y                   Z               Mass
    ------------   -----------------  -----------------  -----------------  -----------------
         S           -1.898910651183    -0.008519485580    -0.111515524553    31.972071174400
         O           -2.269916651183    -0.166073485580     1.484118475447    15.994914619570
         O           -2.336831651183    -1.230393485580    -0.767341524553    15.994914619570
         O           -2.380754651183     1.313024514420    -0.514245524553    15.994914619570
         C           -0.132506651183     0.001791514420    -0.062412524553    12.000000000000
         C            1.940460348817    -1.216115485580     0.052888475447    12.000000000000
         C            1.931691348817     1.236648514420     0.033813475447    12.000000000000
         C            0.534706348817     1.226098514420    -0.037735524553    12.000000000000
         C            0.552541848817    -1.218708485580    -0.273988224553    12.000000000000
         C            2.611571348817     0.013270514420     0.080183475447    12.000000000000
         C            2.707099348817    -2.512649485580     0.058207475447    12.000000000000
         C            2.688820348817     2.538703514420     0.014431475447    12.000000000000
         H           -0.030716651183     2.153569514420    -0.087704524553     1.007825032230
         H           -0.013336651183    -2.150172485580    -0.060636524553     1.007825032230
         H            3.699845348817     0.017737514420     0.144609475447     1.007825032230
         H            2.120879348817    -3.313612485580     0.516244475447     1.007825032230
         H            2.955655348817    -2.822504485580    -0.962356524553     1.007825032230
         H            3.643286348817    -2.412401485580     0.614142475447     1.007825032230
         H            2.933496348817     2.832206514420    -1.011889524553     1.007825032230
         H            2.098015348817     3.343995514420     0.459034475447     1.007825032230
         H            3.626749348817     2.455263514420     0.570229475447     1.007825032230
         H           -2.713225651183     0.668444514420     1.744506475447     1.007825032230

  Basis Set: AUG-CC-PVTZ
    Blend: AUG-CC-PVTZ
  Basis Set: (AUG-CC-PVTZ AUX)
    Blend: AUG-CC-PVTZ-JKFIT
	 Reference Energy          =    -931.0376144773788383 [Eh]
	 Singles Energy            =      -0.0000000000000000 [Eh]
	 Same-Spin Energy          =      -0.6224099159145746 [Eh]
	 Opposite-Spin Energy      =      -1.8705711785638957 [Eh]
	 Correlation Energy        =      -2.4929810944784703 [Eh]
	 Total Energy              =    -933.5305955718573614 [Eh]

	 ================> DF-SCS-MP2 Energies <==================
	-----------------------------------------------------------
	 SCS Same-Spin Scale       =       0.3333333333333333 [-]
	 SCS Opposite-Spin Scale   =       1.2000000000000000 [-]
	 SCS Same-Spin Energy      =      -0.2074699719715249 [Eh]
	 SCS Opposite-Spin Energy  =      -2.2446854142766748 [Eh]
	 SCS Correlation Energy    =      -2.4521553862481995 [Eh]
	 SCS Total Energy          =    -933.4897698636270889 [Eh]
	-----------------------------------------------------------

  Dipole Moment: [D]
     X:     4.4895      Y:     1.0834      Z:     1.9775     Total:     5.0239

*** Psi4 exiting successfully. Buy a developer a beer!
