                               Psi4 1.3.2 release

  ==> Input File <==

--------------------------------------------------------------------------
#psi4
#
memory 32 gb

molecule  {
0 1
  S       -1.9906940    -0.0125100    -0.1365530
  O       -2.3617000    -0.1700640     1.4590810
  O       -2.4286150    -1.2343840    -0.7923790
  O       -2.4725380     1.3090340    -0.5392830
  C       -0.2242900    -0.0021990    -0.0874500
  C        1.8486770    -1.2201060     0.0278510
  C        1.8399080     1.2326580     0.0087760
  C        0.4429230     1.2221080    -0.0627730
  C        0.4524940    -1.2213400    -0.0491660
  C        2.5197880     0.0092800     0.0551460
  C        2.6263751    -2.5140490    -0.2165718
  C        2.5970370     2.5347130    -0.0106060
  H       -0.1225000     2.1495790    -0.1127420
  H       -0.1051200    -2.1541630    -0.0856740
  H        3.6080620     0.0137470     0.1195720
  H        2.0290960    -3.3176030     0.4912070
  H        2.8638720    -2.8264950    -0.9873940
  H        3.5515030    -2.4163920     0.5891050
  H        2.8417130     2.8282160    -1.0369270
  H        2.0062320     3.3400050     0.4339970
  H        3.5349660     2.4512730     0.5451920
  H       -2.8050090     0.6644540     1.7194690
units angstrom
no_reorient  #important for SAPT in psi4, default
symmetry c1  #important for SAPT in psi4, default
}

set PROPERTIES_ORIGIN ["COM"]
properties('MP2/aug-cc-pvtz', properties = ['dipole'])
--------------------------------------------------------------------------

    Molecular point group: c1
  Charge       = 0
  Multiplicity = 1
  Basis Set: AUG-CC-PVTZ
    Blend: AUG-CC-PVTZ
  Basis Set: (AUG-CC-PVTZ AUX)
    Blend: AUG-CC-PVTZ-JKFIT

    Orbital Energies [Eh]
    ---------------------

    Doubly Occupied:

       1A    -92.229472     2A    -20.629226     3A    -20.565723
       4A    -20.561376     5A    -11.286842     6A    -11.270881
       7A    -11.268309     8A    -11.265344     9A    -11.263911
      10A    -11.259074    11A    -11.247590    12A    -11.242288
      13A     -9.192371    14A     -6.877992    15A     -6.876695
      16A     -6.876451    17A     -1.493371    18A     -1.379691
      19A     -1.352118    20A     -1.188988    21A     -1.081895
      22A     -1.076166    23A     -0.969223    24A     -0.957210
      25A     -0.924861    26A     -0.821545    27A     -0.817229
      28A     -0.741959    29A     -0.726467    30A     -0.692017
      31A     -0.682890    32A     -0.670092    33A     -0.657316
      34A     -0.627712    35A     -0.597830    36A     -0.596398
      37A     -0.577502    38A     -0.574486    39A     -0.561514
      40A     -0.539133    41A     -0.527821    42A     -0.516645
      43A     -0.506135    44A     -0.504325    45A     -0.486505
      46A     -0.482502    47A     -0.469259    48A     -0.365104
      49A     -0.347386

  @DF-RHF Final Energy:  -930.97267849907996

   => Energetics <=

    Nuclear Repulsion Energy =            830.2594987050821373
    One-Electron Energy =               -2925.6106728415561520
    Two-Electron Energy =                1164.3784956373942805
    Total Energy =                       -930.9726784990798478
  Basis Set: (AUG-CC-PVTZ AUX)
    Blend: AUG-CC-PVTZ-RI
    Molecular point group: c1

    Geometry (in Angstrom), charge = 0, multiplicity = 1:

       Center              X                  Y                   Z               Mass
    ------------   -----------------  -----------------  -----------------  -----------------
         S           -1.899090913974    -0.008774276255    -0.111523129571    31.972071174400
         O           -2.270096913974    -0.166328276255     1.484110870429    15.994914619570
         O           -2.337011913974    -1.230648276255    -0.767349129571    15.994914619570
         O           -2.380934913974     1.312769723745    -0.514253129571    15.994914619570
         C           -0.132686913974     0.001536723745    -0.062420129571    12.000000000000
         C            1.940280086026    -1.216370276255     0.052880870429    12.000000000000
         C            1.931511086026     1.236393723745     0.033805870429    12.000000000000
         C            0.534526086026     1.225843723745    -0.037743129571    12.000000000000
         C            0.544097086026    -1.217604276255    -0.024136129571    12.000000000000
         C            2.611391086026     0.013015723745     0.080175870429    12.000000000000
         C            2.717978186026    -2.510313276255    -0.191541929571    12.000000000000
         C            2.688640086026     2.538448723745     0.014423870429    12.000000000000
         H           -0.030896913974     2.153314723745    -0.087712129571     1.007825032230
         H           -0.013516913974    -2.150427276255    -0.060644129571     1.007825032230
         H            3.699665086026     0.017482723745     0.144601870429     1.007825032230
         H            2.120699086026    -3.313867276255     0.516236870429     1.007825032230
         H            2.955475086026    -2.822759276255    -0.962364129571     1.007825032230
         H            3.643106086026    -2.412656276255     0.614134870429     1.007825032230
         H            2.933316086026     2.831951723745    -1.011897129571     1.007825032230
         H            2.097835086026     3.343740723745     0.459026870429     1.007825032230
         H            3.626569086026     2.455008723745     0.570221870429     1.007825032230
         H           -2.713405913974     0.668189723745     1.744498870429     1.007825032230

  Basis Set: AUG-CC-PVTZ
    Blend: AUG-CC-PVTZ
  Basis Set: (AUG-CC-PVTZ AUX)
    Blend: AUG-CC-PVTZ-JKFIT
	 Reference Energy          =    -930.9726784990799615 [Eh]
	 Singles Energy            =      -0.0000000000000000 [Eh]
	 Same-Spin Energy          =      -0.6221608626015507 [Eh]
	 Opposite-Spin Energy      =      -1.8709547749065072 [Eh]
	 Correlation Energy        =      -2.4931156375080579 [Eh]
	 Total Energy              =    -933.4657941365879879 [Eh]

	 ================> DF-SCS-MP2 Energies <==================
	-----------------------------------------------------------
	 SCS Same-Spin Scale       =       0.3333333333333333 [-]
	 SCS Opposite-Spin Scale   =       1.2000000000000000 [-]
	 SCS Same-Spin Energy      =      -0.2073869542005169 [Eh]
	 SCS Opposite-Spin Energy  =      -2.2451457298878084 [Eh]
	 SCS Correlation Energy    =      -2.4525326840883253 [Eh]
	 SCS Total Energy          =    -933.4252111831682441 [Eh]
	-----------------------------------------------------------

  Dipole Moment: [D]
     X:     4.3004      Y:     1.2120      Z:     1.8325     Total:     4.8291

*** Psi4 exiting successfully. Buy a developer a beer!
