                               Psi4 1.3.2 release

  ==> Input File <==

--------------------------------------------------------------------------
#psi4
#
memory 32 gb

molecule  {
0 1
  S       -1.9906940    -0.0125100    -0.1365530
  O       -2.3617000    -0.1700640     1.4590810
  O       -2.4286150    -1.2343840    -0.7923790
  O       -2.4725380     1.3090340    -0.5392830
  C       -0.2242900    -0.0021990    -0.0874500
  C        1.8486770    -1.2201060     0.0278510
  C        1.8399080     1.2326580     0.0087760
  C        0.4429230     1.2221080    -0.0627730
  C        0.4541469    -1.2216118    -0.0991379
  C        2.5197880     0.0092800     0.0551460
  C        2.6153160    -2.5166400     0.0331700
  C        2.5970370     2.5347130    -0.0106060
  H       -0.1225000     2.1495790    -0.1127420
  H       -0.1051200    -2.1541630    -0.0856740
  H        3.6080620     0.0137470     0.1195720
  H        2.0290960    -3.3176030     0.4912070
  H        2.8638720    -2.8264950    -0.9873940
  H        3.5515030    -2.4163920     0.5891050
  H        2.8417130     2.8282160    -1.0369270
  H        2.0062320     3.3400050     0.4339970
  H        3.5349660     2.4512730     0.5451920
  H       -2.8050090     0.6644540     1.7194690
units angstrom
no_reorient  #important for SAPT in psi4, default
symmetry c1  #important for SAPT in psi4, default
}

set PROPERTIES_ORIGIN ["COM"]
properties('MP2/aug-cc-pvtz', properties = ['dipole'])
--------------------------------------------------------------------------

    Molecular point group: c1
  Charge       = 0
  Multiplicity = 1
  Basis Set: AUG-CC-PVTZ
    Blend: AUG-CC-PVTZ
  Basis Set: (AUG-CC-PVTZ AUX)
    Blend: AUG-CC-PVTZ-JKFIT

    Orbital Energies [Eh]
    ---------------------

    Doubly Occupied:

       1A    -92.228753     2A    -20.628755     3A    -20.564930
       4A    -20.560715     5A    -11.286224     6A    -11.267511
       7A    -11.267384     8A    -11.262659     9A    -11.262369
      10A    -11.257066    11A    -11.241485    12A    -11.240365
      13A     -9.191663    14A     -6.877280    15A     -6.875982
      16A     -6.875749    17A     -1.492727    18A     -1.379126
      19A     -1.351405    20A     -1.187711    21A     -1.081493
      22A     -1.075389    23A     -0.962434    24A     -0.953661
      25A     -0.924027    26A     -0.819124    27A     -0.809780
      28A     -0.739820    29A     -0.722797    30A     -0.691210
      31A     -0.683679    32A     -0.670459    33A     -0.627771
      34A     -0.602508    35A     -0.600797    36A     -0.591767
      37A     -0.585068    38A     -0.574400    39A     -0.569239
      40A     -0.548084    41A     -0.537543    42A     -0.523494
      43A     -0.508657    44A     -0.506261    45A     -0.500778
      46A     -0.483979    47A     -0.473682    48A     -0.363242
      49A     -0.344854

  @DF-RHF Final Energy:  -931.05664386659100

   => Energetics <=

    Nuclear Repulsion Energy =            830.4140360800183771
    One-Electron Energy =               -2926.1896432276025735
    Two-Electron Energy =                1164.7189632809931936
    Total Energy =                       -931.0566438665910027
  Basis Set: (AUG-CC-PVTZ AUX)
    Blend: AUG-CC-PVTZ-RI
    Molecular point group: c1

    Geometry (in Angstrom), charge = 0, multiplicity = 1:

       Center              X                  Y                   Z               Mass
    ------------   -----------------  -----------------  -----------------  -----------------
         S           -1.898484176745    -0.008589614294    -0.124409080913    31.972071174400
         O           -2.269490176745    -0.166143614294     1.471224919087    15.994914619570
         O           -2.336405176745    -1.230463614294    -0.780235080913    15.994914619570
         O           -2.380328176745     1.312954385706    -0.527139080913    15.994914619570
         C           -0.132080176745     0.001721385706    -0.075306080913    12.000000000000
         C            1.940886823255    -1.216185614294     0.039994919087    12.000000000000
         C            1.932117823255     1.236578385706     0.020919919087    12.000000000000
         C            0.535132823255     1.226028385706    -0.050629080913    12.000000000000
         C            0.546356723255    -1.217691414294    -0.086993980913    12.000000000000
         C            2.611997823255     0.013200385706     0.067289919087    12.000000000000
         C            2.707525823255    -2.512719614294     0.045313919087    12.000000000000
         C            2.689246823255     2.538633385706     0.001537919087    12.000000000000
         H           -0.030290176745     2.153499385706    -0.100598080913     1.007825032230
         H           -0.012910176745    -2.150242614294    -0.073530080913     1.007825032230
         H            3.700271823255     0.017667385706     0.131715919087     1.007825032230
         H            2.121305823255    -3.313682614294     0.503350919087     1.007825032230
         H            2.956081823255    -2.822574614294    -0.975250080913     1.007825032230
         H            3.643712823255    -2.412471614294     0.601248919087     1.007825032230
         H            2.933922823255     2.832136385706    -1.024783080913     1.007825032230
         H            2.098441823255     3.343925385706     0.446140919087     1.007825032230
         H            3.627175823255     2.455193385706     0.557335919087     1.007825032230
         H           -2.712799176745     0.668374385706     1.731612919087     1.007825032230

  Basis Set: AUG-CC-PVTZ
    Blend: AUG-CC-PVTZ
  Basis Set: (AUG-CC-PVTZ AUX)
    Blend: AUG-CC-PVTZ-JKFIT
	 Reference Energy          =    -931.0566438665910027 [Eh]
	 Singles Energy            =      -0.0000000000000000 [Eh]
	 Same-Spin Energy          =      -0.6213386941867243 [Eh]
	 Opposite-Spin Energy      =      -1.8677722851553273 [Eh]
	 Correlation Energy        =      -2.4891109793420516 [Eh]
	 Total Energy              =    -933.5457548459330610 [Eh]

	 ================> DF-SCS-MP2 Energies <==================
	-----------------------------------------------------------
	 SCS Same-Spin Scale       =       0.3333333333333333 [-]
	 SCS Opposite-Spin Scale   =       1.2000000000000000 [-]
	 SCS Same-Spin Energy      =      -0.2071128980622414 [Eh]
	 SCS Opposite-Spin Energy  =      -2.2413267421863927 [Eh]
	 SCS Correlation Energy    =      -2.4484396402486341 [Eh]
	 SCS Total Energy          =    -933.5050835068395827 [Eh]
	-----------------------------------------------------------

  Dipole Moment: [D]
     X:     4.4273      Y:     1.0037      Z:     1.9060     Total:     4.9235

*** Psi4 exiting successfully. Buy a developer a beer!
