                               Psi4 1.3.2 release

  ==> Input File <==

--------------------------------------------------------------------------
#psi4
#
memory 32 gb

molecule  {
0 1
  S       -1.9906940    -0.0125100    -0.1365530
  O       -2.3617000    -0.1700640     1.4590810
  O       -2.4286150    -1.2343840    -0.7923790
  O       -2.4725380     1.3090340    -0.5392830
  C       -0.2242900    -0.0021990    -0.0874500
  C        1.8486770    -1.2201060     0.0278510
  C        1.8399080     1.2326580     0.0087760
  C        0.4429230     1.2221080    -0.0627730
  C        0.4591056    -1.2224272    -0.2490537
  C        2.5197880     0.0092800     0.0551460
  C        2.6153160    -2.5166400     0.0331700
  C        2.5970370     2.5347130    -0.0106060
  H       -0.1225000     2.1495790    -0.1127420
  H       -0.1051200    -2.1541630    -0.0856740
  H        3.6080620     0.0137470     0.1195720
  H        2.0290960    -3.3176030     0.4912070
  H        2.8638720    -2.8264950    -0.9873940
  H        3.5515030    -2.4163920     0.5891050
  H        2.8417130     2.8282160    -1.0369270
  H        2.0062320     3.3400050     0.4339970
  H        3.5349660     2.4512730     0.5451920
  H       -2.8050090     0.6644540     1.7194690
units angstrom
no_reorient  #important for SAPT in psi4, default
symmetry c1  #important for SAPT in psi4, default
}

set PROPERTIES_ORIGIN ["COM"]
properties('MP2/aug-cc-pvtz', properties = ['dipole'])
--------------------------------------------------------------------------

    Molecular point group: c1
  Charge       = 0
  Multiplicity = 1
  Basis Set: AUG-CC-PVTZ
    Blend: AUG-CC-PVTZ
  Basis Set: (AUG-CC-PVTZ AUX)
    Blend: AUG-CC-PVTZ-JKFIT

    Orbital Energies [Eh]
    ---------------------

    Doubly Occupied:

       1A    -92.228532     2A    -20.629092     3A    -20.564645
       4A    -20.560386     5A    -11.288723     6A    -11.270793
       7A    -11.269156     8A    -11.265483     9A    -11.262088
      10A    -11.256616    11A    -11.242134    12A    -11.240594
      13A     -9.191485    14A     -6.877091    15A     -6.875803
      16A     -6.875568    17A     -1.492653    18A     -1.379185
      19A     -1.351133    20A     -1.186244    21A     -1.080610
      22A     -1.074762    23A     -0.962755    24A     -0.952670
      25A     -0.923635    26A     -0.818309    27A     -0.808437
      28A     -0.738475    29A     -0.721089    30A     -0.690356
      31A     -0.682123    32A     -0.669030    33A     -0.627458
      34A     -0.602732    35A     -0.601780    36A     -0.589469
      37A     -0.583491    38A     -0.574032    39A     -0.569356
      40A     -0.547846    41A     -0.536350    42A     -0.523012
      43A     -0.509445    44A     -0.504511    45A     -0.498608
      46A     -0.483642    47A     -0.473558    48A     -0.362296
      49A     -0.344236

  @DF-RHF Final Energy:  -931.04480187583295

   => Energetics <=

    Nuclear Repulsion Energy =            829.8521667081936357
    One-Electron Energy =               -2925.0709883979479855
    Two-Electron Energy =                1164.1740198139214044
    Total Energy =                       -931.0448018758329454
  Basis Set: (AUG-CC-PVTZ AUX)
    Blend: AUG-CC-PVTZ-RI
    Molecular point group: c1

    Geometry (in Angstrom), charge = 0, multiplicity = 1:

       Center              X                  Y                   Z               Mass
    ------------   -----------------  -----------------  -----------------  -----------------
         S           -1.898804032574    -0.008537017758    -0.114738916869    31.972071174400
         O           -2.269810032574    -0.166091017758     1.480895083131    15.994914619570
         O           -2.336725032574    -1.230411017758    -0.770564916869    15.994914619570
         O           -2.380648032574     1.313006982242    -0.517468916869    15.994914619570
         C           -0.132400032574     0.001773982242    -0.065635916869    12.000000000000
         C            1.940566967426    -1.216133017758     0.049665083131    12.000000000000
         C            1.931797967426     1.236630982242     0.030590083131    12.000000000000
         C            0.534812967426     1.226080982242    -0.040958916869    12.000000000000
         C            0.550995567426    -1.218454217758    -0.227239616869    12.000000000000
         C            2.611677967426     0.013252982242     0.076960083131    12.000000000000
         C            2.707205967426    -2.512667017758     0.054984083131    12.000000000000
         C            2.688926967426     2.538685982242     0.011208083131    12.000000000000
         H           -0.030610032574     2.153551982242    -0.090927916869     1.007825032230
         H           -0.013230032574    -2.150190017758    -0.063859916869     1.007825032230
         H            3.699951967426     0.017719982242     0.141386083131     1.007825032230
         H            2.120985967426    -3.313630017758     0.513021083131     1.007825032230
         H            2.955761967426    -2.822522017758    -0.965579916869     1.007825032230
         H            3.643392967426    -2.412419017758     0.610919083131     1.007825032230
         H            2.933602967426     2.832188982242    -1.015112916869     1.007825032230
         H            2.098121967426     3.343977982242     0.455811083131     1.007825032230
         H            3.626855967426     2.455245982242     0.567006083131     1.007825032230
         H           -2.713119032574     0.668426982242     1.741283083131     1.007825032230

  Basis Set: AUG-CC-PVTZ
    Blend: AUG-CC-PVTZ
  Basis Set: (AUG-CC-PVTZ AUX)
    Blend: AUG-CC-PVTZ-JKFIT
	 Reference Energy          =    -931.0448018758329454 [Eh]
	 Singles Energy            =      -0.0000000000000000 [Eh]
	 Same-Spin Energy          =      -0.6220089625247652 [Eh]
	 Opposite-Spin Energy      =      -1.8694957023428098 [Eh]
	 Correlation Energy        =      -2.4915046648675752 [Eh]
	 Total Energy              =    -933.5363065407004797 [Eh]

	 ================> DF-SCS-MP2 Energies <==================
	-----------------------------------------------------------
	 SCS Same-Spin Scale       =       0.3333333333333333 [-]
	 SCS Opposite-Spin Scale   =       1.2000000000000000 [-]
	 SCS Same-Spin Energy      =      -0.2073363208415884 [Eh]
	 SCS Opposite-Spin Energy  =      -2.2433948428113717 [Eh]
	 SCS Correlation Energy    =      -2.4507311636529603 [Eh]
	 SCS Total Energy          =    -933.4955330394858493 [Eh]
	-----------------------------------------------------------

  Dipole Moment: [D]
     X:     4.4644      Y:     1.0519      Z:     1.9581     Total:     4.9871

*** Psi4 exiting successfully. Buy a developer a beer!
