                               Psi4 1.3.2 release

  ==> Input File <==

--------------------------------------------------------------------------
#psi4
#
memory 32 gb

molecule  {
0 1
  S       -1.9906940    -0.0125100    -0.1365530
  O       -2.3617000    -0.1700640     1.4590810
  O       -2.4286150    -1.2343840    -0.7923790
  O       -2.4725380     1.3090340    -0.5392830
  C       -0.2242900    -0.0021990    -0.0874500
  C        1.8486770    -1.2201060     0.0278510
  C        1.8399080     1.2326580     0.0087760
  C        0.4429230     1.2221080    -0.0627730
  C        0.4524940    -1.2213400    -0.0491660
  C        2.5197880     0.0092800     0.0551460
  C        2.6175278    -2.5161218    -0.0167784
  C        2.5970370     2.5347130    -0.0106060
  H       -0.1225000     2.1495790    -0.1127420
  H       -0.1051200    -2.1541630    -0.0856740
  H        3.6080620     0.0137470     0.1195720
  H        2.0290960    -3.3176030     0.4912070
  H        2.8638720    -2.8264950    -0.9873940
  H        3.5515030    -2.4163920     0.5891050
  H        2.8417130     2.8282160    -1.0369270
  H        2.0062320     3.3400050     0.4339970
  H        3.5349660     2.4512730     0.5451920
  H       -2.8050090     0.6644540     1.7194690
units angstrom
no_reorient  #important for SAPT in psi4, default
symmetry c1  #important for SAPT in psi4, default
}

set PROPERTIES_ORIGIN ["COM"]
properties('MP2/aug-cc-pvtz', properties = ['dipole'])
--------------------------------------------------------------------------

    Molecular point group: c1
  Charge       = 0
  Multiplicity = 1
  Basis Set: AUG-CC-PVTZ
    Blend: AUG-CC-PVTZ
  Basis Set: (AUG-CC-PVTZ AUX)
    Blend: AUG-CC-PVTZ-JKFIT

    Orbital Energies [Eh]
    ---------------------

    Doubly Occupied:

       1A    -92.228822     2A    -20.628680     3A    -20.565046
       4A    -20.560806     5A    -11.286070     6A    -11.267468
       7A    -11.266973     8A    -11.263177     9A    -11.262229
      10A    -11.257333    11A    -11.241550    12A    -11.240348
      13A     -9.191727    14A     -6.877347    15A     -6.876048
      16A     -6.875809    17A     -1.492767    18A     -1.379124
      19A     -1.351495    20A     -1.187961    21A     -1.081580
      22A     -1.075478    23A     -0.962524    24A     -0.953879
      25A     -0.924077    26A     -0.819159    27A     -0.810111
      28A     -0.740105    29A     -0.723026    30A     -0.691246
      31A     -0.683239    32A     -0.670348    33A     -0.627725
      34A     -0.609825    35A     -0.600792    36A     -0.594051
      37A     -0.586624    38A     -0.574110    39A     -0.565423
      40A     -0.542091    41A     -0.535777    42A     -0.523704
      43A     -0.509478    44A     -0.505802    45A     -0.501723
      46A     -0.483957    47A     -0.473153    48A     -0.363743
      49A     -0.345750

  @DF-RHF Final Energy:  -931.05460910340628

   => Energetics <=

    Nuclear Repulsion Energy =            830.4594455805489588
    One-Electron Energy =               -2926.2695478920518326
    Two-Electron Energy =                1164.7554932080963681
    Total Energy =                       -931.0546091034063920
  Basis Set: (AUG-CC-PVTZ AUX)
    Blend: AUG-CC-PVTZ-RI
    Molecular point group: c1

    Geometry (in Angstrom), charge = 0, multiplicity = 1:

       Center              X                  Y                   Z               Mass
    ------------   -----------------  -----------------  -----------------  -----------------
         S           -1.898520228013    -0.008640572429    -0.124410596756    31.972071174400
         O           -2.269526228013    -0.166194572429     1.471223403244    15.994914619570
         O           -2.336441228013    -1.230514572429    -0.780236596756    15.994914619570
         O           -2.380364228013     1.312903427571    -0.527140596756    15.994914619570
         C           -0.132116228013     0.001670427571    -0.075307596756    12.000000000000
         C            1.940850771987    -1.216236572429     0.039993403244    12.000000000000
         C            1.932081771987     1.236527427571     0.020918403244    12.000000000000
         C            0.535096771987     1.225977427570    -0.050630596756    12.000000000000
         C            0.544667771987    -1.217470572429    -0.037023596756    12.000000000000
         C            2.611961771987     0.013149427571     0.067288403244    12.000000000000
         C            2.709701571987    -2.512252372429    -0.004635996756    12.000000000000
         C            2.689210771987     2.538582427571     0.001536403244    12.000000000000
         H           -0.030326228013     2.153448427571    -0.100599596756     1.007825032230
         H           -0.012946228013    -2.150293572429    -0.073531596756     1.007825032230
         H            3.700235771987     0.017616427571     0.131714403244     1.007825032230
         H            2.121269771987    -3.313733572429     0.503349403244     1.007825032230
         H            2.956045771987    -2.822625572429    -0.975251596756     1.007825032230
         H            3.643676771987    -2.412522572429     0.601247403244     1.007825032230
         H            2.933886771987     2.832085427571    -1.024784596756     1.007825032230
         H            2.098405771987     3.343874427571     0.446139403244     1.007825032230
         H            3.627139771987     2.455142427571     0.557334403244     1.007825032230
         H           -2.712835228013     0.668323427571     1.731611403244     1.007825032230

  Basis Set: AUG-CC-PVTZ
    Blend: AUG-CC-PVTZ
  Basis Set: (AUG-CC-PVTZ AUX)
    Blend: AUG-CC-PVTZ-JKFIT
	 Reference Energy          =    -931.0546091034062783 [Eh]
	 Singles Energy            =      -0.0000000000000000 [Eh]
	 Same-Spin Energy          =      -0.6213247736034481 [Eh]
	 Opposite-Spin Energy      =      -1.8678150397547428 [Eh]
	 Correlation Energy        =      -2.4891398133581908 [Eh]
	 Total Energy              =    -933.5437489167644571 [Eh]

	 ================> DF-SCS-MP2 Energies <==================
	-----------------------------------------------------------
	 SCS Same-Spin Scale       =       0.3333333333333333 [-]
	 SCS Opposite-Spin Scale   =       1.2000000000000000 [-]
	 SCS Same-Spin Energy      =      -0.2071082578678160 [Eh]
	 SCS Opposite-Spin Energy  =      -2.2413780477056915 [Eh]
	 SCS Correlation Energy    =      -2.4484863055735073 [Eh]
	 SCS Total Energy          =    -933.5030954089797888 [Eh]
	-----------------------------------------------------------

  Dipole Moment: [D]
     X:     4.4132      Y:     1.0303      Z:     1.8704     Total:     4.9027

*** Psi4 exiting successfully. Buy a developer a beer!
