                               Psi4 1.3.2 release

  ==> Input File <==

--------------------------------------------------------------------------
#psi4
#
memory 32 gb

molecule  {
0 1
 Br       -0.8044715    -0.0353120    -0.0000060
  C        1.0221410     0.6921140     0.0000080
  C        2.0684890    -0.4035410     0.0000140
  H        1.0757080     1.3191480    -0.8895020
  H        1.0756950     1.3191470     0.8895210
  H        3.0670650     0.0462820     0.0000240
  H        1.9700900    -1.0341030     0.8857770
  H        1.9701040    -1.0341000    -0.8857520
units angstrom
no_reorient  #important for SAPT in psi4, default
symmetry c1  #important for SAPT in psi4, default
}

set PROPERTIES_ORIGIN ["COM"]
properties('MP2/aug-cc-pvtz', properties = ['dipole'])
--------------------------------------------------------------------------

    Molecular point group: c1
  Charge       = 0
  Multiplicity = 1
  Basis Set: AUG-CC-PVTZ
    Blend: AUG-CC-PVTZ
  Basis Set: (AUG-CC-PVTZ AUX)
    Blend: AUG-CC-PVTZ-JKFIT

    Orbital Energies [Eh]
    ---------------------

    Doubly Occupied:

       1A   -490.006834     2A    -65.146776     3A    -58.502014
       4A    -58.500719     5A    -58.500712     6A    -11.295405
       7A    -11.237683     8A     -9.819532     9A     -7.430802
      10A     -7.424555    11A     -7.424510    12A     -3.174261
      13A     -3.171047    14A     -3.171014    15A     -3.162959
      16A     -3.162958    17A     -1.084680    18A     -0.970370
      19A     -0.838297    20A     -0.646960    21A     -0.601792
      22A     -0.556297    23A     -0.527584    24A     -0.472943
      25A     -0.398124    26A     -0.397274

  @DF-RHF Final Energy: -2651.14326873731943

   => Energetics <=

    Nuclear Repulsion Energy =            163.4540005258544397
    One-Electron Energy =               -4013.9423309553158106
    Two-Electron Energy =                1199.3450616921415985
    Total Energy =                      -2651.1432687373198860
  Basis Set: (AUG-CC-PVTZ AUX)
    Blend: AUG-CC-PVTZ-RI
    Molecular point group: c1

    Geometry (in Angstrom), charge = 0, multiplicity = 1:

       Center              X                  Y                   Z               Mass
    ------------   -----------------  -----------------  -----------------  -----------------
         BR          -0.645430483639    -0.047328851600    -0.000004694135    78.918337600000
         C            1.181182016361     0.680097148400     0.000009305865    12.000000000000
         C            2.227530016361    -0.415557851600     0.000015305865    12.000000000000
         H            1.234749016361     1.307131148400    -0.889500694135     1.007825032230
         H            1.234736016361     1.307130148400     0.889522305865     1.007825032230
         H            3.226106016361     0.034265148400     0.000025305865     1.007825032230
         H            2.129131016361    -1.046119851600     0.885778305865     1.007825032230
         H            2.129145016361    -1.046116851600    -0.885750694135     1.007825032230

  Basis Set: AUG-CC-PVTZ
    Blend: AUG-CC-PVTZ
  Basis Set: (AUG-CC-PVTZ AUX)
    Blend: AUG-CC-PVTZ-JKFIT
	 Reference Energy          =   -2651.1432687373194312 [Eh]
	 Singles Energy            =      -0.0000000000000000 [Eh]
	 Same-Spin Energy          =      -0.1700478127796650 [Eh]
	 Opposite-Spin Energy      =      -0.5192309214786305 [Eh]
	 Correlation Energy        =      -0.6892787342582956 [Eh]
	 Total Energy              =   -2651.8325474715775272 [Eh]

	 ================> DF-SCS-MP2 Energies <==================
	-----------------------------------------------------------
	 SCS Same-Spin Scale       =       0.3333333333333333 [-]
	 SCS Opposite-Spin Scale   =       1.2000000000000000 [-]
	 SCS Same-Spin Energy      =      -0.0566826042598883 [Eh]
	 SCS Opposite-Spin Energy  =      -0.6230771057743566 [Eh]
	 SCS Correlation Energy    =      -0.6797597100342450 [Eh]
	 SCS Total Energy          =   -2651.8230284473538632 [Eh]
	-----------------------------------------------------------

  Dipole Moment: [D]
     X:     2.0492      Y:     0.6047      Z:     0.0000     Total:     2.1366

*** Psi4 exiting successfully. Buy a developer a beer!
