                               Psi4 1.4a3.dev225

  ==> Input File <==

--------------------------------------------------------------------------
#psi4
#
memory 32 gb

molecule  {
0 1
 Br       -0.7914540    -0.0671020    -0.0000060
  C        1.0221920     0.6923710     0.0000090
  C        2.0821024    -0.4180262     0.0000151
  H        1.0755050     1.3193040    -0.8895550
  H        1.0754920     1.3193020     0.8895750
  H        3.0672480     0.0455380     0.0000230
  H        1.9698670    -1.0342320     0.8857190
  H        1.9698810    -1.0342290    -0.8856930
units angstrom
no_reorient  #important for SAPT in psi4, default
symmetry c1  #important for SAPT in psi4, default
}

set PROPERTIES_ORIGIN ["COM"]
properties('MP2/aug-cc-pvtz', properties = ['dipole'])
--------------------------------------------------------------------------

    Molecular point group: c1
  Charge       = 0
  Multiplicity = 1
  Basis Set: AUG-CC-PVTZ
    Blend: AUG-CC-PVTZ
  Basis Set: (AUG-CC-PVTZ AUX)
    Blend: AUG-CC-PVTZ-JKFIT

    Orbital Energies [Eh]
    ---------------------

    Doubly Occupied:

       1A   -490.006733     2A    -65.146670     3A    -58.501909
       4A    -58.500614     5A    -58.500609     6A    -11.296096
       7A    -11.236818     8A     -9.819423     9A     -7.430690
      10A     -7.424445    11A     -7.424408    12A     -3.174150
      13A     -3.170934    14A     -3.170909    15A     -3.162854
      16A     -3.162853    17A     -1.082115    18A     -0.969291
      19A     -0.839516    20A     -0.646213    21A     -0.602168
      22A     -0.551226    23A     -0.531486    24A     -0.474234
      25A     -0.397379    26A     -0.397376

  @DF-RHF Final Energy: -2651.14306936118510

   => Energetics <=

    Nuclear Repulsion Energy =            163.3933280310161535
    One-Electron Energy =               -4013.8305539926172969
    Two-Electron Energy =                1199.2941566004158176
    Total Energy =                      -2651.1430693611855531
  Basis Set: (AUG-CC-PVTZ AUX)
    Blend: AUG-CC-PVTZ-RI
    Molecular point group: c1

    Geometry (in Angstrom), charge = 0, multiplicity = 1:

       Center              X                  Y                   Z               Mass
    ------------   -----------------  -----------------  -----------------  -----------------
         BR          -0.643441568364    -0.054291955053    -0.000004936895    78.918337600000
         C            1.170204431636     0.705181044947     0.000010063105    12.000000000000
         C            2.230114831636    -0.405216155053     0.000016163105    12.000000000000
         H            1.223517431636     1.332114044947    -0.889553936895     1.007825032230
         H            1.223504431636     1.332112044947     0.889576063105     1.007825032230
         H            3.215260431636     0.058348044947     0.000024063105     1.007825032230
         H            2.117879431636    -1.021421955053     0.885720063105     1.007825032230
         H            2.117893431636    -1.021418955053    -0.885691936895     1.007825032230

  Basis Set: AUG-CC-PVTZ
    Blend: AUG-CC-PVTZ
  Basis Set: (AUG-CC-PVTZ AUX)
    Blend: AUG-CC-PVTZ-JKFIT
	 Reference Energy          =   -2651.1430693611850984 [Eh]
	 Singles Energy            =      -0.0000000000000000 [Eh]
	 Same-Spin Energy          =      -0.1699406189793392 [Eh]
	 Opposite-Spin Energy      =      -0.5191616633710650 [Eh]
	 Correlation Energy        =      -0.6891022823504042 [Eh]
	 Total Energy              =   -2651.8321716435352755 [Eh]

	 ================> DF-SCS-MP2 Energies <==================
	-----------------------------------------------------------
	 SCS Same-Spin Scale       =       0.3333333333333333 [-]
	 SCS Opposite-Spin Scale   =       1.2000000000000000 [-]
	 SCS Same-Spin Energy      =      -0.0566468729931131 [Eh]
	 SCS Opposite-Spin Energy  =      -0.6229939960452779 [Eh]
	 SCS Correlation Energy    =      -0.6796408690383910 [Eh]
	 SCS Total Energy          =   -2651.8227102302234925 [Eh]
	-----------------------------------------------------------

  Dipole Moment: [D]
     X:     2.0314      Y:     0.6320      Z:     0.0000     Total:     2.1275

*** Psi4 exiting successfully. Buy a developer a beer!
