                               Psi4 1.4a3.dev225

  ==> Input File <==

--------------------------------------------------------------------------
#psi4
#
memory 32 gb

molecule  {
0 1
 Br       -0.7914540    -0.0671020    -0.0000060
  C        1.0221920     0.6923710     0.0000090
  C        2.0544836    -0.3890918     0.0000149
  H        1.0755050     1.3193040    -0.8895550
  H        1.0754920     1.3193020     0.8895750
  H        3.0672480     0.0455380     0.0000230
  H        1.9698670    -1.0342320     0.8857190
  H        1.9698810    -1.0342290    -0.8856930
units angstrom
no_reorient  #important for SAPT in psi4, default
symmetry c1  #important for SAPT in psi4, default
}

set PROPERTIES_ORIGIN ["COM"]
properties('MP2/aug-cc-pvtz', properties = ['dipole'])
--------------------------------------------------------------------------

    Molecular point group: c1
  Charge       = 0
  Multiplicity = 1
  Basis Set: AUG-CC-PVTZ
    Blend: AUG-CC-PVTZ
  Basis Set: (AUG-CC-PVTZ AUX)
    Blend: AUG-CC-PVTZ-JKFIT

    Orbital Energies [Eh]
    ---------------------

    Doubly Occupied:

       1A   -490.006904     2A    -65.146858     3A    -58.502096
       4A    -58.500798     5A    -58.500793     6A    -11.294883
       7A    -11.237902     8A     -9.819624     9A     -7.430898
      10A     -7.424638    11A     -7.424603    12A     -3.174358
      13A     -3.171131    14A     -3.171114    15A     -3.163043
      16A     -3.163041    17A     -1.088031    18A     -0.970052
      19A     -0.837696    20A     -0.647832    21A     -0.602387
      22A     -0.560154    23A     -0.522914    24A     -0.471538
      25A     -0.398536    26A     -0.397689

  @DF-RHF Final Energy: -2651.14267382390199

   => Energetics <=

    Nuclear Repulsion Energy =            164.0747663319650655
    One-Electron Energy =               -4015.1758513908389432
    Two-Electron Energy =                1199.9584112349714360
    Total Energy =                      -2651.1426738239024417
  Basis Set: (AUG-CC-PVTZ AUX)
    Blend: AUG-CC-PVTZ-RI
    Molecular point group: c1

    Geometry (in Angstrom), charge = 0, multiplicity = 1:

       Center              X                  Y                   Z               Mass
    ------------   -----------------  -----------------  -----------------  -----------------
         BR          -0.640371603662    -0.057508155130    -0.000004914664    78.918337600000
         C            1.173274396338     0.701964844870     0.000010085336    12.000000000000
         C            2.205565996338    -0.379497955130     0.000015985336    12.000000000000
         H            1.226587396338     1.328897844870    -0.889553914664     1.007825032230
         H            1.226574396338     1.328895844870     0.889576085336     1.007825032230
         H            3.218330396338     0.055131844870     0.000024085336     1.007825032230
         H            2.120949396338    -1.024638155130     0.885720085336     1.007825032230
         H            2.120963396338    -1.024635155130    -0.885691914664     1.007825032230

  Basis Set: AUG-CC-PVTZ
    Blend: AUG-CC-PVTZ
  Basis Set: (AUG-CC-PVTZ AUX)
    Blend: AUG-CC-PVTZ-JKFIT
	 Reference Energy          =   -2651.1426738239019869 [Eh]
	 Singles Energy            =      -0.0000000000000000 [Eh]
	 Same-Spin Energy          =      -0.1702569847035177 [Eh]
	 Opposite-Spin Energy      =      -0.5194579596226586 [Eh]
	 Correlation Energy        =      -0.6897149443261763 [Eh]
	 Total Energy              =   -2651.8323887682281566 [Eh]

	 ================> DF-SCS-MP2 Energies <==================
	-----------------------------------------------------------
	 SCS Same-Spin Scale       =       0.3333333333333333 [-]
	 SCS Opposite-Spin Scale   =       1.2000000000000000 [-]
	 SCS Same-Spin Energy      =      -0.0567523282345059 [Eh]
	 SCS Opposite-Spin Energy  =      -0.6233495515471903 [Eh]
	 SCS Correlation Energy    =      -0.6801018797816962 [Eh]
	 SCS Total Energy          =   -2651.8227757036838739 [Eh]
	-----------------------------------------------------------

  Dipole Moment: [D]
     X:     2.0364      Y:     0.6285      Z:     0.0000     Total:     2.1312

*** Psi4 exiting successfully. Buy a developer a beer!
