                               Psi4 1.3.2 release

  ==> Input File <==

--------------------------------------------------------------------------
#psi4
#
memory 32 gb

molecule  {
0 1
 Br       -0.7914980    -0.0670800    -0.0000060
  C        1.0221410     0.6921140     0.0000080
  C        2.0684890    -0.4035410     0.0000140
  H        1.0757080     1.3191480    -0.8895020
  H        1.0756950     1.3191470     0.8895210
  H        3.0670650     0.0462820     0.0000240
  H        1.9700900    -1.0341030     0.8857770
  H        1.9701040    -1.0341000    -0.8857520
units angstrom
no_reorient  #important for SAPT in psi4, default
symmetry c1  #important for SAPT in psi4, default
}

set PROPERTIES_ORIGIN ["COM"]
properties('MP2/aug-cc-pvtz', properties = ['dipole'])
--------------------------------------------------------------------------

    Molecular point group: c1
  Charge       = 0
  Multiplicity = 1
  Basis Set: AUG-CC-PVTZ
    Blend: AUG-CC-PVTZ
  Basis Set: (AUG-CC-PVTZ AUX)
    Blend: AUG-CC-PVTZ-JKFIT

    Orbital Energies [Eh]
    ---------------------

    Doubly Occupied:

       1A   -490.006832     2A    -65.146778     3A    -58.502016
       4A    -58.500719     5A    -58.500714     6A    -11.295492
       7A    -11.237285     8A     -9.819537     9A     -7.430807
      10A     -7.424555    11A     -7.424519    12A     -3.174268
      13A     -3.171046    14A     -3.171025    15A     -3.162962
      16A     -3.162961    17A     -1.084986    18A     -0.969670
      19A     -0.838613    20A     -0.646953    21A     -0.602014
      22A     -0.555853    23A     -0.527269    24A     -0.473041
      25A     -0.397992    26A     -0.397536

  @DF-RHF Final Energy: -2651.14325364949536

   => Energetics <=

    Nuclear Repulsion Energy =            163.7320245273756427
    One-Electron Energy =               -4014.4996690448560912
    Two-Electron Energy =                1199.6243908679850847
    Total Energy =                      -2651.1432536494949090
  Basis Set: (AUG-CC-PVTZ AUX)
    Blend: AUG-CC-PVTZ-RI
    Molecular point group: c1

    Geometry (in Angstrom), charge = 0, multiplicity = 1:

       Center              X                  Y                   Z               Mass
    ------------   -----------------  -----------------  -----------------  -----------------
         BR          -0.641940784265    -0.055874022119    -0.000004694135    78.918337600000
         C            1.171698215735     0.703319977881     0.000009305865    12.000000000000
         C            2.218046215735    -0.392335022119     0.000015305865    12.000000000000
         H            1.225265215735     1.330353977881    -0.889500694135     1.007825032230
         H            1.225252215735     1.330352977881     0.889522305865     1.007825032230
         H            3.216622215735     0.057487977881     0.000025305865     1.007825032230
         H            2.119647215735    -1.022897022119     0.885778305865     1.007825032230
         H            2.119661215735    -1.022894022119    -0.885750694135     1.007825032230

  Basis Set: AUG-CC-PVTZ
    Blend: AUG-CC-PVTZ
  Basis Set: (AUG-CC-PVTZ AUX)
    Blend: AUG-CC-PVTZ-JKFIT
	 Reference Energy          =   -2651.1432536494953638 [Eh]
	 Singles Energy            =      -0.0000000000000000 [Eh]
	 Same-Spin Energy          =      -0.1700849885922400 [Eh]
	 Opposite-Spin Energy      =      -0.5192852019863438 [Eh]
	 Correlation Energy        =      -0.6893701905785837 [Eh]
	 Total Energy              =   -2651.8326238400741204 [Eh]

	 ================> DF-SCS-MP2 Energies <==================
	-----------------------------------------------------------
	 SCS Same-Spin Scale       =       0.3333333333333333 [-]
	 SCS Opposite-Spin Scale   =       1.2000000000000000 [-]
	 SCS Same-Spin Energy      =      -0.0566949961974133 [Eh]
	 SCS Opposite-Spin Energy  =      -0.6231422423836125 [Eh]
	 SCS Correlation Energy    =      -0.6798372385810258 [Eh]
	 SCS Total Energy          =   -2651.8230908880764218 [Eh]
	-----------------------------------------------------------

  Dipole Moment: [D]
     X:     2.0336      Y:     0.6302      Z:     0.0000     Total:     2.1291

*** Psi4 exiting successfully. Buy a developer a beer!
