                               Psi4 1.3.2 release

  ==> Input File <==

--------------------------------------------------------------------------
#psi4
#
memory 32 gb

molecule  {
0 1
 Br       -0.7779720    -0.0986167    -0.0000059
  C        1.0221410     0.6921140     0.0000080
  C        2.0684890    -0.4035410     0.0000140
  H        1.0757080     1.3191480    -0.8895020
  H        1.0756950     1.3191470     0.8895210
  H        3.0670650     0.0462820     0.0000240
  H        1.9700900    -1.0341030     0.8857770
  H        1.9701040    -1.0341000    -0.8857520
units angstrom
no_reorient  #important for SAPT in psi4, default
symmetry c1  #important for SAPT in psi4, default
}

set PROPERTIES_ORIGIN ["COM"]
properties('MP2/aug-cc-pvtz', properties = ['dipole'])
--------------------------------------------------------------------------

    Molecular point group: c1
  Charge       = 0
  Multiplicity = 1
  Basis Set: AUG-CC-PVTZ
    Blend: AUG-CC-PVTZ
  Basis Set: (AUG-CC-PVTZ AUX)
    Blend: AUG-CC-PVTZ-JKFIT

    Orbital Energies [Eh]
    ---------------------

    Doubly Occupied:

       1A   -490.006828     2A    -65.146778     3A    -58.502017
       4A    -58.500718     5A    -58.500716     6A    -11.295576
       7A    -11.236887     8A     -9.819542     9A     -7.430814
      10A     -7.424554    11A     -7.424528    12A     -3.174275
      13A     -3.171046    14A     -3.171037    15A     -3.162963
      16A     -3.162962    17A     -1.085317    18A     -0.968953
      19A     -0.838935    20A     -0.646954    21A     -0.602248
      22A     -0.555413    23A     -0.526957    24A     -0.473117
      25A     -0.397821    26A     -0.397796

  @DF-RHF Final Energy: -2651.14313481912905

   => Energetics <=

    Nuclear Repulsion Energy =            164.0188776587593225
    One-Electron Energy =               -4015.0745212737415386
    Two-Electron Energy =                1199.9125087958534550
    Total Energy =                      -2651.1431348191290454
  Basis Set: (AUG-CC-PVTZ AUX)
    Blend: AUG-CC-PVTZ-RI
    Molecular point group: c1

    Geometry (in Angstrom), charge = 0, multiplicity = 1:

       Center              X                  Y                   Z               Mass
    ------------   -----------------  -----------------  -----------------  -----------------
         BR          -0.638302469721    -0.064356976007    -0.000004667236    78.918337600000
         C            1.161810530279     0.726373723993     0.000009232764    12.000000000000
         C            2.208158530279    -0.369281276007     0.000015232764    12.000000000000
         H            1.215377530279     1.353407723993    -0.889500767236     1.007825032230
         H            1.215364530279     1.353406723993     0.889522232764     1.007825032230
         H            3.206734530279     0.080541723993     0.000025232764     1.007825032230
         H            2.109759530279    -0.999843276007     0.885778232764     1.007825032230
         H            2.109773530279    -0.999840276007    -0.885750767236     1.007825032230

  Basis Set: AUG-CC-PVTZ
    Blend: AUG-CC-PVTZ
  Basis Set: (AUG-CC-PVTZ AUX)
    Blend: AUG-CC-PVTZ-JKFIT
	 Reference Energy          =   -2651.1431348191290454 [Eh]
	 Singles Energy            =      -0.0000000000000000 [Eh]
	 Same-Spin Energy          =      -0.1701285980770431 [Eh]
	 Opposite-Spin Energy      =      -0.5193512710908996 [Eh]
	 Correlation Energy        =      -0.6894798691679427 [Eh]
	 Total Energy              =   -2651.8326146882968715 [Eh]

	 ================> DF-SCS-MP2 Energies <==================
	-----------------------------------------------------------
	 SCS Same-Spin Scale       =       0.3333333333333333 [-]
	 SCS Opposite-Spin Scale   =       1.2000000000000000 [-]
	 SCS Same-Spin Energy      =      -0.0567095326923477 [Eh]
	 SCS Opposite-Spin Energy  =      -0.6232215253090795 [Eh]
	 SCS Correlation Energy    =      -0.6799310580014272 [Eh]
	 SCS Total Energy          =   -2651.8230658771303752 [Eh]
	-----------------------------------------------------------

  Dipole Moment: [D]
     X:     2.0177      Y:     0.6554      Z:     0.0000     Total:     2.1215

*** Psi4 exiting successfully. Buy a developer a beer!
