                               Psi4 1.3.2 release

  ==> Input File <==

--------------------------------------------------------------------------
#psi4
#
memory 32 gb

molecule  {
0 1
 Br       -0.7914980    -0.0670800    -0.0000060
  C        1.0221410     0.6921140     0.0000080
  C        2.1375537    -0.4758602     0.0000144
  H        1.0757080     1.3191480    -0.8895020
  H        1.0756950     1.3191470     0.8895210
  H        3.0670650     0.0462820     0.0000240
  H        1.9700900    -1.0341030     0.8857770
  H        1.9701040    -1.0341000    -0.8857520
units angstrom
no_reorient  #important for SAPT in psi4, default
symmetry c1  #important for SAPT in psi4, default
}

set PROPERTIES_ORIGIN ["COM"]
properties('MP2/aug-cc-pvtz', properties = ['dipole'])
--------------------------------------------------------------------------

    Molecular point group: c1
  Charge       = 0
  Multiplicity = 1
  Basis Set: AUG-CC-PVTZ
    Blend: AUG-CC-PVTZ
  Basis Set: (AUG-CC-PVTZ AUX)
    Blend: AUG-CC-PVTZ-JKFIT

    Orbital Energies [Eh]
    ---------------------

    Doubly Occupied:

       1A   -490.006389     2A    -65.146296     3A    -58.501538
       4A    -58.500247     5A    -58.500240     6A    -11.297860
       7A    -11.236234     8A     -9.819028     9A     -7.430281
      10A     -7.424062    11A     -7.424020    12A     -3.173744
      13A     -3.170548    14A     -3.170506    15A     -3.162478
      16A     -3.162477    17A     -1.072499    18A     -0.968503
      19A     -0.842210    20A     -0.644367    21A     -0.606610
      22A     -0.546679    23A     -0.531378    24A     -0.476716
      25A     -0.396748    26A     -0.394298

  @DF-RHF Final Energy: -2651.13582822967783

   => Energetics <=

    Nuclear Repulsion Energy =            162.0760398950071988
    One-Electron Energy =               -4011.2118246945965438
    Two-Electron Energy =                1197.9999565699115465
    Total Energy =                      -2651.1358282296778270
  Basis Set: (AUG-CC-PVTZ AUX)
    Blend: AUG-CC-PVTZ-RI
    Molecular point group: c1

    Geometry (in Angstrom), charge = 0, multiplicity = 1:

       Center              X                  Y                   Z               Mass
    ------------   -----------------  -----------------  -----------------  -----------------
         BR          -0.649617663462    -0.047835389330    -0.000004738596    78.918337600000
         C            1.164021336538     0.711358610670     0.000009261404    12.000000000000
         C            2.279434036538    -0.456615589330     0.000015661404    12.000000000000
         H            1.217588336538     1.338392610670    -0.889500738596     1.007825032230
         H            1.217575336538     1.338391610670     0.889522261404     1.007825032230
         H            3.208945336538     0.065526610670     0.000025261404     1.007825032230
         H            2.111970336538    -1.014858389330     0.885778261404     1.007825032230
         H            2.111984336538    -1.014855389330    -0.885750738596     1.007825032230

  Basis Set: AUG-CC-PVTZ
    Blend: AUG-CC-PVTZ
  Basis Set: (AUG-CC-PVTZ AUX)
    Blend: AUG-CC-PVTZ-JKFIT
	 Reference Energy          =   -2651.1358282296778270 [Eh]
	 Singles Energy            =      -0.0000000000000000 [Eh]
	 Same-Spin Energy          =      -0.1696377826513556 [Eh]
	 Opposite-Spin Energy      =      -0.5191539223489208 [Eh]
	 Correlation Energy        =      -0.6887917050002763 [Eh]
	 Total Energy              =   -2651.8246199346781395 [Eh]

	 ================> DF-SCS-MP2 Energies <==================
	-----------------------------------------------------------
	 SCS Same-Spin Scale       =       0.3333333333333333 [-]
	 SCS Opposite-Spin Scale   =       1.2000000000000000 [-]
	 SCS Same-Spin Energy      =      -0.0565459275504519 [Eh]
	 SCS Opposite-Spin Energy  =      -0.6229847068187049 [Eh]
	 SCS Correlation Energy    =      -0.6795306343691567 [Eh]
	 SCS Total Energy          =   -2651.8153588640470844 [Eh]
	-----------------------------------------------------------

  Dipole Moment: [D]
     X:     2.0203      Y:     0.6400      Z:     0.0000     Total:     2.1193

*** Psi4 exiting successfully. Buy a developer a beer!
