                               Psi4 1.3.2 release

  ==> Input File <==

--------------------------------------------------------------------------
#psi4
#
memory 32 gb

molecule  {
0 1
 Br       -0.8609201     0.1266558    -0.0000062
  C        1.0221410     0.6921140     0.0000080
  C        2.0684890    -0.4035410     0.0000140
  H        1.0757080     1.3191480    -0.8895020
  H        1.0756950     1.3191470     0.8895210
  H        3.0670650     0.0462820     0.0000240
  H        1.9700900    -1.0341030     0.8857770
  H        1.9701040    -1.0341000    -0.8857520
units angstrom
no_reorient  #important for SAPT in psi4, default
symmetry c1  #important for SAPT in psi4, default
}

set PROPERTIES_ORIGIN ["COM"]
properties('MP2/aug-cc-pvtz', properties = ['dipole'])
--------------------------------------------------------------------------

    Molecular point group: c1
  Charge       = 0
  Multiplicity = 1
  Basis Set: AUG-CC-PVTZ
    Blend: AUG-CC-PVTZ
  Basis Set: (AUG-CC-PVTZ AUX)
    Blend: AUG-CC-PVTZ-JKFIT

    Orbital Energies [Eh]
    ---------------------

    Doubly Occupied:

       1A   -490.006827     2A    -65.146760     3A    -58.502001
       4A    -58.500707     5A    -58.500688     6A    -11.294922
       7A    -11.239673     8A     -9.819515     9A     -7.430791
      10A     -7.424551    11A     -7.424461    12A     -3.174249
      13A     -3.171061    14A     -3.170975    15A     -3.162930
      16A     -3.162928    17A     -1.083507    18A     -0.973647
      19A     -0.836788    20A     -0.647108    21A     -0.600861
      22A     -0.558562    23A     -0.529184    24A     -0.472105
      25A     -0.398254    26A     -0.395937

  @DF-RHF Final Energy: -2651.14186698538106

   => Energetics <=

    Nuclear Repulsion Energy =            162.1902645354370520
    One-Electron Energy =               -4011.4062727369769163
    Two-Electron Energy =                1198.0741412161582957
    Total Energy =                      -2651.1418669853815118
  Basis Set: (AUG-CC-PVTZ AUX)
    Blend: AUG-CC-PVTZ-RI
    Molecular point group: c1

    Geometry (in Angstrom), charge = 0, multiplicity = 1:

       Center              X                  Y                   Z               Mass
    ------------   -----------------  -----------------  -----------------  -----------------
         BR          -0.660614408110    -0.003761662301    -0.000004747932    78.918337600000
         C            1.222446691890     0.561696537699     0.000009452068    12.000000000000
         C            2.268794691890    -0.533958462301     0.000015452068    12.000000000000
         H            1.276013691890     1.188730537699    -0.889500547932     1.007825032230
         H            1.276000691890     1.188729537699     0.889522452068     1.007825032230
         H            3.267370691890    -0.084135462301     0.000025452068     1.007825032230
         H            2.170395691890    -1.164520462301     0.885778452068     1.007825032230
         H            2.170409691890    -1.164517462301    -0.885750547932     1.007825032230

  Basis Set: AUG-CC-PVTZ
    Blend: AUG-CC-PVTZ
  Basis Set: (AUG-CC-PVTZ AUX)
    Blend: AUG-CC-PVTZ-JKFIT
	 Reference Energy          =   -2651.1418669853810570 [Eh]
	 Singles Energy            =      -0.0000000000000000 [Eh]
	 Same-Spin Energy          =      -0.1699506749596494 [Eh]
	 Opposite-Spin Energy      =      -0.5191246319476629 [Eh]
	 Correlation Energy        =      -0.6890753069073123 [Eh]
	 Total Energy              =   -2651.8309422922884551 [Eh]

	 ================> DF-SCS-MP2 Energies <==================
	-----------------------------------------------------------
	 SCS Same-Spin Scale       =       0.3333333333333333 [-]
	 SCS Opposite-Spin Scale   =       1.2000000000000000 [-]
	 SCS Same-Spin Energy      =      -0.0566502249865498 [Eh]
	 SCS Opposite-Spin Energy  =      -0.6229495583371955 [Eh]
	 SCS Correlation Energy    =      -0.6795997833237453 [Eh]
	 SCS Total Energy          =   -2651.8214667687047950 [Eh]
	-----------------------------------------------------------

  Dipole Moment: [D]
     X:     2.1215      Y:     0.4716      Z:     0.0000     Total:     2.1733

*** Psi4 exiting successfully. Buy a developer a beer!
