                               Psi4 1.3.2 release

  ==> Input File <==

--------------------------------------------------------------------------
#psi4
#
memory 32 gb

molecule  {
0 1
 Br       -0.7341214    -0.1917437    -0.0000058
  C        1.0221410     0.6921140     0.0000080
  C        2.0684890    -0.4035410     0.0000140
  H        1.0757080     1.3191480    -0.8895020
  H        1.0756950     1.3191470     0.8895210
  H        3.0670650     0.0462820     0.0000240
  H        1.9700900    -1.0341030     0.8857770
  H        1.9701040    -1.0341000    -0.8857520
units angstrom
no_reorient  #important for SAPT in psi4, default
symmetry c1  #important for SAPT in psi4, default
}

set PROPERTIES_ORIGIN ["COM"]
properties('MP2/aug-cc-pvtz', properties = ['dipole'])
--------------------------------------------------------------------------

    Molecular point group: c1
  Charge       = 0
  Multiplicity = 1
  Basis Set: AUG-CC-PVTZ
    Blend: AUG-CC-PVTZ
  Basis Set: (AUG-CC-PVTZ AUX)
    Blend: AUG-CC-PVTZ-JKFIT

    Orbital Energies [Eh]
    ---------------------

    Doubly Occupied:

       1A   -490.006806     2A    -65.146774     3A    -58.502012
       4A    -58.500711     5A    -58.500705     6A    -11.295808
       7A    -11.235698     8A     -9.819554     9A     -7.430835
      10A     -7.424549    11A     -7.424545    12A     -3.174302
      13A     -3.171074    14A     -3.171046    15A     -3.162955
      16A     -3.162955    17A     -1.086481    18A     -0.966697
      19A     -0.839941    20A     -0.647008    21A     -0.603025
      22A     -0.554123    23A     -0.526038    24A     -0.473230
      25A     -0.398558    26A     -0.397045

  @DF-RHF Final Energy: -2651.14212734725834

   => Energetics <=

    Nuclear Repulsion Energy =            164.9342677568347142
    One-Electron Energy =               -4016.9078415959165795
    Two-Electron Energy =                1200.8314464918232716
    Total Energy =                      -2651.1421273472587927
  Basis Set: (AUG-CC-PVTZ AUX)
    Blend: AUG-CC-PVTZ-RI
    Molecular point group: c1

    Geometry (in Angstrom), charge = 0, multiplicity = 1:

       Center              X                  Y                   Z               Mass
    ------------   -----------------  -----------------  -----------------  -----------------
         BR          -0.626507240107    -0.089406903448    -0.000004640337    78.918337600000
         C            1.129755159893     0.794450796552     0.000009159663    12.000000000000
         C            2.176103159893    -0.301204203448     0.000015159663    12.000000000000
         H            1.183322159893     1.421484796552    -0.889500840337     1.007825032230
         H            1.183309159893     1.421483796552     0.889522159663     1.007825032230
         H            3.174679159893     0.148618796552     0.000025159663     1.007825032230
         H            2.077704159893    -0.931766203448     0.885778159663     1.007825032230
         H            2.077718159893    -0.931763203448    -0.885750840337     1.007825032230

  Basis Set: AUG-CC-PVTZ
    Blend: AUG-CC-PVTZ
  Basis Set: (AUG-CC-PVTZ AUX)
    Blend: AUG-CC-PVTZ-JKFIT
	 Reference Energy          =   -2651.1421273472583380 [Eh]
	 Singles Energy            =      -0.0000000000000000 [Eh]
	 Same-Spin Energy          =      -0.1703005132328608 [Eh]
	 Opposite-Spin Energy      =      -0.5196239566364997 [Eh]
	 Correlation Energy        =      -0.6899244698693605 [Eh]
	 Total Energy              =   -2651.8320518171276490 [Eh]

	 ================> DF-SCS-MP2 Energies <==================
	-----------------------------------------------------------
	 SCS Same-Spin Scale       =       0.3333333333333333 [-]
	 SCS Opposite-Spin Scale   =       1.2000000000000000 [-]
	 SCS Same-Spin Energy      =      -0.0567668377442869 [Eh]
	 SCS Opposite-Spin Energy  =      -0.6235487479637997 [Eh]
	 SCS Correlation Energy    =      -0.6803155857080866 [Eh]
	 SCS Total Energy          =   -2651.8224429329666236 [Eh]
	-----------------------------------------------------------

  Dipole Moment: [D]
     X:     1.9682      Y:     0.7282      Z:     0.0000     Total:     2.0986

*** Psi4 exiting successfully. Buy a developer a beer!
