                               Psi4 1.4a3.dev225

  ==> Input File <==

--------------------------------------------------------------------------
#psi4
#
memory 32 gb

molecule  {
0 1
 Br       -0.7914540    -0.0671020    -0.0000060
  C        1.0221920     0.6923710     0.0000090
  C        2.1028165    -0.4397270     0.0000152
  H        1.0755050     1.3193040    -0.8895550
  H        1.0754920     1.3193020     0.8895750
  H        3.0672480     0.0455380     0.0000230
  H        1.9698670    -1.0342320     0.8857190
  H        1.9698810    -1.0342290    -0.8856930
units angstrom
no_reorient  #important for SAPT in psi4, default
symmetry c1  #important for SAPT in psi4, default
}

set PROPERTIES_ORIGIN ["COM"]
properties('MP2/aug-cc-pvtz', properties = ['dipole'])
--------------------------------------------------------------------------

    Molecular point group: c1
  Charge       = 0
  Multiplicity = 1
  Basis Set: AUG-CC-PVTZ
    Blend: AUG-CC-PVTZ
  Basis Set: (AUG-CC-PVTZ AUX)
    Blend: AUG-CC-PVTZ-JKFIT

    Orbital Energies [Eh]
    ---------------------

    Doubly Occupied:

       1A   -490.006600     2A    -65.146525     3A    -58.501765
       4A    -58.500472     5A    -58.500466     6A    -11.296861
       7A    -11.236346     8A     -9.819270     9A     -7.430531
      10A     -7.424297    11A     -7.424258    12A     -3.173992
      13A     -3.170784    14A     -3.170753    15A     -3.162709
      16A     -3.162708    17A     -1.078188    18A     -0.968880
      19A     -0.840670    20A     -0.645312    21A     -0.603282
      22A     -0.543840    23A     -0.537511    24A     -0.475631
      25A     -0.397139    26A     -0.396353

  @DF-RHF Final Energy: -2651.14149163695629

   => Energetics <=

    Nuclear Repulsion Energy =            162.8929004836530510
    One-Electron Energy =               -4012.8384995043011259
    Two-Electron Energy =                1198.8041073836916439
    Total Energy =                      -2651.1414916369562889
  Basis Set: (AUG-CC-PVTZ AUX)
    Blend: AUG-CC-PVTZ-RI
    Molecular point group: c1

    Geometry (in Angstrom), charge = 0, multiplicity = 1:

       Center              X                  Y                   Z               Mass
    ------------   -----------------  -----------------  -----------------  -----------------
         BR          -0.645744041891    -0.051879804996    -0.000004948011    78.918337600000
         C            1.167901958109     0.707593195004     0.000010051989    12.000000000000
         C            2.248526458109    -0.424504804996     0.000016251989    12.000000000000
         H            1.221214958109     1.334526195004    -0.889553948011     1.007825032230
         H            1.221201958109     1.334524195004     0.889576051989     1.007825032230
         H            3.212957958109     0.060760195004     0.000024051989     1.007825032230
         H            2.115576958109    -1.019009804996     0.885720051989     1.007825032230
         H            2.115590958109    -1.019006804996    -0.885691948011     1.007825032230

  Basis Set: AUG-CC-PVTZ
    Blend: AUG-CC-PVTZ
  Basis Set: (AUG-CC-PVTZ AUX)
    Blend: AUG-CC-PVTZ-JKFIT
	 Reference Energy          =   -2651.1414916369562889 [Eh]
	 Singles Energy            =      -0.0000000000000000 [Eh]
	 Same-Spin Energy          =      -0.1697773356040540 [Eh]
	 Opposite-Spin Energy      =      -0.5190690987393518 [Eh]
	 Correlation Energy        =      -0.6888464343434058 [Eh]
	 Total Energy              =   -2651.8303380712995931 [Eh]

	 ================> DF-SCS-MP2 Energies <==================
	-----------------------------------------------------------
	 SCS Same-Spin Scale       =       0.3333333333333333 [-]
	 SCS Opposite-Spin Scale   =       1.2000000000000000 [-]
	 SCS Same-Spin Energy      =      -0.0565924452013513 [Eh]
	 SCS Opposite-Spin Energy  =      -0.6228829184872221 [Eh]
	 SCS Correlation Energy    =      -0.6794753636885734 [Eh]
	 SCS Total Energy          =   -2651.8209670006449414 [Eh]
	-----------------------------------------------------------

  Dipole Moment: [D]
     X:     2.0278      Y:     0.6347      Z:     0.0000     Total:     2.1248

*** Psi4 exiting successfully. Buy a developer a beer!
