                               Psi4 1.3.2 release

  ==> Input File <==

--------------------------------------------------------------------------
#psi4
#
memory 32 gb

molecule  {
0 1
 Br       -0.7022053    -0.2524980    -0.0000056
  C        1.0221410     0.6921140     0.0000080
  C        2.0684890    -0.4035410     0.0000140
  H        1.0757080     1.3191480    -0.8895020
  H        1.0756950     1.3191470     0.8895210
  H        3.0670650     0.0462820     0.0000240
  H        1.9700900    -1.0341030     0.8857770
  H        1.9701040    -1.0341000    -0.8857520
units angstrom
no_reorient  #important for SAPT in psi4, default
symmetry c1  #important for SAPT in psi4, default
}

set PROPERTIES_ORIGIN ["COM"]
properties('MP2/aug-cc-pvtz', properties = ['dipole'])
--------------------------------------------------------------------------

    Molecular point group: c1
  Charge       = 0
  Multiplicity = 1
  Basis Set: AUG-CC-PVTZ
    Blend: AUG-CC-PVTZ
  Basis Set: (AUG-CC-PVTZ AUX)
    Blend: AUG-CC-PVTZ-JKFIT

    Orbital Energies [Eh]
    ---------------------

    Doubly Occupied:

       1A   -490.006780     2A    -65.146763     3A    -58.502001
       4A    -58.500699     5A    -58.500686     6A    -11.295943
       7A    -11.234913     8A     -9.819560     9A     -7.430851
      10A     -7.424557    11A     -7.424532    12A     -3.174322
      13A     -3.171099    14A     -3.171046    15A     -3.162940
      16A     -3.162940    17A     -1.087410    18A     -0.965098
      19A     -0.840653    20A     -0.647090    21A     -0.603606
      22A     -0.553295    23A     -0.525445    24A     -0.473222
      25A     -0.399050    26A     -0.396280

  @DF-RHF Final Energy: -2651.14087960124334

   => Energetics <=

    Nuclear Repulsion Energy =            165.5922340899203107
    One-Electron Energy =               -4018.2246624279705429
    Two-Electron Energy =                1201.4915487368066351
    Total Energy =                      -2651.1408796012437961
  Basis Set: (AUG-CC-PVTZ AUX)
    Blend: AUG-CC-PVTZ-RI
    Molecular point group: c1

    Geometry (in Angstrom), charge = 0, multiplicity = 1:

       Center              X                  Y                   Z               Mass
    ------------   -----------------  -----------------  -----------------  -----------------
         BR          -0.617922232652    -0.105749004093    -0.000004586540    78.918337600000
         C            1.106424067348     0.838862995907     0.000009013460    12.000000000000
         C            2.152772067348    -0.256792004093     0.000015013460    12.000000000000
         H            1.159991067348     1.465896995907    -0.889500986540     1.007825032230
         H            1.159978067348     1.465895995907     0.889522013460     1.007825032230
         H            3.151348067348     0.193030995907     0.000025013460     1.007825032230
         H            2.054373067348    -0.887354004093     0.885778013460     1.007825032230
         H            2.054387067348    -0.887351004093    -0.885750986540     1.007825032230

  Basis Set: AUG-CC-PVTZ
    Blend: AUG-CC-PVTZ
  Basis Set: (AUG-CC-PVTZ AUX)
    Blend: AUG-CC-PVTZ-JKFIT
	 Reference Energy          =   -2651.1408796012433413 [Eh]
	 Singles Energy            =      -0.0000000000000000 [Eh]
	 Same-Spin Energy          =      -0.1704520349414198 [Eh]
	 Opposite-Spin Energy      =      -0.5198718003197723 [Eh]
	 Correlation Energy        =      -0.6903238352611921 [Eh]
	 Total Energy              =   -2651.8312034365044383 [Eh]

	 ================> DF-SCS-MP2 Energies <==================
	-----------------------------------------------------------
	 SCS Same-Spin Scale       =       0.3333333333333333 [-]
	 SCS Opposite-Spin Scale   =       1.2000000000000000 [-]
	 SCS Same-Spin Energy      =      -0.0568173449804733 [Eh]
	 SCS Opposite-Spin Energy  =      -0.6238461603837268 [Eh]
	 SCS Correlation Energy    =      -0.6806635053642001 [Eh]
	 SCS Total Energy          =   -2651.8215431066073506 [Eh]
	-----------------------------------------------------------

  Dipole Moment: [D]
     X:     1.9337      Y:     0.7745      Z:     0.0000     Total:     2.0831

*** Psi4 exiting successfully. Buy a developer a beer!
