                               Psi4 1.3.2 release

  ==> Input File <==

--------------------------------------------------------------------------
#psi4
#
memory 32 gb

molecule  {
0 1
 Br       -0.7914980    -0.0670800    -0.0000060
  C        1.0221410     0.6921140     0.0000080
  C        2.2066184    -0.5481794     0.0000148
  H        1.0757080     1.3191480    -0.8895020
  H        1.0756950     1.3191470     0.8895210
  H        3.0670650     0.0462820     0.0000240
  H        1.9700900    -1.0341030     0.8857770
  H        1.9701040    -1.0341000    -0.8857520
units angstrom
no_reorient  #important for SAPT in psi4, default
symmetry c1  #important for SAPT in psi4, default
}

set PROPERTIES_ORIGIN ["COM"]
properties('MP2/aug-cc-pvtz', properties = ['dipole'])
--------------------------------------------------------------------------

    Molecular point group: c1
  Charge       = 0
  Multiplicity = 1
  Basis Set: AUG-CC-PVTZ
    Blend: AUG-CC-PVTZ
  Basis Set: (AUG-CC-PVTZ AUX)
    Blend: AUG-CC-PVTZ-JKFIT

    Orbital Energies [Eh]
    ---------------------

    Doubly Occupied:

       1A   -490.005998     2A    -65.145869     3A    -58.501113
       4A    -58.499826     5A    -58.499817     6A    -11.299183
       7A    -11.238562     8A     -9.818576     9A     -7.429815
      10A     -7.423622    11A     -7.423572    12A     -3.173281
      13A     -3.170109    14A     -3.170045    15A     -3.162044
      16A     -3.162043    17A     -1.063615    18A     -0.968549
      19A     -0.844385    20A     -0.644272    21A     -0.615160
      22A     -0.561401    23A     -0.511120    24A     -0.473077
      25A     -0.396023    26A     -0.388583

  @DF-RHF Final Energy: -2651.11607048883252

   => Energetics <=

    Nuclear Repulsion Energy =            160.4921000381862086
    One-Electron Energy =               -4008.0370201567666300
    Two-Electron Energy =                1196.4288496297476740
    Total Energy =                      -2651.1160704888325199
  Basis Set: (AUG-CC-PVTZ AUX)
    Blend: AUG-CC-PVTZ-RI
    Molecular point group: c1

    Geometry (in Angstrom), charge = 0, multiplicity = 1:

       Center              X                  Y                   Z               Mass
    ------------   -----------------  -----------------  -----------------  -----------------
         BR          -0.657294542658    -0.039796756540    -0.000004783058    78.918337600000
         C            1.156344457342     0.719397243460     0.000009216942    12.000000000000
         C            2.340821857342    -0.520896156540     0.000016016942    12.000000000000
         H            1.209911457342     1.346431243460    -0.889500783058     1.007825032230
         H            1.209898457342     1.346430243460     0.889522216942     1.007825032230
         H            3.201268457342     0.073565243460     0.000025216942     1.007825032230
         H            2.104293457342    -1.006819756540     0.885778216942     1.007825032230
         H            2.104307457342    -1.006816756540    -0.885750783058     1.007825032230

  Basis Set: AUG-CC-PVTZ
    Blend: AUG-CC-PVTZ
  Basis Set: (AUG-CC-PVTZ AUX)
    Blend: AUG-CC-PVTZ-JKFIT
	 Reference Energy          =   -2651.1160704888325199 [Eh]
	 Singles Energy            =      -0.0000000000000000 [Eh]
	 Same-Spin Energy          =      -0.1697915451914664 [Eh]
	 Opposite-Spin Energy      =      -0.5201600944195006 [Eh]
	 Correlation Energy        =      -0.6899516396109671 [Eh]
	 Total Energy              =   -2651.8060221284436011 [Eh]

	 ================> DF-SCS-MP2 Energies <==================
	-----------------------------------------------------------
	 SCS Same-Spin Scale       =       0.3333333333333333 [-]
	 SCS Opposite-Spin Scale   =       1.2000000000000000 [-]
	 SCS Same-Spin Energy      =      -0.0565971817304888 [Eh]
	 SCS Opposite-Spin Energy  =      -0.6241921133034007 [Eh]
	 SCS Correlation Energy    =      -0.6807892950338895 [Eh]
	 SCS Total Energy          =   -2651.7968597838662390 [Eh]
	-----------------------------------------------------------

  Dipole Moment: [D]
     X:     1.9925      Y:     0.6578      Z:     0.0000     Total:     2.0983

*** Psi4 exiting successfully. Buy a developer a beer!
