                               Psi4 1.3.2 release

  ==> Input File <==

--------------------------------------------------------------------------
#psi4
#
memory 32 gb

molecule  {
0 1
 Br       -0.7914980    -0.0670800    -0.0000060
  C        1.0221410     0.6921140     0.0000080
  C        1.9303596    -0.2589026     0.0000132
  H        1.0757080     1.3191480    -0.8895020
  H        1.0756950     1.3191470     0.8895210
  H        3.0670650     0.0462820     0.0000240
  H        1.9700900    -1.0341030     0.8857770
  H        1.9701040    -1.0341000    -0.8857520
units angstrom
no_reorient  #important for SAPT in psi4, default
symmetry c1  #important for SAPT in psi4, default
}

set PROPERTIES_ORIGIN ["COM"]
properties('MP2/aug-cc-pvtz', properties = ['dipole'])
--------------------------------------------------------------------------

    Molecular point group: c1
  Charge       = 0
  Multiplicity = 1
  Basis Set: AUG-CC-PVTZ
    Blend: AUG-CC-PVTZ
  Basis Set: (AUG-CC-PVTZ AUX)
    Blend: AUG-CC-PVTZ-JKFIT

    Orbital Energies [Eh]
    ---------------------

    Doubly Occupied:

       1A   -490.007641     2A    -65.147678     3A    -58.502910
       4A    -58.501589     5A    -58.501588     6A    -11.286561
       7A    -11.248039     8A     -9.820518     9A     -7.431839
      10A     -7.425467    11A     -7.425446    12A     -3.175294
      13A     -3.172025    14A     -3.172011    15A     -3.163843
      16A     -3.163841    17A     -1.127054    18A     -0.976345
      19A     -0.824623    20A     -0.661634    21A     -0.634390
      22A     -0.577274    23A     -0.478689    24A     -0.448809
      25A     -0.401328    26A     -0.398922

  @DF-RHF Final Energy: -2651.09261734868278

   => Energetics <=

    Nuclear Repulsion Energy =            167.4102331761868072
    One-Electron Energy =               -4021.6549889404072928
    Two-Electron Energy =                1203.1521384155371379
    Total Energy =                      -2651.0926173486832340
  Basis Set: (AUG-CC-PVTZ AUX)
    Blend: AUG-CC-PVTZ-RI
    Molecular point group: c1

    Geometry (in Angstrom), charge = 0, multiplicity = 1:

       Center              X                  Y                   Z               Mass
    ------------   -----------------  -----------------  -----------------  -----------------
         BR          -0.626587025871    -0.071951287698    -0.000004605211    78.918337600000
         C            1.187051974129     0.687242712302     0.000009394789    12.000000000000
         C            2.095270574129    -0.263773887698     0.000014594789    12.000000000000
         H            1.240618974129     1.314276712302    -0.889500605211     1.007825032230
         H            1.240605974129     1.314275712302     0.889522394789     1.007825032230
         H            3.231975974129     0.041410712302     0.000025394789     1.007825032230
         H            2.135000974129    -1.038974287698     0.885778394789     1.007825032230
         H            2.135014974129    -1.038971287698    -0.885750605211     1.007825032230

  Basis Set: AUG-CC-PVTZ
    Blend: AUG-CC-PVTZ
  Basis Set: (AUG-CC-PVTZ AUX)
    Blend: AUG-CC-PVTZ-JKFIT
	 Reference Energy          =   -2651.0926173486827793 [Eh]
	 Singles Energy            =      -0.0000000000000000 [Eh]
	 Same-Spin Energy          =      -0.1733241272254237 [Eh]
	 Opposite-Spin Energy      =      -0.5234968523840176 [Eh]
	 Correlation Energy        =      -0.6968209796094412 [Eh]
	 Total Energy              =   -2651.7894383282923627 [Eh]

	 ================> DF-SCS-MP2 Energies <==================
	-----------------------------------------------------------
	 SCS Same-Spin Scale       =       0.3333333333333333 [-]
	 SCS Opposite-Spin Scale   =       1.2000000000000000 [-]
	 SCS Same-Spin Energy      =      -0.0577747090751412 [Eh]
	 SCS Opposite-Spin Energy  =      -0.6281962228608210 [Eh]
	 SCS Correlation Energy    =      -0.6859709319359623 [Eh]
	 SCS Total Energy          =   -2651.7785882806188056 [Eh]
	-----------------------------------------------------------

  Dipole Moment: [D]
     X:     2.0736      Y:     0.6212      Z:     0.0000     Total:     2.1647

*** Psi4 exiting successfully. Buy a developer a beer!
