                               Psi4 1.3.2 release

  ==> Input File <==

--------------------------------------------------------------------------
#psi4
#
memory 32 gb

molecule  {
0 1
 Br       -0.8168887    -0.0033224    -0.0000061
  C        1.0221410     0.6921140     0.0000080
  C        2.0684890    -0.4035410     0.0000140
  H        1.0757080     1.3191480    -0.8895020
  H        1.0756950     1.3191470     0.8895210
  H        3.0670650     0.0462820     0.0000240
  H        1.9700900    -1.0341030     0.8857770
  H        1.9701040    -1.0341000    -0.8857520
units angstrom
no_reorient  #important for SAPT in psi4, default
symmetry c1  #important for SAPT in psi4, default
}

set PROPERTIES_ORIGIN ["COM"]
properties('MP2/aug-cc-pvtz', properties = ['dipole'])
--------------------------------------------------------------------------

    Molecular point group: c1
  Charge       = 0
  Multiplicity = 1
  Basis Set: AUG-CC-PVTZ
    Blend: AUG-CC-PVTZ
  Basis Set: (AUG-CC-PVTZ AUX)
    Blend: AUG-CC-PVTZ-JKFIT

    Orbital Energies [Eh]
    ---------------------

    Doubly Occupied:

       1A   -490.006834     2A    -65.146773     3A    -58.502012
       4A    -58.500718     5A    -58.500708     6A    -11.295314
       7A    -11.238081     8A     -9.819528     9A     -7.430797
      10A     -7.424555    11A     -7.424500    12A     -3.174256
      13A     -3.171048    14A     -3.171004    15A     -3.162955
      16A     -3.162954    17A     -1.084399    18A     -0.971055
      19A     -0.837986    20A     -0.646975    21A     -0.601583
      22A     -0.556744    23A     -0.527901    24A     -0.472823
      25A     -0.398218    26A     -0.397010

  @DF-RHF Final Energy: -2651.14318255443504

   => Energetics <=

    Nuclear Repulsion Energy =            163.1846202376119663
    One-Electron Energy =               -4013.4021379444197919
    Two-Electron Energy =                1199.0743351523733509
    Total Energy =                      -2651.1431825544345884
  Basis Set: (AUG-CC-PVTZ AUX)
    Blend: AUG-CC-PVTZ-RI
    Molecular point group: c1

    Geometry (in Angstrom), charge = 0, multiplicity = 1:

       Center              X                  Y                   Z               Mass
    ------------   -----------------  -----------------  -----------------  -----------------
         BR          -0.648770545695    -0.038724073621    -0.000004721033    78.918337600000
         C            1.190259154305     0.656712326379     0.000009378967    12.000000000000
         C            2.236607154305    -0.438942673621     0.000015378967    12.000000000000
         H            1.243826154305     1.283746326379    -0.889500621033     1.007825032230
         H            1.243813154305     1.283745326379     0.889522378967     1.007825032230
         H            3.235183154305     0.010880326379     0.000025378967     1.007825032230
         H            2.138208154305    -1.069504673621     0.885778378967     1.007825032230
         H            2.138222154305    -1.069501673621    -0.885750621033     1.007825032230

  Basis Set: AUG-CC-PVTZ
    Blend: AUG-CC-PVTZ
  Basis Set: (AUG-CC-PVTZ AUX)
    Blend: AUG-CC-PVTZ-JKFIT
	 Reference Energy          =   -2651.1431825544350431 [Eh]
	 Singles Energy            =      -0.0000000000000000 [Eh]
	 Same-Spin Energy          =      -0.1700168357446760 [Eh]
	 Opposite-Spin Energy      =      -0.5191880760402968 [Eh]
	 Correlation Energy        =      -0.6892049117849728 [Eh]
	 Total Energy              =   -2651.8323874662200978 [Eh]

	 ================> DF-SCS-MP2 Energies <==================
	-----------------------------------------------------------
	 SCS Same-Spin Scale       =       0.3333333333333333 [-]
	 SCS Opposite-Spin Scale   =       1.2000000000000000 [-]
	 SCS Same-Spin Energy      =      -0.0566722785815587 [Eh]
	 SCS Opposite-Spin Energy  =      -0.6230256912483562 [Eh]
	 SCS Correlation Energy    =      -0.6796979698299148 [Eh]
	 SCS Total Energy          =   -2651.8228805242647468 [Eh]
	-----------------------------------------------------------

  Dipole Moment: [D]
     X:     2.0644      Y:     0.5787      Z:     0.0000     Total:     2.1440

*** Psi4 exiting successfully. Buy a developer a beer!
