                               Psi4 1.3.2 release

  ==> Input File <==

--------------------------------------------------------------------------
#psi4
#
memory 32 gb

molecule  {
0 1
 Br       -0.7914980    -0.0670800    -0.0000060
  C        1.0221410     0.6921140     0.0000080
  C        1.9994243    -0.3312218     0.0000136
  H        1.0757080     1.3191480    -0.8895020
  H        1.0756950     1.3191470     0.8895210
  H        3.0670650     0.0462820     0.0000240
  H        1.9700900    -1.0341030     0.8857770
  H        1.9701040    -1.0341000    -0.8857520
units angstrom
no_reorient  #important for SAPT in psi4, default
symmetry c1  #important for SAPT in psi4, default
}

set PROPERTIES_ORIGIN ["COM"]
properties('MP2/aug-cc-pvtz', properties = ['dipole'])
--------------------------------------------------------------------------

    Molecular point group: c1
  Charge       = 0
  Multiplicity = 1
  Basis Set: AUG-CC-PVTZ
    Blend: AUG-CC-PVTZ
  Basis Set: (AUG-CC-PVTZ AUX)
    Blend: AUG-CC-PVTZ-JKFIT

    Orbital Energies [Eh]
    ---------------------

    Doubly Occupied:

       1A   -490.007240     2A    -65.147228     3A    -58.502463
       4A    -58.501157     5A    -58.501154     6A    -11.291733
       7A    -11.241464     8A     -9.820023     9A     -7.431315
      10A     -7.425015    11A     -7.424986    12A     -3.174773
      13A     -3.171523    14A     -3.171520    15A     -3.163410
      16A     -3.163408    17A     -1.102630    18A     -0.972343
      19A     -0.832911    20A     -0.652568    21A     -0.611539
      22A     -0.571532    23A     -0.504225    24A     -0.463469
      25A     -0.400237    26A     -0.398285

  @DF-RHF Final Energy: -2651.13154836518106

   => Energetics <=

    Nuclear Repulsion Energy =            165.4962340220418753
    One-Electron Energy =               -4017.9592612342216853
    Two-Electron Energy =                1201.3314788469988343
    Total Energy =                      -2651.1315483651810609
  Basis Set: (AUG-CC-PVTZ AUX)
    Blend: AUG-CC-PVTZ-RI
    Molecular point group: c1

    Geometry (in Angstrom), charge = 0, multiplicity = 1:

       Center              X                  Y                   Z               Mass
    ------------   -----------------  -----------------  -----------------  -----------------
         BR          -0.634263905068    -0.063912654908    -0.000004649673    78.918337600000
         C            1.179375094932     0.695281345092     0.000009350327    12.000000000000
         C            2.156658394932    -0.328054454908     0.000014950327    12.000000000000
         H            1.232942094932     1.322315345092    -0.889500649673     1.007825032230
         H            1.232929094932     1.322314345092     0.889522350327     1.007825032230
         H            3.224299094932     0.049449345092     0.000025350327     1.007825032230
         H            2.127324094932    -1.030935654908     0.885778350327     1.007825032230
         H            2.127338094932    -1.030932654908    -0.885750649673     1.007825032230

  Basis Set: AUG-CC-PVTZ
    Blend: AUG-CC-PVTZ
  Basis Set: (AUG-CC-PVTZ AUX)
    Blend: AUG-CC-PVTZ-JKFIT
	 Reference Energy          =   -2651.1315483651810609 [Eh]
	 Singles Energy            =      -0.0000000000000000 [Eh]
	 Same-Spin Energy          =      -0.1712620016974680 [Eh]
	 Opposite-Spin Energy      =      -0.5206777514980105 [Eh]
	 Correlation Energy        =      -0.6919397531954785 [Eh]
	 Total Energy              =   -2651.8234881183766447 [Eh]

	 ================> DF-SCS-MP2 Energies <==================
	-----------------------------------------------------------
	 SCS Same-Spin Scale       =       0.3333333333333333 [-]
	 SCS Opposite-Spin Scale   =       1.2000000000000000 [-]
	 SCS Same-Spin Energy      =      -0.0570873338991560 [Eh]
	 SCS Opposite-Spin Energy  =      -0.6248133017976126 [Eh]
	 SCS Correlation Energy    =      -0.6819006356967686 [Eh]
	 SCS Total Energy          =   -2651.8134490008778812 [Eh]
	-----------------------------------------------------------

  Dipole Moment: [D]
     X:     2.0490      Y:     0.6225      Z:     0.0000     Total:     2.1415

*** Psi4 exiting successfully. Buy a developer a beer!
