                               Psi4 1.4a3.dev225

  ==> Input File <==

--------------------------------------------------------------------------
#psi4
#
memory 32 gb

molecule  {
0 1
 Br       -0.7914540    -0.0671020    -0.0000060
  C        1.0221920     0.6923710     0.0000090
  C        2.0337695    -0.3673910     0.0000148
  H        1.0755050     1.3193040    -0.8895550
  H        1.0754920     1.3193020     0.8895750
  H        3.0672480     0.0455380     0.0000230
  H        1.9698670    -1.0342320     0.8857190
  H        1.9698810    -1.0342290    -0.8856930
units angstrom
no_reorient  #important for SAPT in psi4, default
symmetry c1  #important for SAPT in psi4, default
}

set PROPERTIES_ORIGIN ["COM"]
properties('MP2/aug-cc-pvtz', properties = ['dipole'])
--------------------------------------------------------------------------

    Molecular point group: c1
  Charge       = 0
  Multiplicity = 1
  Basis Set: AUG-CC-PVTZ
    Blend: AUG-CC-PVTZ
  Basis Set: (AUG-CC-PVTZ AUX)
    Blend: AUG-CC-PVTZ-JKFIT

    Orbital Energies [Eh]
    ---------------------

    Doubly Occupied:

       1A   -490.007029     2A    -65.146995     3A    -58.502232
       4A    -58.500931     5A    -58.500927     6A    -11.293822
       7A    -11.239038     8A     -9.819771     9A     -7.431051
      10A     -7.424778    11A     -7.424745    12A     -3.174510
      13A     -3.171275    14A     -3.171263    15A     -3.163179
      16A     -3.163178    17A     -1.093039    18A     -0.970786
      19A     -0.836098    20A     -0.649370    21A     -0.604351
      22A     -0.565569    23A     -0.516126    24A     -0.468911
      25A     -0.399261    26A     -0.397917

  @DF-RHF Final Energy: -2651.14024796374815

   => Energetics <=

    Nuclear Repulsion Energy =            164.5978593234245864
    One-Electron Energy =               -4016.2039101560703784
    Two-Electron Energy =                1200.4658028688977538
    Total Energy =                      -2651.1402479637481520
  Basis Set: (AUG-CC-PVTZ AUX)
    Blend: AUG-CC-PVTZ-RI
    Molecular point group: c1

    Geometry (in Angstrom), charge = 0, multiplicity = 1:

       Center              X                  Y                   Z               Mass
    ------------   -----------------  -----------------  -----------------  -----------------
         BR          -0.638069130136    -0.059920305187    -0.000004903549    78.918337600000
         C            1.175576869864     0.699552694813     0.000010096451    12.000000000000
         C            2.187154369864    -0.360209305187     0.000015896451    12.000000000000
         H            1.228889869864     1.326485694813    -0.889553903549     1.007825032230
         H            1.228876869864     1.326483694813     0.889576096451     1.007825032230
         H            3.220632869864     0.052719694813     0.000024096451     1.007825032230
         H            2.123251869864    -1.027050305187     0.885720096451     1.007825032230
         H            2.123265869864    -1.027047305187    -0.885691903549     1.007825032230

  Basis Set: AUG-CC-PVTZ
    Blend: AUG-CC-PVTZ
  Basis Set: (AUG-CC-PVTZ AUX)
    Blend: AUG-CC-PVTZ-JKFIT
	 Reference Energy          =   -2651.1402479637481520 [Eh]
	 Singles Energy            =      -0.0000000000000000 [Eh]
	 Same-Spin Energy          =      -0.1705731920989340 [Eh]
	 Opposite-Spin Energy      =      -0.5198149579270689 [Eh]
	 Correlation Energy        =      -0.6903881500260028 [Eh]
	 Total Energy              =   -2651.8306361137742897 [Eh]

	 ================> DF-SCS-MP2 Energies <==================
	-----------------------------------------------------------
	 SCS Same-Spin Scale       =       0.3333333333333333 [-]
	 SCS Opposite-Spin Scale   =       1.2000000000000000 [-]
	 SCS Same-Spin Energy      =      -0.0568577306996446 [Eh]
	 SCS Opposite-Spin Energy  =      -0.6237779495124827 [Eh]
	 SCS Correlation Energy    =      -0.6806356802121273 [Eh]
	 SCS Total Energy          =   -2651.8208836439603147 [Eh]
	-----------------------------------------------------------

  Dipole Moment: [D]
     X:     2.0406      Y:     0.6261      Z:     0.0000     Total:     2.1345

*** Psi4 exiting successfully. Buy a developer a beer!
