                               Psi4 1.3.2 release

  ==> Input File <==

--------------------------------------------------------------------------
#psi4
#
memory 32 gb

molecule  {
0 1
 Br       -0.8400388     0.0612824    -0.0000062
  C        1.0221410     0.6921140     0.0000080
  C        2.0684890    -0.4035410     0.0000140
  H        1.0757080     1.3191480    -0.8895020
  H        1.0756950     1.3191470     0.8895210
  H        3.0670650     0.0462820     0.0000240
  H        1.9700900    -1.0341030     0.8857770
  H        1.9701040    -1.0341000    -0.8857520
units angstrom
no_reorient  #important for SAPT in psi4, default
symmetry c1  #important for SAPT in psi4, default
}

set PROPERTIES_ORIGIN ["COM"]
properties('MP2/aug-cc-pvtz', properties = ['dipole'])
--------------------------------------------------------------------------

    Molecular point group: c1
  Charge       = 0
  Multiplicity = 1
  Basis Set: AUG-CC-PVTZ
    Blend: AUG-CC-PVTZ
  Basis Set: (AUG-CC-PVTZ AUX)
    Blend: AUG-CC-PVTZ-JKFIT

    Orbital Energies [Eh]
    ---------------------

    Doubly Occupied:

       1A   -490.006832     2A    -65.146767     3A    -58.502007
       4A    -58.500713     5A    -58.500699     6A    -11.295124
       7A    -11.238878     8A     -9.819520     9A     -7.430792
      10A     -7.424553    11A     -7.424480    12A     -3.174249
      13A     -3.171052    14A     -3.170987    15A     -3.162944
      16A     -3.162943    17A     -1.083908    18A     -0.972379
      19A     -0.837379    20A     -0.647027    21A     -0.601199
      22A     -0.557649    23A     -0.528540    24A     -0.472513
      25A     -0.398301    26A     -0.396477

  @DF-RHF Final Energy: -2651.14271514837264

   => Energetics <=

    Nuclear Repulsion Energy =            162.6711322836793840
    One-Electron Energy =               -4012.3718716002758811
    Two-Electron Energy =                1198.5580241682237101
    Total Energy =                      -2651.1427151483726448
  Basis Set: (AUG-CC-PVTZ AUX)
    Blend: AUG-CC-PVTZ-RI
    Molecular point group: c1

    Geometry (in Angstrom), charge = 0, multiplicity = 1:

       Center              X                  Y                   Z               Mass
    ------------   -----------------  -----------------  -----------------  -----------------
         BR          -0.654997615452    -0.021346239562    -0.000004747932    78.918337600000
         C            1.207182184548     0.609485360438     0.000009452068    12.000000000000
         C            2.253530184548    -0.486169639562     0.000015452068    12.000000000000
         H            1.260749184548     1.236519360438    -0.889500547932     1.007825032230
         H            1.260736184548     1.236518360438     0.889522452068     1.007825032230
         H            3.252106184548    -0.036346639562     0.000025452068     1.007825032230
         H            2.155131184548    -1.116731639562     0.885778452068     1.007825032230
         H            2.155145184548    -1.116728639562    -0.885750547932     1.007825032230

  Basis Set: AUG-CC-PVTZ
    Blend: AUG-CC-PVTZ
  Basis Set: (AUG-CC-PVTZ AUX)
    Blend: AUG-CC-PVTZ-JKFIT
	 Reference Energy          =   -2651.1427151483726448 [Eh]
	 Singles Energy            =      -0.0000000000000000 [Eh]
	 Same-Spin Energy          =      -0.1699726079233921 [Eh]
	 Opposite-Spin Energy      =      -0.5191353716086229 [Eh]
	 Correlation Energy        =      -0.6891079795320150 [Eh]
	 Total Energy              =   -2651.8318231279044994 [Eh]

	 ================> DF-SCS-MP2 Energies <==================
	-----------------------------------------------------------
	 SCS Same-Spin Scale       =       0.3333333333333333 [-]
	 SCS Opposite-Spin Scale   =       1.2000000000000000 [-]
	 SCS Same-Spin Energy      =      -0.0566575359744640 [Eh]
	 SCS Opposite-Spin Energy  =      -0.6229624459303474 [Eh]
	 SCS Correlation Energy    =      -0.6796199819048114 [Eh]
	 SCS Total Energy          =   -2651.8223351302776791 [Eh]
	-----------------------------------------------------------

  Dipole Moment: [D]
     X:     2.0938      Y:     0.5258      Z:     0.0000     Total:     2.1588

*** Psi4 exiting successfully. Buy a developer a beer!
