                               Psi4 1.3.2 release

  ==> Input File <==

--------------------------------------------------------------------------
#psi4
#
memory 32 gb

molecule  {
0 1
 Br       -0.7638977    -0.1299126    -0.0000059
  C        1.0221410     0.6921140     0.0000080
  C        2.0684890    -0.4035410     0.0000140
  H        1.0757080     1.3191480    -0.8895020
  H        1.0756950     1.3191470     0.8895210
  H        3.0670650     0.0462820     0.0000240
  H        1.9700900    -1.0341030     0.8857770
  H        1.9701040    -1.0341000    -0.8857520
units angstrom
no_reorient  #important for SAPT in psi4, default
symmetry c1  #important for SAPT in psi4, default
}

set PROPERTIES_ORIGIN ["COM"]
properties('MP2/aug-cc-pvtz', properties = ['dipole'])
--------------------------------------------------------------------------

    Molecular point group: c1
  Charge       = 0
  Multiplicity = 1
  Basis Set: AUG-CC-PVTZ
    Blend: AUG-CC-PVTZ
  Basis Set: (AUG-CC-PVTZ AUX)
    Blend: AUG-CC-PVTZ-JKFIT

    Orbital Energies [Eh]
    ---------------------

    Doubly Occupied:

       1A   -490.006823     2A    -65.146778     3A    -58.502016
       4A    -58.500716     5A    -58.500715     6A    -11.295657
       7A    -11.236490     8A     -9.819546     9A     -7.430820
      10A     -7.424552    11A     -7.424536    12A     -3.174284
      13A     -3.171049    14A     -3.171046    15A     -3.162962
      16A     -3.162962    17A     -1.085677    18A     -0.968220
      19A     -0.839263    20A     -0.646963    21A     -0.602494
      22A     -0.554977    23A     -0.526647    24A     -0.473173
      25A     -0.398053    26A     -0.397608

  @DF-RHF Final Energy: -2651.14290952967940

   => Energetics <=

    Nuclear Repulsion Energy =            164.3147390378642569
    One-Electron Energy =               -4015.6672432439295335
    Two-Electron Energy =                1200.2095946763856773
    Total Energy =                      -2651.1429095296794003
  Basis Set: (AUG-CC-PVTZ AUX)
    Blend: AUG-CC-PVTZ-RI
    Molecular point group: c1

    Geometry (in Angstrom), charge = 0, multiplicity = 1:

       Center              X                  Y                   Z               Mass
    ------------   -----------------  -----------------  -----------------  -----------------
         BR          -0.634516669751    -0.072775157890    -0.000004667236    78.918337600000
         C            1.151522030249     0.749251442110     0.000009232764    12.000000000000
         C            2.197870030249    -0.346403557890     0.000015232764    12.000000000000
         H            1.205089030249     1.376285442110    -0.889500767236     1.007825032230
         H            1.205076030249     1.376284442110     0.889522232764     1.007825032230
         H            3.196446030249     0.103419442110     0.000025232764     1.007825032230
         H            2.099471030249    -0.976965557890     0.885778232764     1.007825032230
         H            2.099485030249    -0.976962557890    -0.885750767236     1.007825032230

  Basis Set: AUG-CC-PVTZ
    Blend: AUG-CC-PVTZ
  Basis Set: (AUG-CC-PVTZ AUX)
    Blend: AUG-CC-PVTZ-JKFIT
	 Reference Energy          =   -2651.1429095296794003 [Eh]
	 Singles Energy            =      -0.0000000000000000 [Eh]
	 Same-Spin Energy          =      -0.1701788836578210 [Eh]
	 Opposite-Spin Energy      =      -0.5194294957412258 [Eh]
	 Correlation Energy        =      -0.6896083793990467 [Eh]
	 Total Energy              =   -2651.8325179090784331 [Eh]

	 ================> DF-SCS-MP2 Energies <==================
	-----------------------------------------------------------
	 SCS Same-Spin Scale       =       0.3333333333333333 [-]
	 SCS Opposite-Spin Scale   =       1.2000000000000000 [-]
	 SCS Same-Spin Energy      =      -0.0567262945526070 [Eh]
	 SCS Opposite-Spin Energy  =      -0.6233153948894709 [Eh]
	 SCS Correlation Energy    =      -0.6800416894420779 [Eh]
	 SCS Total Energy          =   -2651.8229512191214781 [Eh]
	-----------------------------------------------------------

  Dipole Moment: [D]
     X:     2.0015      Y:     0.6801      Z:     0.0000     Total:     2.1139

*** Psi4 exiting successfully. Buy a developer a beer!
