                               Psi4 1.3.2 release

  ==> Input File <==

--------------------------------------------------------------------------
#psi4
#
memory 32 gb

molecule  {
0 1
  N       -0.4914050     1.0723760    -0.3164170
  N        1.0085960    -0.7184190    -0.0133500
  C       -1.7100270     0.3982770    -0.1243180
  C        0.8049200     0.5981430    -0.1551110
  C        3.4026260    -0.3179870     0.1123840
  C        1.8688800     1.5249980    -0.1805650
  C        3.1641670     1.0570110    -0.0435420
  C       -2.8187550     1.1723340     0.2577460
  C       -1.8866400    -0.9712620    -0.3801370
  C        2.2803750    -1.1431010     0.1169750
  C        4.7931030    -0.8701860     0.2621020
  C       -4.0754850     0.5909990     0.4048790
  C       -3.1483220    -1.5428300    -0.2100850
  C       -4.2492880    -0.7746780     0.1720620
  H       -0.5672427     2.0903114    -0.0907678
  H        1.6730390     2.5885970    -0.3025930
  H        3.9969070     1.7590030    -0.0564670
  H       -2.6877930     2.2355590     0.4578160
  H       -1.0395640    -1.5738120    -0.6782690
  H        2.3962560    -2.2212150     0.2333330
  H        5.4095350    -0.6367030    -0.6119800
  H        5.2936270    -0.4518060     1.1412500
  H        4.7686350    -1.9575490     0.3752240
  H       -4.9184630     1.2095470     0.7042290
  H       -3.2707080    -2.6065070    -0.4021260
  H       -5.2268190    -1.2338160     0.2940590
units angstrom
no_reorient  #important for SAPT in psi4, default
symmetry c1  #important for SAPT in psi4, default
}

set PROPERTIES_ORIGIN ["COM"]
properties('MP2/aug-cc-pvtz', properties = ['dipole'])
--------------------------------------------------------------------------

    Molecular point group: c1
  Charge       = 0
  Multiplicity = 1
  Basis Set: AUG-CC-PVTZ
    Blend: AUG-CC-PVTZ
  Basis Set: (AUG-CC-PVTZ AUX)
    Blend: AUG-CC-PVTZ-JKFIT

    Orbital Energies [Eh]
    ---------------------

    Doubly Occupied:

       1A    -15.592011     2A    -15.554471     3A    -11.322650
       4A    -11.280864     5A    -11.272988     6A    -11.258706
       7A    -11.239321     8A    -11.236099     9A    -11.233832
      10A    -11.230343    11A    -11.229350    12A    -11.228650
      13A    -11.221190    14A    -11.218244    15A     -1.292459
      16A     -1.219202    17A     -1.132424    18A     -1.097320
      19A     -1.046186    20A     -1.008060    21A     -0.992688
      22A     -0.934295    23A     -0.868613    24A     -0.841082
      25A     -0.821257    26A     -0.796426    27A     -0.722331
      28A     -0.711936    29A     -0.670667    30A     -0.652106
      31A     -0.637224    32A     -0.620765    33A     -0.594398
      34A     -0.590791    35A     -0.589178    36A     -0.578697
      37A     -0.571794    38A     -0.561907    39A     -0.546930
      40A     -0.519530    41A     -0.511660    42A     -0.504194
      43A     -0.487050    44A     -0.455175    45A     -0.414840
      46A     -0.381682    47A     -0.336825    48A     -0.330542
      49A     -0.277518

  @DF-RHF Final Energy:  -570.49646940923867

   => Energetics <=

    Nuclear Repulsion Energy =            790.6611714958174844
    One-Electron Energy =               -2341.4423402680690742
    Two-Electron Energy =                 980.2846993630128054
    Total Energy =                       -570.4964694092386708
  Basis Set: (AUG-CC-PVTZ AUX)
    Blend: AUG-CC-PVTZ-RI
    Molecular point group: c1

    Geometry (in Angstrom), charge = 0, multiplicity = 1:

       Center              X                  Y                   Z               Mass
    ------------   -----------------  -----------------  -----------------  -----------------
         N           -0.460019461336     1.067962834223    -0.312304888347    14.003074004430
         N            1.039981538664    -0.722832165777    -0.009237888347    14.003074004430
         C           -1.678641461336     0.393863834223    -0.120205888347    12.000000000000
         C            0.836305538664     0.593729834223    -0.150998888347    12.000000000000
         C            3.434011538664    -0.322400165777     0.116496111653    12.000000000000
         C            1.900265538664     1.520584834223    -0.176452888347    12.000000000000
         C            3.195552538664     1.052597834223    -0.039429888347    12.000000000000
         C           -2.787369461336     1.167920834223     0.261858111653    12.000000000000
         C           -1.855254461336    -0.975675165777    -0.376024888347    12.000000000000
         C            2.311760538664    -1.147514165777     0.121087111653    12.000000000000
         C            4.824488538664    -0.874599165777     0.266214111653    12.000000000000
         C           -4.044099461336     0.586585834223     0.408991111653    12.000000000000
         C           -3.116936461336    -1.547243165777    -0.205972888347    12.000000000000
         C           -4.217902461336    -0.779091165777     0.176174111653    12.000000000000
         H           -0.535857161336     2.085898234223    -0.086655688347     1.007825032230
         H            1.704424538664     2.584183834223    -0.298480888347     1.007825032230
         H            4.028292538664     1.754589834223    -0.052354888347     1.007825032230
         H           -2.656407461336     2.231145834223     0.461928111653     1.007825032230
         H           -1.008178461336    -1.578225165777    -0.674156888347     1.007825032230
         H            2.427641538664    -2.225628165777     0.237445111653     1.007825032230
         H            5.440920538664    -0.641116165777    -0.607867888347     1.007825032230
         H            5.325012538664    -0.456219165777     1.145362111653     1.007825032230
         H            4.800020538664    -1.961962165777     0.379336111653     1.007825032230
         H           -4.887077461336     1.205133834223     0.708341111653     1.007825032230
         H           -3.239322461336    -2.610920165777    -0.398013888347     1.007825032230
         H           -5.195433461336    -1.238229165777     0.298171111653     1.007825032230

  Basis Set: AUG-CC-PVTZ
    Blend: AUG-CC-PVTZ
  Basis Set: (AUG-CC-PVTZ AUX)
    Blend: AUG-CC-PVTZ-JKFIT
	 Reference Energy          =    -570.4964694092386708 [Eh]
	 Singles Energy            =      -0.0000000000000000 [Eh]
	 Same-Spin Energy          =      -0.6367205813602249 [Eh]
	 Opposite-Spin Energy      =      -1.9716448675828711 [Eh]
	 Correlation Energy        =      -2.6083654489430961 [Eh]
	 Total Energy              =    -573.1048348581817891 [Eh]

	 ================> DF-SCS-MP2 Energies <==================
	-----------------------------------------------------------
	 SCS Same-Spin Scale       =       0.3333333333333333 [-]
	 SCS Opposite-Spin Scale   =       1.2000000000000000 [-]
	 SCS Same-Spin Energy      =      -0.2122401937867416 [Eh]
	 SCS Opposite-Spin Energy  =      -2.3659738410994451 [Eh]
	 SCS Correlation Energy    =      -2.5782140348861868 [Eh]
	 SCS Total Energy          =    -573.0746834441248438 [Eh]
	-----------------------------------------------------------

  Dipole Moment: [D]
     X:     1.9425      Y:     1.8150      Z:     0.3320     Total:     2.6791

*** Psi4 exiting successfully. Buy a developer a beer!
