                               Psi4 1.3.2 release

  ==> Input File <==

--------------------------------------------------------------------------
#psi4
#
memory 32 gb

molecule  {
0 1
  N       -0.4914050     1.0723760    -0.3164170
  N        1.0085960    -0.7184190    -0.0133500
  C       -1.7100270     0.3982770    -0.1243180
  C        0.8049200     0.5981430    -0.1551110
  C        3.4026260    -0.3179870     0.1123840
  C        1.8688800     1.5249980    -0.1805650
  C        3.1641670     1.0570110    -0.0435420
  C       -2.8187550     1.1723340     0.2577460
  C       -1.8866400    -0.9712620    -0.3801370
  C        2.2803750    -1.1431010     0.1169750
  C        4.7931030    -0.8701860     0.2621020
  C       -4.0754850     0.5909990     0.4048790
  C       -3.1483220    -1.5428300    -0.2100850
  C       -4.2492880    -0.7746780     0.1720620
  H       -0.5665299     2.0967163     0.0090243
  H        1.6730390     2.5885970    -0.3025930
  H        3.9969070     1.7590030    -0.0564670
  H       -2.6877930     2.2355590     0.4578160
  H       -1.0395640    -1.5738120    -0.6782690
  H        2.3962560    -2.2212150     0.2333330
  H        5.4095350    -0.6367030    -0.6119800
  H        5.2936270    -0.4518060     1.1412500
  H        4.7686350    -1.9575490     0.3752240
  H       -4.9184630     1.2095470     0.7042290
  H       -3.2707080    -2.6065070    -0.4021260
  H       -5.2268190    -1.2338160     0.2940590
units angstrom
no_reorient  #important for SAPT in psi4, default
symmetry c1  #important for SAPT in psi4, default
}

set PROPERTIES_ORIGIN ["COM"]
properties('MP2/aug-cc-pvtz', properties = ['dipole'])
--------------------------------------------------------------------------

    Molecular point group: c1
  Charge       = 0
  Multiplicity = 1
  Basis Set: AUG-CC-PVTZ
    Blend: AUG-CC-PVTZ
  Basis Set: (AUG-CC-PVTZ AUX)
    Blend: AUG-CC-PVTZ-JKFIT

    Orbital Energies [Eh]
    ---------------------

    Doubly Occupied:

       1A    -15.594539     2A    -15.554998     3A    -11.322312
       4A    -11.280663     5A    -11.273074     6A    -11.258811
       7A    -11.239561     8A    -11.236666     9A    -11.233847
      10A    -11.230346    11A    -11.229641    12A    -11.228646
      13A    -11.221110    14A    -11.218184    15A     -1.291569
      16A     -1.218053    17A     -1.132044    18A     -1.097520
      19A     -1.046259    20A     -1.008048    21A     -0.992305
      22A     -0.933681    23A     -0.868566    24A     -0.840801
      25A     -0.821191    26A     -0.795198    27A     -0.721733
      28A     -0.708196    29A     -0.670718    30A     -0.650655
      31A     -0.637131    32A     -0.620461    33A     -0.594929
      34A     -0.590474    35A     -0.586866    36A     -0.577318
      37A     -0.572829    38A     -0.560831    39A     -0.546789
      40A     -0.519724    41A     -0.511966    42A     -0.504181
      43A     -0.486758    44A     -0.455660    45A     -0.415153
      46A     -0.381810    47A     -0.336967    48A     -0.330553
      49A     -0.278135

  @DF-RHF Final Energy:  -570.49244889491285

   => Energetics <=

    Nuclear Repulsion Energy =            790.5376350232850200
    One-Electron Energy =               -2341.2052330202745907
    Two-Electron Energy =                 980.1751491020767162
    Total Energy =                       -570.4924488949128545
  Basis Set: (AUG-CC-PVTZ AUX)
    Blend: AUG-CC-PVTZ-RI
    Molecular point group: c1

    Geometry (in Angstrom), charge = 0, multiplicity = 1:

       Center              X                  Y                   Z               Mass
    ------------   -----------------  -----------------  -----------------  -----------------
         N           -0.460023363441     1.067927771665    -0.312851183567    14.003074004430
         N            1.039977636559    -0.722867228335    -0.009784183567    14.003074004430
         C           -1.678645363441     0.393828771665    -0.120752183567    12.000000000000
         C            0.836301636559     0.593694771665    -0.151545183567    12.000000000000
         C            3.434007636559    -0.322435228335     0.115949816433    12.000000000000
         C            1.900261636559     1.520549771665    -0.176999183567    12.000000000000
         C            3.195548636559     1.052562771665    -0.039976183567    12.000000000000
         C           -2.787373363441     1.167885771665     0.261311816433    12.000000000000
         C           -1.855258363441    -0.975710228335    -0.376571183567    12.000000000000
         C            2.311756636559    -1.147549228335     0.120540816433    12.000000000000
         C            4.824484636559    -0.874634228335     0.265667816433    12.000000000000
         C           -4.044103363441     0.586550771665     0.408444816433    12.000000000000
         C           -3.116940363441    -1.547278228335    -0.206519183567    12.000000000000
         C           -4.217906363441    -0.779126228335     0.175627816433    12.000000000000
         H           -0.535148263441     2.092268071665     0.012590116433     1.007825032230
         H            1.704420636559     2.584148771665    -0.299027183567     1.007825032230
         H            4.028288636559     1.754554771665    -0.052901183567     1.007825032230
         H           -2.656411363441     2.231110771665     0.461381816433     1.007825032230
         H           -1.008182363441    -1.578260228335    -0.674703183567     1.007825032230
         H            2.427637636559    -2.225663228335     0.236898816433     1.007825032230
         H            5.440916636559    -0.641151228335    -0.608414183567     1.007825032230
         H            5.325008636559    -0.456254228335     1.144815816433     1.007825032230
         H            4.800016636559    -1.961997228335     0.378789816433     1.007825032230
         H           -4.887081363441     1.205098771665     0.707794816433     1.007825032230
         H           -3.239326363441    -2.610955228335    -0.398560183567     1.007825032230
         H           -5.195437363441    -1.238264228335     0.297624816433     1.007825032230

  Basis Set: AUG-CC-PVTZ
    Blend: AUG-CC-PVTZ
  Basis Set: (AUG-CC-PVTZ AUX)
    Blend: AUG-CC-PVTZ-JKFIT
	 Reference Energy          =    -570.4924488949128545 [Eh]
	 Singles Energy            =      -0.0000000000000000 [Eh]
	 Same-Spin Energy          =      -0.6370304072590875 [Eh]
	 Opposite-Spin Energy      =      -1.9724243435761264 [Eh]
	 Correlation Energy        =      -2.6094547508352139 [Eh]
	 Total Energy              =    -573.1019036457480524 [Eh]

	 ================> DF-SCS-MP2 Energies <==================
	-----------------------------------------------------------
	 SCS Same-Spin Scale       =       0.3333333333333333 [-]
	 SCS Opposite-Spin Scale   =       1.2000000000000000 [-]
	 SCS Same-Spin Energy      =      -0.2123434690863625 [Eh]
	 SCS Opposite-Spin Energy  =      -2.3669092122913518 [Eh]
	 SCS Correlation Energy    =      -2.5792526813777141 [Eh]
	 SCS Total Energy          =    -573.0717015762905930 [Eh]
	-----------------------------------------------------------

  Dipole Moment: [D]
     X:     1.9888      Y:     1.7786      Z:     0.4389     Total:     2.7039

*** Psi4 exiting successfully. Buy a developer a beer!
