                               Psi4 1.3.2 release

  ==> Input File <==

--------------------------------------------------------------------------
#psi4
#
memory 32 gb

molecule  {
0 1
  N       -0.4914050     1.0723760    -0.3164170
  N        1.0085960    -0.7184190    -0.0133500
  C       -1.7100270     0.3982770    -0.1243180
  C        0.8049200     0.5981430    -0.1551110
  C        3.4026260    -0.3179870     0.1123840
  C        1.8688800     1.5249980    -0.1805650
  C        3.1641670     1.0570110    -0.0435420
  C       -2.8187550     1.1723340     0.2577460
  C       -1.8866400    -0.9712620    -0.3801370
  C        2.2803750    -1.1431010     0.1169750
  C        4.7931030    -0.8701860     0.2621020
  C       -4.0754850     0.5909990     0.4048790
  C       -3.1483220    -1.5428300    -0.2100850
  C       -4.2492880    -0.7746780     0.1720620
  H       -0.5675992     2.0871089    -0.1406639
  H        1.6730390     2.5885970    -0.3025930
  H        3.9969070     1.7590030    -0.0564670
  H       -2.6877930     2.2355590     0.4578160
  H       -1.0395640    -1.5738120    -0.6782690
  H        2.3962560    -2.2212150     0.2333330
  H        5.4095350    -0.6367030    -0.6119800
  H        5.2936270    -0.4518060     1.1412500
  H        4.7686350    -1.9575490     0.3752240
  H       -4.9184630     1.2095470     0.7042290
  H       -3.2707080    -2.6065070    -0.4021260
  H       -5.2268190    -1.2338160     0.2940590
units angstrom
no_reorient  #important for SAPT in psi4, default
symmetry c1  #important for SAPT in psi4, default
}

set PROPERTIES_ORIGIN ["COM"]
properties('MP2/aug-cc-pvtz', properties = ['dipole'])
--------------------------------------------------------------------------

    Molecular point group: c1
  Charge       = 0
  Multiplicity = 1
  Basis Set: AUG-CC-PVTZ
    Blend: AUG-CC-PVTZ
  Basis Set: (AUG-CC-PVTZ AUX)
    Blend: AUG-CC-PVTZ-JKFIT

    Orbital Energies [Eh]
    ---------------------

    Doubly Occupied:

       1A    -15.590919     2A    -15.554213     3A    -11.322791
       4A    -11.280926     5A    -11.272927     6A    -11.258632
       7A    -11.239178     8A    -11.235821     9A    -11.233809
      10A    -11.230336    11A    -11.229205    12A    -11.228640
      13A    -11.221257    14A    -11.218291    15A     -1.292788
      16A     -1.219628    17A     -1.132579    18A     -1.097203
      19A     -1.046126    20A     -1.008060    21A     -0.992848
      22A     -0.934546    23A     -0.868606    24A     -0.841175
      25A     -0.821262    26A     -0.796991    27A     -0.722726
      28A     -0.713454    29A     -0.670637    30A     -0.652627
      31A     -0.637224    32A     -0.620925    33A     -0.594140
      34A     -0.592222    35A     -0.589166    36A     -0.579104
      37A     -0.571099    38A     -0.562257    39A     -0.546913
      40A     -0.519414    41A     -0.511489    42A     -0.504191
      43A     -0.487169    44A     -0.454867    45A     -0.414681
      46A     -0.381602    47A     -0.336747    48A     -0.330529
      49A     -0.277268

  @DF-RHF Final Energy:  -570.49768457318271

   => Energetics <=

    Nuclear Repulsion Energy =            790.7076023543384053
    One-Electron Energy =               -2341.5321664907646664
    Two-Electron Energy =                 980.3268795632435513
    Total Energy =                       -570.4976845731827098
  Basis Set: (AUG-CC-PVTZ AUX)
    Blend: AUG-CC-PVTZ-RI
    Molecular point group: c1

    Geometry (in Angstrom), charge = 0, multiplicity = 1:

       Center              X                  Y                   Z               Mass
    ------------   -----------------  -----------------  -----------------  -----------------
         N           -0.460017509736     1.067980365775    -0.312031740464    14.003074004430
         N            1.039983490264    -0.722814634225    -0.008964740464    14.003074004430
         C           -1.678639509736     0.393881365775    -0.119932740464    12.000000000000
         C            0.836307490264     0.593747365775    -0.150725740464    12.000000000000
         C            3.434013490264    -0.322382634225     0.116769259536    12.000000000000
         C            1.900267490264     1.520602365775    -0.176179740464    12.000000000000
         C            3.195554490264     1.052615365775    -0.039156740464    12.000000000000
         C           -2.787367509736     1.167938365775     0.262131259536    12.000000000000
         C           -1.855252509736    -0.975657634225    -0.375751740464    12.000000000000
         C            2.311762490264    -1.147496634225     0.121360259536    12.000000000000
         C            4.824490490264    -0.874581634225     0.266487259536    12.000000000000
         C           -4.044097509736     0.586603365775     0.409264259536    12.000000000000
         C           -3.116934509736    -1.547225634225    -0.205699740464    12.000000000000
         C           -4.217900509736    -0.779073634225     0.176447259536    12.000000000000
         H           -0.536211709736     2.082713265775    -0.136278640464     1.007825032230
         H            1.704426490264     2.584201365775    -0.298207740464     1.007825032230
         H            4.028294490264     1.754607365775    -0.052081740464     1.007825032230
         H           -2.656405509736     2.231163365775     0.462201259536     1.007825032230
         H           -1.008176509736    -1.578207634225    -0.673883740464     1.007825032230
         H            2.427643490264    -2.225610634225     0.237718259536     1.007825032230
         H            5.440922490264    -0.641098634225    -0.607594740464     1.007825032230
         H            5.325014490264    -0.456201634225     1.145635259536     1.007825032230
         H            4.800022490264    -1.961944634225     0.379609259536     1.007825032230
         H           -4.887075509736     1.205151365775     0.708614259536     1.007825032230
         H           -3.239320509736    -2.610902634225    -0.397740740464     1.007825032230
         H           -5.195431509736    -1.238211634225     0.298444259536     1.007825032230

  Basis Set: AUG-CC-PVTZ
    Blend: AUG-CC-PVTZ
  Basis Set: (AUG-CC-PVTZ AUX)
    Blend: AUG-CC-PVTZ-JKFIT
	 Reference Energy          =    -570.4976845731827098 [Eh]
	 Singles Energy            =      -0.0000000000000000 [Eh]
	 Same-Spin Energy          =      -0.6365964451484972 [Eh]
	 Opposite-Spin Energy      =      -1.9713373419682454 [Eh]
	 Correlation Energy        =      -2.6079337871167425 [Eh]
	 Total Energy              =    -573.1056183602994452 [Eh]

	 ================> DF-SCS-MP2 Energies <==================
	-----------------------------------------------------------
	 SCS Same-Spin Scale       =       0.3333333333333333 [-]
	 SCS Opposite-Spin Scale   =       1.2000000000000000 [-]
	 SCS Same-Spin Energy      =      -0.2121988150494991 [Eh]
	 SCS Opposite-Spin Energy  =      -2.3656048103618943 [Eh]
	 SCS Correlation Energy    =      -2.5778036254113932 [Eh]
	 SCS Total Energy          =    -573.0754881985941438 [Eh]
	-----------------------------------------------------------

  Dipole Moment: [D]
     X:     1.9185      Y:     1.8303      Z:     0.2767     Total:     2.6659

*** Psi4 exiting successfully. Buy a developer a beer!
