                               Psi4 1.3.2 release

  ==> Input File <==

--------------------------------------------------------------------------
#psi4
#
memory 32 gb

molecule  {
0 1
  N       -0.4914050     1.0723760    -0.3164170
  N        1.0085960    -0.7184190    -0.0133500
  C       -1.7100270     0.3982770    -0.1243180
  C        0.8049200     0.5981430    -0.1551110
  C        3.4026260    -0.3179870     0.1123840
  C        1.8688800     1.5249980    -0.1805650
  C        3.1641670     1.0570110    -0.0435420
  C       -2.8187550     1.1723340     0.2577460
  C       -1.8866400    -0.9712620    -0.3801370
  C        2.2803750    -1.1431010     0.1169750
  C        4.7931030    -0.8701860     0.2621020
  C       -4.0754850     0.5909990     0.4048790
  C       -3.1483220    -1.5428300    -0.2100850
  C       -4.2492880    -0.7746780     0.1720620
  H       -0.5679556     2.0839065    -0.1905599
  H        1.6730390     2.5885970    -0.3025930
  H        3.9969070     1.7590030    -0.0564670
  H       -2.6877930     2.2355590     0.4578160
  H       -1.0395640    -1.5738120    -0.6782690
  H        2.3962560    -2.2212150     0.2333330
  H        5.4095350    -0.6367030    -0.6119800
  H        5.2936270    -0.4518060     1.1412500
  H        4.7686350    -1.9575490     0.3752240
  H       -4.9184630     1.2095470     0.7042290
  H       -3.2707080    -2.6065070    -0.4021260
  H       -5.2268190    -1.2338160     0.2940590
units angstrom
no_reorient  #important for SAPT in psi4, default
symmetry c1  #important for SAPT in psi4, default
}

set PROPERTIES_ORIGIN ["COM"]
properties('MP2/aug-cc-pvtz', properties = ['dipole'])
--------------------------------------------------------------------------

    Molecular point group: c1
  Charge       = 0
  Multiplicity = 1
  Basis Set: AUG-CC-PVTZ
    Blend: AUG-CC-PVTZ
  Basis Set: (AUG-CC-PVTZ AUX)
    Blend: AUG-CC-PVTZ-JKFIT

    Orbital Energies [Eh]
    ---------------------

    Doubly Occupied:

       1A    -15.589953     2A    -15.553962     3A    -11.322906
       4A    -11.280953     5A    -11.272855     6A    -11.258543
       7A    -11.239021     8A    -11.235552     9A    -11.233775
      10A    -11.230324    11A    -11.229061    12A    -11.228622
      13A    -11.221342    14A    -11.218348    15A     -1.293014
      16A     -1.219937    17A     -1.132705    18A     -1.097077
      19A     -1.046049    20A     -1.008054    21A     -0.992977
      22A     -0.934747    23A     -0.868574    24A     -0.841226
      25A     -0.821241    26A     -0.797500    27A     -0.723178
      28A     -0.714663    29A     -0.670605    30A     -0.653020
      31A     -0.637199    32A     -0.621090    33A     -0.594025
      34A     -0.593773    35A     -0.588852    36A     -0.579380
      37A     -0.570290    38A     -0.562519    39A     -0.546858
      40A     -0.519290    41A     -0.511305    42A     -0.504180
      43A     -0.487273    44A     -0.454511    45A     -0.414523
      46A     -0.381511    47A     -0.336665    48A     -0.330509
      49A     -0.277067

  @DF-RHF Final Energy:  -570.49848004296678

   => Energetics <=

    Nuclear Repulsion Energy =            790.7426855082742350
    One-Electron Energy =               -2341.6011214338418540
    Two-Electron Energy =                 980.3599558826008433
    Total Energy =                       -570.4984800429667757
  Basis Set: (AUG-CC-PVTZ AUX)
    Blend: AUG-CC-PVTZ-RI
    Molecular point group: c1

    Geometry (in Angstrom), charge = 0, multiplicity = 1:

       Center              X                  Y                   Z               Mass
    ------------   -----------------  -----------------  -----------------  -----------------
         N           -0.460015558684     1.067997896780    -0.311758593128    14.003074004430
         N            1.039985441316    -0.722797103220    -0.008691593128    14.003074004430
         C           -1.678637558684     0.393898896780    -0.119659593128    12.000000000000
         C            0.836309441316     0.593764896780    -0.150452593128    12.000000000000
         C            3.434015441316    -0.322365103220     0.117042406872    12.000000000000
         C            1.900269441316     1.520619896780    -0.175906593128    12.000000000000
         C            3.195556441316     1.052632896780    -0.038883593128    12.000000000000
         C           -2.787365558684     1.167955896780     0.262404406872    12.000000000000
         C           -1.855250558684    -0.975640103220    -0.375478593128    12.000000000000
         C            2.311764441316    -1.147479103220     0.121633406872    12.000000000000
         C            4.824492441316    -0.874564103220     0.266760406872    12.000000000000
         C           -4.044095558684     0.586620896780     0.409537406872    12.000000000000
         C           -3.116932558684    -1.547208103220    -0.205426593128    12.000000000000
         C           -4.217898558684    -0.779056103220     0.176720406872    12.000000000000
         H           -0.536566158684     2.079528396780    -0.185901493128     1.007825032230
         H            1.704428441316     2.584218896780    -0.297934593128     1.007825032230
         H            4.028296441316     1.754624896780    -0.051808593128     1.007825032230
         H           -2.656403558684     2.231180896780     0.462474406872     1.007825032230
         H           -1.008174558684    -1.578190103220    -0.673610593128     1.007825032230
         H            2.427645441316    -2.225593103220     0.237991406872     1.007825032230
         H            5.440924441316    -0.641081103220    -0.607321593128     1.007825032230
         H            5.325016441316    -0.456184103220     1.145908406872     1.007825032230
         H            4.800024441316    -1.961927103220     0.379882406872     1.007825032230
         H           -4.887073558684     1.205168896780     0.708887406872     1.007825032230
         H           -3.239318558684    -2.610885103220    -0.397467593128     1.007825032230
         H           -5.195429558684    -1.238194103220     0.298717406872     1.007825032230

  Basis Set: AUG-CC-PVTZ
    Blend: AUG-CC-PVTZ
  Basis Set: (AUG-CC-PVTZ AUX)
    Blend: AUG-CC-PVTZ-JKFIT
	 Reference Energy          =    -570.4984800429667757 [Eh]
	 Singles Energy            =      -0.0000000000000000 [Eh]
	 Same-Spin Energy          =      -0.6364938872385194 [Eh]
	 Opposite-Spin Energy      =      -1.9710855736751074 [Eh]
	 Correlation Energy        =      -2.6075794609136267 [Eh]
	 Total Energy              =    -573.1060595038803740 [Eh]

	 ================> DF-SCS-MP2 Energies <==================
	-----------------------------------------------------------
	 SCS Same-Spin Scale       =       0.3333333333333333 [-]
	 SCS Opposite-Spin Scale   =       1.2000000000000000 [-]
	 SCS Same-Spin Energy      =      -0.2121646290795065 [Eh]
	 SCS Opposite-Spin Energy  =      -2.3653026884101287 [Eh]
	 SCS Correlation Energy    =      -2.5774673174896350 [Eh]
	 SCS Total Energy          =    -573.0759473604564391 [Eh]
	-----------------------------------------------------------

  Dipole Moment: [D]
     X:     1.8943      Y:     1.8432      Z:     0.2203     Total:     2.6522

*** Psi4 exiting successfully. Buy a developer a beer!
