                               Psi4 1.3.2 release

  ==> Input File <==

--------------------------------------------------------------------------
#psi4
#
memory 32 gb

molecule  {
0 1
  N       -0.4914050     1.0723760    -0.3164170
  N        1.0085960    -0.7184190    -0.0133500
  C       -1.7100270     0.3982770    -0.1243180
  C        0.8049200     0.5981430    -0.1551110
  C        3.4026260    -0.3179870     0.1123840
  C        1.8688800     1.5249980    -0.1805650
  C        3.1641670     1.0570110    -0.0435420
  C       -2.8187550     1.1723340     0.2577460
  C       -1.8866400    -0.9712620    -0.3801370
  C        2.2803750    -1.1431010     0.1169750
  C        4.7931030    -0.8701860     0.2621020
  C       -4.0754850     0.5909990     0.4048790
  C       -3.1483220    -1.5428300    -0.2100850
  C       -4.2492880    -0.7746780     0.1720620
  H       -0.5668863     2.0935138    -0.0408717
  H        1.6730390     2.5885970    -0.3025930
  H        3.9969070     1.7590030    -0.0564670
  H       -2.6877930     2.2355590     0.4578160
  H       -1.0395640    -1.5738120    -0.6782690
  H        2.3962560    -2.2212150     0.2333330
  H        5.4095350    -0.6367030    -0.6119800
  H        5.2936270    -0.4518060     1.1412500
  H        4.7686350    -1.9575490     0.3752240
  H       -4.9184630     1.2095470     0.7042290
  H       -3.2707080    -2.6065070    -0.4021260
  H       -5.2268190    -1.2338160     0.2940590
units angstrom
no_reorient  #important for SAPT in psi4, default
symmetry c1  #important for SAPT in psi4, default
}

set PROPERTIES_ORIGIN ["COM"]
properties('MP2/aug-cc-pvtz', properties = ['dipole'])
--------------------------------------------------------------------------

    Molecular point group: c1
  Charge       = 0
  Multiplicity = 1
  Basis Set: AUG-CC-PVTZ
    Blend: AUG-CC-PVTZ
  Basis Set: (AUG-CC-PVTZ AUX)
    Blend: AUG-CC-PVTZ-JKFIT

    Orbital Energies [Eh]
    ---------------------

    Doubly Occupied:

       1A    -15.593221     2A    -15.554734     3A    -11.322489
       4A    -11.280775     5A    -11.273037     6A    -11.258766
       7A    -11.239449     8A    -11.236382     9A    -11.233844
      10A    -11.230346    11A    -11.229496    12A    -11.228651
      13A    -11.221142    14A    -11.218208    15A     -1.292046
      16A     -1.218672    17A     -1.132244    18A     -1.097425
      19A     -1.046231    20A     -1.008055    21A     -0.992505
      22A     -0.934003    23A     -0.868599    24A     -0.840954
      25A     -0.821232    26A     -0.795822    27A     -0.722002
      28A     -0.710160    29A     -0.670693    30A     -0.651449
      31A     -0.637195    32A     -0.620611    33A     -0.594665
      34A     -0.590362    35A     -0.588223    36A     -0.578114
      37A     -0.572374    38A     -0.561443    39A     -0.546896
      40A     -0.519635    41A     -0.511818    42A     -0.504191
      43A     -0.486914    44A     -0.455438    45A     -0.414998
      46A     -0.381752    47A     -0.336899    48A     -0.330550
      49A     -0.277810

  @DF-RHF Final Energy:  -570.49474936962747

   => Energetics <=

    Nuclear Repulsion Energy =            790.6042190160578684
    One-Electron Energy =               -2341.3329041002712074
    Two-Electron Energy =                 980.2339357145858685
    Total Energy =                       -570.4947493696274705
  Basis Set: (AUG-CC-PVTZ AUX)
    Blend: AUG-CC-PVTZ-RI
    Molecular point group: c1

    Geometry (in Angstrom), charge = 0, multiplicity = 1:

       Center              X                  Y                   Z               Mass
    ------------   -----------------  -----------------  -----------------  -----------------
         N           -0.460021412388     1.067945303217    -0.312578036231    14.003074004430
         N            1.039979587612    -0.722849696783    -0.009511036231    14.003074004430
         C           -1.678643412388     0.393846303217    -0.120479036231    12.000000000000
         C            0.836303587612     0.593712303217    -0.151272036231    12.000000000000
         C            3.434009587612    -0.322417696783     0.116222963769    12.000000000000
         C            1.900263587612     1.520567303217    -0.176726036231    12.000000000000
         C            3.195550587612     1.052580303217    -0.039703036231    12.000000000000
         C           -2.787371412388     1.167903303217     0.261584963769    12.000000000000
         C           -1.855256412388    -0.975692696783    -0.376298036231    12.000000000000
         C            2.311758587612    -1.147531696783     0.120813963769    12.000000000000
         C            4.824486587612    -0.874616696783     0.265940963769    12.000000000000
         C           -4.044101412388     0.586568303217     0.408717963769    12.000000000000
         C           -3.116938412388    -1.547260696783    -0.206246036231    12.000000000000
         C           -4.217904412388    -0.779108696783     0.175900963769    12.000000000000
         H           -0.535502712388     2.089083103217    -0.037032736231     1.007825032230
         H            1.704422587612     2.584166303217    -0.298754036231     1.007825032230
         H            4.028290587612     1.754572303217    -0.052628036231     1.007825032230
         H           -2.656409412388     2.231128303217     0.461654963769     1.007825032230
         H           -1.008180412388    -1.578242696783    -0.674430036231     1.007825032230
         H            2.427639587612    -2.225645696783     0.237171963769     1.007825032230
         H            5.440918587612    -0.641133696783    -0.608141036231     1.007825032230
         H            5.325010587612    -0.456236696783     1.145088963769     1.007825032230
         H            4.800018587612    -1.961979696783     0.379062963769     1.007825032230
         H           -4.887079412388     1.205116303217     0.708067963769     1.007825032230
         H           -3.239324412388    -2.610937696783    -0.398287036231     1.007825032230
         H           -5.195435412388    -1.238246696783     0.297897963769     1.007825032230

  Basis Set: AUG-CC-PVTZ
    Blend: AUG-CC-PVTZ
  Basis Set: (AUG-CC-PVTZ AUX)
    Blend: AUG-CC-PVTZ-JKFIT
	 Reference Energy          =    -570.4947493696274705 [Eh]
	 Singles Energy            =      -0.0000000000000000 [Eh]
	 Same-Spin Energy          =      -0.6368655831573937 [Eh]
	 Opposite-Spin Energy      =      -1.9720074577188700 [Eh]
	 Correlation Energy        =      -2.6088730408762637 [Eh]
	 Total Energy              =    -573.1036224105037036 [Eh]

	 ================> DF-SCS-MP2 Energies <==================
	-----------------------------------------------------------
	 SCS Same-Spin Scale       =       0.3333333333333333 [-]
	 SCS Opposite-Spin Scale   =       1.2000000000000000 [-]
	 SCS Same-Spin Energy      =      -0.2122885277191312 [Eh]
	 SCS Opposite-Spin Energy  =      -2.3664089492626439 [Eh]
	 SCS Correlation Energy    =      -2.5786974769817750 [Eh]
	 SCS Total Energy          =    -573.0734468466092721 [Eh]
	-----------------------------------------------------------

  Dipole Moment: [D]
     X:     1.9660      Y:     1.7977      Z:     0.3861     Total:     2.6918

*** Psi4 exiting successfully. Buy a developer a beer!
