                               Psi4 1.3.2 release

  ==> Input File <==

--------------------------------------------------------------------------
#psi4
#
memory 32 gb

molecule  {
0 1
  O        0.0000000     1.2846030    -0.0000340
  C       -1.2933030    -0.7398820    -0.0001760
  C        1.2933030    -0.7398820     0.0001460
  C        0.0000000     0.1555960    -0.0000239
  C       -2.5345840     0.1407430     0.0001160
  C        2.5345840     0.1407430    -0.0000420
  H       -1.2807360    -1.4061910     0.8728000
  H       -1.2807880    -1.4056370    -0.8735800
  H        1.2807720    -1.4061280    -0.8728800
  H        1.2807530    -1.4057000     0.8735000
  H       -3.4404540    -0.4711510     0.0003790
  H       -2.5493440     0.7863420     0.8803370
  H       -2.5498290     0.7862720    -0.8801480
  H        2.5497870     0.7862280     0.8802560
  H        2.5493860     0.7863860    -0.8802290
  H        3.4404540    -0.4711510    -0.0002890
units angstrom
no_reorient  #important for SAPT in psi4, default
symmetry c1  #important for SAPT in psi4, default
}

set PROPERTIES_ORIGIN ["COM"]
properties('MP2/aug-cc-pvtz', properties = ['dipole'])
--------------------------------------------------------------------------

    Molecular point group: c1
  Charge       = 0
  Multiplicity = 1
  Basis Set: AUG-CC-PVTZ
    Blend: AUG-CC-PVTZ
  Basis Set: (AUG-CC-PVTZ AUX)
    Blend: AUG-CC-PVTZ-JKFIT

    Orbital Energies [Eh]
    ---------------------

    Doubly Occupied:

       1A    -20.551958     2A    -11.320068     3A    -11.233602
       4A    -11.233580     5A    -11.213336     6A    -11.213335
       7A     -1.448390     8A     -1.056831     9A     -1.029474
      10A     -0.901354    11A     -0.832937    12A     -0.731130
      13A     -0.677495    14A     -0.644698    15A     -0.633237
      16A     -0.601984    17A     -0.554393    18A     -0.542593
      19A     -0.527524    20A     -0.513961    21A     -0.503732
      22A     -0.498982    23A     -0.486369    24A     -0.383601

  @DF-RHF Final Energy:  -270.12224759115850

   => Energetics <=

    Nuclear Repulsion Energy =            239.7683185548007714
    One-Electron Energy =                -841.1120006831664568
    Two-Electron Energy =                 331.2214345372071875
    Total Energy =                       -270.1222475911584979
  Basis Set: (AUG-CC-PVTZ AUX)
    Blend: AUG-CC-PVTZ-RI
    Molecular point group: c1

    Geometry (in Angstrom), charge = 0, multiplicity = 1:

       Center              X                  Y                   Z               Mass
    ------------   -----------------  -----------------  -----------------  -----------------
         O           -0.000000011709     1.231306087012    -0.000032193576    15.994914619570
         C           -1.293303011709    -0.793178912988    -0.000174193576    12.000000000000
         C            1.293302988291    -0.793178912988     0.000147806424    12.000000000000
         C           -0.000000011709     0.102299087012    -0.000022093576    12.000000000000
         C           -2.534584011709     0.087446087012     0.000117806424    12.000000000000
         C            2.534583988291     0.087446087012    -0.000040193576    12.000000000000
         H           -1.280736011709    -1.459487912988     0.872801806424     1.007825032230
         H           -1.280788011709    -1.458933912988    -0.873578193576     1.007825032230
         H            1.280771988291    -1.459424912988    -0.872878193576     1.007825032230
         H            1.280752988291    -1.458996912988     0.873501806424     1.007825032230
         H           -3.440454011709    -0.524447912988     0.000380806424     1.007825032230
         H           -2.549344011709     0.733045087012     0.880338806424     1.007825032230
         H           -2.549829011709     0.732975087012    -0.880146193576     1.007825032230
         H            2.549786988291     0.732931087012     0.880257806424     1.007825032230
         H            2.549385988291     0.733089087012    -0.880227193576     1.007825032230
         H            3.440453988291    -0.524447912988    -0.000287193576     1.007825032230

  Basis Set: AUG-CC-PVTZ
    Blend: AUG-CC-PVTZ
  Basis Set: (AUG-CC-PVTZ AUX)
    Blend: AUG-CC-PVTZ-JKFIT
	 Reference Energy          =    -270.1222475911584979 [Eh]
	 Singles Energy            =      -0.0000000000000000 [Eh]
	 Same-Spin Energy          =      -0.2703133543990472 [Eh]
	 Opposite-Spin Energy      =      -0.9415001903489026 [Eh]
	 Correlation Energy        =      -1.2118135447479499 [Eh]
	 Total Energy              =    -271.3340611359064383 [Eh]

	 ================> DF-SCS-MP2 Energies <==================
	-----------------------------------------------------------
	 SCS Same-Spin Scale       =       0.3333333333333333 [-]
	 SCS Opposite-Spin Scale   =       1.2000000000000000 [-]
	 SCS Same-Spin Energy      =      -0.0901044514663491 [Eh]
	 SCS Opposite-Spin Energy  =      -1.1298002284186832 [Eh]
	 SCS Correlation Energy    =      -1.2199046798850324 [Eh]
	 SCS Total Energy          =    -271.3421522710435170 [Eh]
	-----------------------------------------------------------

  Dipole Moment: [D]
     X:    -0.0000      Y:    -2.2211      Z:     0.0000     Total:     2.2211

*** Psi4 exiting successfully. Buy a developer a beer!
