                               Psi4 1.3.2 release

  ==> Input File <==

--------------------------------------------------------------------------
#psi4
#
memory 32 gb

molecule  {
0 1
  O        0.0000000     1.2846030    -0.0000340
  C       -1.2933030    -0.7398820    -0.0001760
  C        1.2933030    -0.7398820     0.0001460
  C        0.0160359     0.0799114     0.0442535
  C       -2.5345840     0.1407430     0.0001160
  C        2.5345840     0.1407430    -0.0000420
  H       -1.2807360    -1.4061910     0.8728000
  H       -1.2807880    -1.4056370    -0.8735800
  H        1.2807720    -1.4061280    -0.8728800
  H        1.2807530    -1.4057000     0.8735000
  H       -3.4404540    -0.4711510     0.0003790
  H       -2.5493440     0.7863420     0.8803370
  H       -2.5498290     0.7862720    -0.8801480
  H        2.5497870     0.7862280     0.8802560
  H        2.5493860     0.7863860    -0.8802290
  H        3.4404540    -0.4711510    -0.0002890
units angstrom
no_reorient  #important for SAPT in psi4, default
symmetry c1  #important for SAPT in psi4, default
}

set PROPERTIES_ORIGIN ["COM"]
properties('MP2/aug-cc-pvtz', properties = ['dipole'])
--------------------------------------------------------------------------

    Molecular point group: c1
  Charge       = 0
  Multiplicity = 1
  Basis Set: AUG-CC-PVTZ
    Blend: AUG-CC-PVTZ
  Basis Set: (AUG-CC-PVTZ AUX)
    Blend: AUG-CC-PVTZ-JKFIT

    Orbital Energies [Eh]
    ---------------------

    Doubly Occupied:

       1A    -20.545301     2A    -11.326441     3A    -11.239030
       4A    -11.238052     5A    -11.216140     6A    -11.214877
       7A     -1.390447     8A     -1.066717     9A     -1.034600
      10A     -0.912079    11A     -0.840489    12A     -0.727268
      13A     -0.666332    14A     -0.644998    15A     -0.617206
      16A     -0.605418    17A     -0.559487    18A     -0.522271
      19A     -0.521814    20A     -0.511019    21A     -0.505031
      22A     -0.489661    23A     -0.486641    24A     -0.403285

  @DF-RHF Final Energy:  -270.13095778179934

   => Energetics <=

    Nuclear Repulsion Energy =            239.1039848037002571
    One-Electron Energy =                -839.9006781524284406
    Two-Electron Energy =                 330.6657355669289018
    Total Energy =                       -270.1309577817993386
  Basis Set: (AUG-CC-PVTZ AUX)
    Blend: AUG-CC-PVTZ-RI
    Molecular point group: c1

    Geometry (in Angstrom), charge = 0, multiplicity = 1:

       Center              X                  Y                   Z               Mass
    ------------   -----------------  -----------------  -----------------  -----------------
         O           -0.002235677147     1.241857751989    -0.006205183733    15.994914619570
         C           -1.295538677147    -0.782627248011    -0.006347183733    12.000000000000
         C            1.291067322853    -0.782627248011    -0.006025183733    12.000000000000
         C            0.013800222853     0.037166151989     0.038082316267    12.000000000000
         C           -2.536819677147     0.097997751989    -0.006055183733    12.000000000000
         C            2.532348322853     0.097997751989    -0.006213183733    12.000000000000
         H           -1.282971677147    -1.448936248011     0.866628816267     1.007825032230
         H           -1.283023677147    -1.448382248011    -0.879751183733     1.007825032230
         H            1.278536322853    -1.448873248011    -0.879051183733     1.007825032230
         H            1.278517322853    -1.448445248011     0.867328816267     1.007825032230
         H           -3.442689677147    -0.513896248011    -0.005792183733     1.007825032230
         H           -2.551579677147     0.743596751989     0.874165816267     1.007825032230
         H           -2.552064677147     0.743526751989    -0.886319183733     1.007825032230
         H            2.547551322853     0.743482751989     0.874084816267     1.007825032230
         H            2.547150322853     0.743640751989    -0.886400183733     1.007825032230
         H            3.438218322853    -0.513896248011    -0.006460183733     1.007825032230

  Basis Set: AUG-CC-PVTZ
    Blend: AUG-CC-PVTZ
  Basis Set: (AUG-CC-PVTZ AUX)
    Blend: AUG-CC-PVTZ-JKFIT
	 Reference Energy          =    -270.1309577817993386 [Eh]
	 Singles Energy            =      -0.0000000000000000 [Eh]
	 Same-Spin Energy          =      -0.2721690426040389 [Eh]
	 Opposite-Spin Energy      =      -0.9453540158235220 [Eh]
	 Correlation Energy        =      -1.2175230584275609 [Eh]
	 Total Energy              =    -271.3484808402268982 [Eh]

	 ================> DF-SCS-MP2 Energies <==================
	-----------------------------------------------------------
	 SCS Same-Spin Scale       =       0.3333333333333333 [-]
	 SCS Opposite-Spin Scale   =       1.2000000000000000 [-]
	 SCS Same-Spin Energy      =      -0.0907230142013463 [Eh]
	 SCS Opposite-Spin Energy  =      -1.1344248189882262 [Eh]
	 SCS Correlation Energy    =      -1.2251478331895724 [Eh]
	 SCS Total Energy          =    -271.3561056149889055 [Eh]
	-----------------------------------------------------------

  Dipole Moment: [D]
     X:     0.0852      Y:    -2.5859      Z:     0.0157     Total:     2.5874

*** Psi4 exiting successfully. Buy a developer a beer!
