                               Psi4 1.3.2 release

  ==> Input File <==

--------------------------------------------------------------------------
#psi4
#
memory 32 gb

molecule  {
0 1
  O        0.0000000     1.2846030    -0.0000340
  C       -1.2346628    -0.8281605    -0.0001678
  C        1.2933030    -0.7398820     0.0001460
  C        0.0000000     0.0555960    -0.0000230
  C       -2.5345840     0.1407430     0.0001160
  C        2.5345840     0.1407430    -0.0000420
  H       -1.2807360    -1.4061910     0.8728000
  H       -1.2807880    -1.4056370    -0.8735800
  H        1.2807720    -1.4061280    -0.8728800
  H        1.2807530    -1.4057000     0.8735000
  H       -3.4404540    -0.4711510     0.0003790
  H       -2.5493440     0.7863420     0.8803370
  H       -2.5498290     0.7862720    -0.8801480
  H        2.5497870     0.7862280     0.8802560
  H        2.5493860     0.7863860    -0.8802290
  H        3.4404540    -0.4711510    -0.0002890
units angstrom
no_reorient  #important for SAPT in psi4, default
symmetry c1  #important for SAPT in psi4, default
}

set PROPERTIES_ORIGIN ["COM"]
properties('MP2/aug-cc-pvtz', properties = ['dipole'])
--------------------------------------------------------------------------

    Molecular point group: c1
  Charge       = 0
  Multiplicity = 1
  Basis Set: AUG-CC-PVTZ
    Blend: AUG-CC-PVTZ
  Basis Set: (AUG-CC-PVTZ AUX)
    Blend: AUG-CC-PVTZ-JKFIT

    Orbital Energies [Eh]
    ---------------------

    Doubly Occupied:

       1A    -20.546405     2A    -11.329912     3A    -11.237189
       4A    -11.236320     5A    -11.220023     6A    -11.214716
       7A     -1.375128     8A     -1.069220     9A     -1.027669
      10A     -0.912830    11A     -0.846093    12A     -0.731093
      13A     -0.662199    14A     -0.653626    15A     -0.614703
      16A     -0.609829    17A     -0.551441    18A     -0.522676
      19A     -0.521044    20A     -0.511375    21A     -0.502415
      22A     -0.482789    23A     -0.482066    24A     -0.407223

  @DF-RHF Final Energy:  -270.12037066936358

   => Energetics <=

    Nuclear Repulsion Energy =            238.3919949687893904
    One-Electron Energy =                -838.4887628031834765
    Two-Electron Energy =                 329.9763971650305052
    Total Energy =                       -270.1203706693635809
  Basis Set: (AUG-CC-PVTZ AUX)
    Blend: AUG-CC-PVTZ-RI
    Molecular point group: c1

    Geometry (in Angstrom), charge = 0, multiplicity = 1:

       Center              X                  Y                   Z               Mass
    ------------   -----------------  -----------------  -----------------  -----------------
         O           -0.008175409935     1.257555174071    -0.000033462264    15.994914619570
         C           -1.242838209935    -0.855208325929    -0.000167262264    12.000000000000
         C            1.285127590065    -0.766929825929     0.000146537736    12.000000000000
         C           -0.008175409935     0.028548174071    -0.000022462264    12.000000000000
         C           -2.542759409935     0.113695174071     0.000116537736    12.000000000000
         C            2.526408590065     0.113695174071    -0.000041462264    12.000000000000
         H           -1.288911409935    -1.433238825929     0.872800537736     1.007825032230
         H           -1.288963409935    -1.432684825929    -0.873579462264     1.007825032230
         H            1.272596590065    -1.433175825929    -0.872879462264     1.007825032230
         H            1.272577590065    -1.432747825929     0.873500537736     1.007825032230
         H           -3.448629409935    -0.498198825929     0.000379537736     1.007825032230
         H           -2.557519409935     0.759294174071     0.880337537736     1.007825032230
         H           -2.558004409935     0.759224174071    -0.880147462264     1.007825032230
         H            2.541611590065     0.759180174071     0.880256537736     1.007825032230
         H            2.541210590065     0.759338174071    -0.880228462264     1.007825032230
         H            3.432278590065    -0.498198825929    -0.000288462264     1.007825032230

  Basis Set: AUG-CC-PVTZ
    Blend: AUG-CC-PVTZ
  Basis Set: (AUG-CC-PVTZ AUX)
    Blend: AUG-CC-PVTZ-JKFIT
	 Reference Energy          =    -270.1203706693635809 [Eh]
	 Singles Energy            =      -0.0000000000000000 [Eh]
	 Same-Spin Energy          =      -0.2726072521289079 [Eh]
	 Opposite-Spin Energy      =      -0.9469982097792856 [Eh]
	 Correlation Energy        =      -1.2196054619081935 [Eh]
	 Total Energy              =    -271.3399761312717828 [Eh]

	 ================> DF-SCS-MP2 Energies <==================
	-----------------------------------------------------------
	 SCS Same-Spin Scale       =       0.3333333333333333 [-]
	 SCS Opposite-Spin Scale   =       1.2000000000000000 [-]
	 SCS Same-Spin Energy      =      -0.0908690840429693 [Eh]
	 SCS Opposite-Spin Energy  =      -1.1363978517351427 [Eh]
	 SCS Correlation Energy    =      -1.2272669357781121 [Eh]
	 SCS Total Energy          =    -271.3476376051416992 [Eh]
	-----------------------------------------------------------

  Dipole Moment: [D]
     X:     0.0085      Y:    -2.6799      Z:     0.0000     Total:     2.6799

*** Psi4 exiting successfully. Buy a developer a beer!
