                               Psi4 1.4a3.dev225

  ==> Input File <==

--------------------------------------------------------------------------
#psi4
#
memory 32 gb

molecule  {
0 1
  O        0.0000000     1.2846080    -0.0000020
  C       -1.2933020    -0.7398800     0.0000010
  C        1.2933020    -0.7398800    -0.0000030
  C        0.0000000     0.1056000    -0.0000010
  C       -2.5345880     0.1407340     0.0000020
  C        2.5345890     0.1407340     0.0000030
  H       -1.2807520    -1.4059020     0.8731990
  H       -1.2807540    -1.4059020    -0.8731970
  H        1.2807540    -1.4058970    -0.8732050
  H        1.2807510    -1.4059060     0.8731910
  H       -3.4404600    -0.4711580     0.0000060
  H       -2.5496050     0.7863060     0.8802420
  H       -2.5496100     0.7863010    -0.8802430
  H        2.5496080     0.7862970     0.8802510
  H        2.5496070     0.7863100    -0.8802340
  H        3.4404600    -0.4711580    -0.0000010
units angstrom
no_reorient  #important for SAPT in psi4, default
symmetry c1  #important for SAPT in psi4, default
}

set PROPERTIES_ORIGIN ["COM"]
properties('MP2/aug-cc-pvtz', properties = ['dipole'])
--------------------------------------------------------------------------

    Molecular point group: c1
  Charge       = 0
  Multiplicity = 1
  Basis Set: AUG-CC-PVTZ
    Blend: AUG-CC-PVTZ
  Basis Set: (AUG-CC-PVTZ AUX)
    Blend: AUG-CC-PVTZ-JKFIT

    Orbital Energies [Eh]
    ---------------------

    Doubly Occupied:

       1A    -20.547359     2A    -11.324046     3A    -11.236928
       4A    -11.236906     5A    -11.214776     6A    -11.214776
       7A     -1.409550     8A     -1.063203     9A     -1.033009
      10A     -0.908513    11A     -0.837924    12A     -0.728152
      13A     -0.669500    14A     -0.644335    15A     -0.622999
      16A     -0.604332    17A     -0.557928    18A     -0.526840
      19A     -0.523372    20A     -0.512247    21A     -0.504670
      22A     -0.493312    23A     -0.488566    24A     -0.397522

  @DF-RHF Final Energy:  -270.13167655586199

   => Energetics <=

    Nuclear Repulsion Energy =            239.3292502390646916
    One-Electron Energy =                -840.3203224930339275
    Two-Electron Energy =                 330.8593956981072779
    Total Energy =                       -270.1316765558619863
  Basis Set: (AUG-CC-PVTZ AUX)
    Blend: AUG-CC-PVTZ-RI
    Molecular point group: c1

    Geometry (in Angstrom), charge = 0, multiplicity = 1:

       Center              X                  Y                   Z               Mass
    ------------   -----------------  -----------------  -----------------  -----------------
         O           -0.000000127707     1.238282119871    -0.000002012554    15.994914619570
         C           -1.293302127707    -0.786205880129     0.000000987446    12.000000000000
         C            1.293301872293    -0.786205880129    -0.000003012554    12.000000000000
         C           -0.000000127707     0.059274119871    -0.000001012554    12.000000000000
         C           -2.534588127707     0.094408119871     0.000001987446    12.000000000000
         C            2.534588872293     0.094408119871     0.000002987446    12.000000000000
         H           -1.280752127707    -1.452227880129     0.873198987446     1.007825032230
         H           -1.280754127707    -1.452227880129    -0.873197012554     1.007825032230
         H            1.280753872293    -1.452222880129    -0.873205012554     1.007825032230
         H            1.280750872293    -1.452231880129     0.873190987446     1.007825032230
         H           -3.440460127707    -0.517483880129     0.000005987446     1.007825032230
         H           -2.549605127707     0.739980119871     0.880241987446     1.007825032230
         H           -2.549610127707     0.739975119871    -0.880243012554     1.007825032230
         H            2.549607872293     0.739971119871     0.880250987446     1.007825032230
         H            2.549606872293     0.739984119871    -0.880234012554     1.007825032230
         H            3.440459872293    -0.517483880129    -0.000001012554     1.007825032230

  Basis Set: AUG-CC-PVTZ
    Blend: AUG-CC-PVTZ
  Basis Set: (AUG-CC-PVTZ AUX)
    Blend: AUG-CC-PVTZ-JKFIT
	 Reference Energy          =    -270.1316765558619863 [Eh]
	 Singles Energy            =      -0.0000000000000000 [Eh]
	 Same-Spin Energy          =      -0.2714325700877599 [Eh]
	 Opposite-Spin Energy      =      -0.9438059437271049 [Eh]
	 Correlation Energy        =      -1.2152385138148647 [Eh]
	 Total Energy              =    -271.3469150696768679 [Eh]

	 ================> DF-SCS-MP2 Energies <==================
	-----------------------------------------------------------
	 SCS Same-Spin Scale       =       0.3333333333333333 [-]
	 SCS Opposite-Spin Scale   =       1.2000000000000000 [-]
	 SCS Same-Spin Energy      =      -0.0904775233625866 [Eh]
	 SCS Opposite-Spin Energy  =      -1.1325671324725259 [Eh]
	 SCS Correlation Energy    =      -1.2230446558351125 [Eh]
	 SCS Total Energy          =    -271.3547212116970968 [Eh]
	-----------------------------------------------------------

  Dipole Moment: [D]
     X:    -0.0000      Y:    -2.4729      Z:     0.0000     Total:     2.4729

*** Psi4 exiting successfully. Buy a developer a beer!
