                               Psi4 1.3.2 release

  ==> Input File <==

--------------------------------------------------------------------------
#psi4
#
memory 32 gb

molecule  {
0 1
  O        0.0000000     1.2846030    -0.0000340
  C       -1.3456423    -0.6477280    -0.0001834
  C        1.2933030    -0.7398820     0.0001460
  C        0.0000000     0.0555960    -0.0000230
  C       -2.5345840     0.1407430     0.0001160
  C        2.5345840     0.1407430    -0.0000420
  H       -1.2807360    -1.4061910     0.8728000
  H       -1.2807880    -1.4056370    -0.8735800
  H        1.2807720    -1.4061280    -0.8728800
  H        1.2807530    -1.4057000     0.8735000
  H       -3.4404540    -0.4711510     0.0003790
  H       -2.5493440     0.7863420     0.8803370
  H       -2.5498290     0.7862720    -0.8801480
  H        2.5497870     0.7862280     0.8802560
  H        2.5493860     0.7863860    -0.8802290
  H        3.4404540    -0.4711510    -0.0002890
units angstrom
no_reorient  #important for SAPT in psi4, default
symmetry c1  #important for SAPT in psi4, default
}

set PROPERTIES_ORIGIN ["COM"]
properties('MP2/aug-cc-pvtz', properties = ['dipole'])
--------------------------------------------------------------------------

    Molecular point group: c1
  Charge       = 0
  Multiplicity = 1
  Basis Set: AUG-CC-PVTZ
    Blend: AUG-CC-PVTZ
  Basis Set: (AUG-CC-PVTZ AUX)
    Blend: AUG-CC-PVTZ-JKFIT

    Orbital Energies [Eh]
    ---------------------

    Doubly Occupied:

       1A    -20.539541     2A    -11.327697     3A    -11.246256
       4A    -11.242748     5A    -11.217765     6A    -11.212436
       7A     -1.373712     8A     -1.074853     9A     -1.047030
      10A     -0.917535    11A     -0.840649    12A     -0.721458
      13A     -0.666654    14A     -0.642687    15A     -0.612754
      16A     -0.606285    17A     -0.577122    18A     -0.521974
      19A     -0.519659    20A     -0.519381    21A     -0.504406
      22A     -0.485360    23A     -0.462218    24A     -0.407443

  @DF-RHF Final Energy:  -270.11722327150693

   => Energetics <=

    Nuclear Repulsion Energy =            239.6302083200747006
    One-Electron Energy =                -840.9196181696469239
    Two-Electron Energy =                 331.1721865780652365
    Total Energy =                       -270.1172232715069299
  Basis Set: (AUG-CC-PVTZ AUX)
    Blend: AUG-CC-PVTZ-RI
    Molecular point group: c1

    Geometry (in Angstrom), charge = 0, multiplicity = 1:

       Center              X                  Y                   Z               Mass
    ------------   -----------------  -----------------  -----------------  -----------------
         O            0.007296938513     1.232399947102    -0.000031287370    15.994914619570
         C           -1.338345361487    -0.699931052898    -0.000180687370    12.000000000000
         C            1.300599938513    -0.792085052898     0.000148712630    12.000000000000
         C            0.007296938513     0.003392947102    -0.000020287370    12.000000000000
         C           -2.527287061487     0.088539947102     0.000118712630    12.000000000000
         C            2.541880938513     0.088539947102    -0.000039287370    12.000000000000
         H           -1.273439061487    -1.458394052898     0.872802712630     1.007825032230
         H           -1.273491061487    -1.457840052898    -0.873577287370     1.007825032230
         H            1.288068938513    -1.458331052898    -0.872877287370     1.007825032230
         H            1.288049938513    -1.457903052898     0.873502712630     1.007825032230
         H           -3.433157061487    -0.523354052898     0.000381712630     1.007825032230
         H           -2.542047061487     0.734138947102     0.880339712630     1.007825032230
         H           -2.542532061487     0.734068947102    -0.880145287370     1.007825032230
         H            2.557083938513     0.734024947102     0.880258712630     1.007825032230
         H            2.556682938513     0.734182947102    -0.880226287370     1.007825032230
         H            3.447750938513    -0.523354052898    -0.000286287370     1.007825032230

  Basis Set: AUG-CC-PVTZ
    Blend: AUG-CC-PVTZ
  Basis Set: (AUG-CC-PVTZ AUX)
    Blend: AUG-CC-PVTZ-JKFIT
	 Reference Energy          =    -270.1172232715069299 [Eh]
	 Singles Energy            =      -0.0000000000000000 [Eh]
	 Same-Spin Energy          =      -0.2737611932592714 [Eh]
	 Opposite-Spin Energy      =      -0.9477241732471215 [Eh]
	 Correlation Energy        =      -1.2214853665063929 [Eh]
	 Total Energy              =    -271.3387086380133155 [Eh]

	 ================> DF-SCS-MP2 Energies <==================
	-----------------------------------------------------------
	 SCS Same-Spin Scale       =       0.3333333333333333 [-]
	 SCS Opposite-Spin Scale   =       1.2000000000000000 [-]
	 SCS Same-Spin Energy      =      -0.0912537310864238 [Eh]
	 SCS Opposite-Spin Energy  =      -1.1372690078965457 [Eh]
	 SCS Correlation Energy    =      -1.2285227389829696 [Eh]
	 SCS Total Energy          =    -271.3457460104899042 [Eh]
	-----------------------------------------------------------

  Dipole Moment: [D]
     X:    -0.0292      Y:    -2.6689      Z:     0.0000     Total:     2.6690

*** Psi4 exiting successfully. Buy a developer a beer!
