                               Psi4 1.3.2 release

  ==> Input File <==

--------------------------------------------------------------------------
#psi4
#
memory 32 gb

molecule  {
0 1
  O        0.0000000     1.2846030    -0.0000340
  C       -1.2933030    -0.7398820    -0.0001760
  C        1.2933030    -0.7398820     0.0001460
  C       -0.0269739     0.0099758    -0.0000133
  C       -2.5345840     0.1407430     0.0001160
  C        2.5345840     0.1407430    -0.0000420
  H       -1.2807360    -1.4061910     0.8728000
  H       -1.2807880    -1.4056370    -0.8735800
  H        1.2807720    -1.4061280    -0.8728800
  H        1.2807530    -1.4057000     0.8735000
  H       -3.4404540    -0.4711510     0.0003790
  H       -2.5493440     0.7863420     0.8803370
  H       -2.5498290     0.7862720    -0.8801480
  H        2.5497870     0.7862280     0.8802560
  H        2.5493860     0.7863860    -0.8802290
  H        3.4404540    -0.4711510    -0.0002890
units angstrom
no_reorient  #important for SAPT in psi4, default
symmetry c1  #important for SAPT in psi4, default
}

set PROPERTIES_ORIGIN ["COM"]
properties('MP2/aug-cc-pvtz', properties = ['dipole'])
--------------------------------------------------------------------------

    Molecular point group: c1
  Charge       = 0
  Multiplicity = 1
  Basis Set: AUG-CC-PVTZ
    Blend: AUG-CC-PVTZ
  Basis Set: (AUG-CC-PVTZ AUX)
    Blend: AUG-CC-PVTZ-JKFIT

    Orbital Energies [Eh]
    ---------------------

    Doubly Occupied:

       1A    -20.538789     2A    -11.332055     3A    -11.242516
       4A    -11.241979     5A    -11.218517     6A    -11.216570
       7A     -1.344689     8A     -1.076420     9A     -1.039573
      10A     -0.921468    11A     -0.848239    12A     -0.725478
      13A     -0.661075    14A     -0.648411    15A     -0.608526
      16A     -0.603380    17A     -0.562411    18A     -0.519681
      19A     -0.519101    20A     -0.507529    21A     -0.504587
      22A     -0.492348    23A     -0.463345    24A     -0.415087

  @DF-RHF Final Energy:  -270.12151965988835

   => Energetics <=

    Nuclear Repulsion Energy =            238.6757476541097276
    One-Electron Energy =                -839.0909898009286962
    Two-Electron Energy =                 330.2937224869306192
    Total Energy =                       -270.1215196598883495
  Basis Set: (AUG-CC-PVTZ AUX)
    Blend: AUG-CC-PVTZ-RI
    Molecular point group: c1

    Geometry (in Angstrom), charge = 0, multiplicity = 1:

       Center              X                  Y                   Z               Mass
    ------------   -----------------  -----------------  -----------------  -----------------
         O            0.003760588941     1.251607912803    -0.000033671388    15.994914619570
         C           -1.289542411059    -0.772877087197    -0.000175671388    12.000000000000
         C            1.297063588941    -0.772877087197     0.000146328612    12.000000000000
         C           -0.023213311059    -0.023019287197    -0.000012971388    12.000000000000
         C           -2.530823411059     0.107747912803     0.000116328612    12.000000000000
         C            2.538344588941     0.107747912803    -0.000041671388    12.000000000000
         H           -1.276975411059    -1.439186087197     0.872800328612     1.007825032230
         H           -1.277027411059    -1.438632087197    -0.873579671388     1.007825032230
         H            1.284532588941    -1.439123087197    -0.872879671388     1.007825032230
         H            1.284513588941    -1.438695087197     0.873500328612     1.007825032230
         H           -3.436693411059    -0.504146087197     0.000379328612     1.007825032230
         H           -2.545583411059     0.753346912803     0.880337328612     1.007825032230
         H           -2.546068411059     0.753276912803    -0.880147671388     1.007825032230
         H            2.553547588941     0.753232912803     0.880256328612     1.007825032230
         H            2.553146588941     0.753390912803    -0.880228671388     1.007825032230
         H            3.444214588941    -0.504146087197    -0.000288671388     1.007825032230

  Basis Set: AUG-CC-PVTZ
    Blend: AUG-CC-PVTZ
  Basis Set: (AUG-CC-PVTZ AUX)
    Blend: AUG-CC-PVTZ-JKFIT
	 Reference Energy          =    -270.1215196598883495 [Eh]
	 Singles Energy            =      -0.0000000000000000 [Eh]
	 Same-Spin Energy          =      -0.2742735593870426 [Eh]
	 Opposite-Spin Energy      =      -0.9494514947103463 [Eh]
	 Correlation Energy        =      -1.2237250540973887 [Eh]
	 Total Energy              =    -271.3452447139857213 [Eh]

	 ================> DF-SCS-MP2 Energies <==================
	-----------------------------------------------------------
	 SCS Same-Spin Scale       =       0.3333333333333333 [-]
	 SCS Opposite-Spin Scale   =       1.2000000000000000 [-]
	 SCS Same-Spin Energy      =      -0.0914245197956809 [Eh]
	 SCS Opposite-Spin Energy  =      -1.1393417936524155 [Eh]
	 SCS Correlation Energy    =      -1.2307663134480964 [Eh]
	 SCS Total Energy          =    -271.3522859733364498 [Eh]
	-----------------------------------------------------------

  Dipole Moment: [D]
     X:    -0.1306      Y:    -2.8605      Z:    -0.0000     Total:     2.8635

*** Psi4 exiting successfully. Buy a developer a beer!
