                               Psi4 1.3.2 release

  ==> Input File <==

--------------------------------------------------------------------------
#psi4
#
memory 32 gb

molecule  {
0 1
  O        0.0000000     1.2846030    -0.0000340
  C       -1.2933030    -0.7398820    -0.0001760
  C        1.2933030    -0.7398820     0.0001460
  C        0.0902349     0.1864253    -0.0000509
  C       -2.5345840     0.1407430     0.0001160
  C        2.5345840     0.1407430    -0.0000420
  H       -1.2807360    -1.4061910     0.8728000
  H       -1.2807880    -1.4056370    -0.8735800
  H        1.2807720    -1.4061280    -0.8728800
  H        1.2807530    -1.4057000     0.8735000
  H       -3.4404540    -0.4711510     0.0003790
  H       -2.5493440     0.7863420     0.8803370
  H       -2.5498290     0.7862720    -0.8801480
  H        2.5497870     0.7862280     0.8802560
  H        2.5493860     0.7863860    -0.8802290
  H        3.4404540    -0.4711510    -0.0002890
units angstrom
no_reorient  #important for SAPT in psi4, default
symmetry c1  #important for SAPT in psi4, default
}

set PROPERTIES_ORIGIN ["COM"]
properties('MP2/aug-cc-pvtz', properties = ['dipole'])
--------------------------------------------------------------------------

    Molecular point group: c1
  Charge       = 0
  Multiplicity = 1
  Basis Set: AUG-CC-PVTZ
    Blend: AUG-CC-PVTZ
  Basis Set: (AUG-CC-PVTZ AUX)
    Blend: AUG-CC-PVTZ-JKFIT

    Orbital Energies [Eh]
    ---------------------

    Doubly Occupied:

       1A    -20.556118     2A    -11.319698     3A    -11.237752
       4A    -11.224280     5A    -11.217112     6A    -11.207994
       7A     -1.471873     8A     -1.062001     9A     -1.021285
      10A     -0.899379    11A     -0.827904    12A     -0.735586
      13A     -0.684508    14A     -0.648892    15A     -0.639009
      16A     -0.598813    17A     -0.554027    18A     -0.552339
      19A     -0.530675    20A     -0.517868    21A     -0.502229
      22A     -0.500271    23A     -0.482351    24A     -0.369136

  @DF-RHF Final Energy:  -270.10455385864782

   => Energetics <=

    Nuclear Repulsion Energy =            240.0629064381998887
    One-Electron Energy =                -841.6127235059773284
    Two-Electron Energy =                 331.4452632091296209
    Total Energy =                       -270.1045538586478187
  Basis Set: (AUG-CC-PVTZ AUX)
    Blend: AUG-CC-PVTZ-RI
    Molecular point group: c1

    Geometry (in Angstrom), charge = 0, multiplicity = 1:

       Center              X                  Y                   Z               Mass
    ------------   -----------------  -----------------  -----------------  -----------------
         O           -0.012580225307     1.227007980857    -0.000028429336    15.994914619570
         C           -1.305883225307    -0.797477019143    -0.000170429336    12.000000000000
         C            1.280722774693    -0.797477019143     0.000151570664    12.000000000000
         C            0.077654674693     0.128830280857    -0.000045329336    12.000000000000
         C           -2.547164225307     0.083147980857     0.000121570664    12.000000000000
         C            2.522003774693     0.083147980857    -0.000036429336    12.000000000000
         H           -1.293316225307    -1.463786019143     0.872805570664     1.007825032230
         H           -1.293368225307    -1.463232019143    -0.873574429336     1.007825032230
         H            1.268191774693    -1.463723019143    -0.872874429336     1.007825032230
         H            1.268172774693    -1.463295019143     0.873505570664     1.007825032230
         H           -3.453034225307    -0.528746019143     0.000384570664     1.007825032230
         H           -2.561924225307     0.728746980857     0.880342570664     1.007825032230
         H           -2.562409225307     0.728676980857    -0.880142429336     1.007825032230
         H            2.537206774693     0.728632980857     0.880261570664     1.007825032230
         H            2.536805774693     0.728790980857    -0.880223429336     1.007825032230
         H            3.427873774693    -0.528746019143    -0.000283429336     1.007825032230

  Basis Set: AUG-CC-PVTZ
    Blend: AUG-CC-PVTZ
  Basis Set: (AUG-CC-PVTZ AUX)
    Blend: AUG-CC-PVTZ-JKFIT
	 Reference Energy          =    -270.1045538586478187 [Eh]
	 Singles Energy            =      -0.0000000000000000 [Eh]
	 Same-Spin Energy          =      -0.2701815641093452 [Eh]
	 Opposite-Spin Energy      =      -0.9411254752252056 [Eh]
	 Correlation Energy        =      -1.2113070393345509 [Eh]
	 Total Energy              =    -271.3158608979823612 [Eh]

	 ================> DF-SCS-MP2 Energies <==================
	-----------------------------------------------------------
	 SCS Same-Spin Scale       =       0.3333333333333333 [-]
	 SCS Opposite-Spin Scale   =       1.2000000000000000 [-]
	 SCS Same-Spin Energy      =      -0.0900605213697817 [Eh]
	 SCS Opposite-Spin Energy  =      -1.1293505702702467 [Eh]
	 SCS Correlation Energy    =      -1.2194110916400285 [Eh]
	 SCS Total Energy          =    -271.3239649502878592 [Eh]
	-----------------------------------------------------------

  Dipole Moment: [D]
     X:     0.5922      Y:    -2.0403      Z:     0.0001     Total:     2.1245

*** Psi4 exiting successfully. Buy a developer a beer!
