                               Psi4 1.3.2 release

  ==> Input File <==

--------------------------------------------------------------------------
#psi4
#
memory 32 gb

molecule  {
0 1
  O        0.0000000     1.2846030    -0.0000340
  C       -1.2933030    -0.7398820    -0.0001760
  C        1.2933030    -0.7398820     0.0001460
  C       -0.1703552     0.1603772    -0.0000453
  C       -2.5345840     0.1407430     0.0001160
  C        2.5345840     0.1407430    -0.0000420
  H       -1.2807360    -1.4061910     0.8728000
  H       -1.2807880    -1.4056370    -0.8735800
  H        1.2807720    -1.4061280    -0.8728800
  H        1.2807530    -1.4057000     0.8735000
  H       -3.4404540    -0.4711510     0.0003790
  H       -2.5493440     0.7863420     0.8803370
  H       -2.5498290     0.7862720    -0.8801480
  H        2.5497870     0.7862280     0.8802560
  H        2.5493860     0.7863860    -0.8802290
  H        3.4404540    -0.4711510    -0.0002890
units angstrom
no_reorient  #important for SAPT in psi4, default
symmetry c1  #important for SAPT in psi4, default
}

set PROPERTIES_ORIGIN ["COM"]
properties('MP2/aug-cc-pvtz', properties = ['dipole'])
--------------------------------------------------------------------------

    Molecular point group: c1
  Charge       = 0
  Multiplicity = 1
  Basis Set: AUG-CC-PVTZ
    Blend: AUG-CC-PVTZ
  Basis Set: (AUG-CC-PVTZ AUX)
    Blend: AUG-CC-PVTZ-JKFIT

    Orbital Energies [Eh]
    ---------------------

    Doubly Occupied:

       1A    -20.555610     2A    -11.325707     3A    -11.242919
       4A    -11.221774     5A    -11.221472     6A    -11.205387
       7A     -1.444901     8A     -1.081823     9A     -1.014628
      10A     -0.908744    11A     -0.825723    12A     -0.738036
      13A     -0.679338    14A     -0.652958    15A     -0.633856
      16A     -0.596065    17A     -0.554933    18A     -0.542099
      19A     -0.531546    20A     -0.518867    21A     -0.504936
      22A     -0.497688    23A     -0.479316    24A     -0.365518

  @DF-RHF Final Energy:  -270.09833344373459

   => Energetics <=

    Nuclear Repulsion Energy =            239.7888909647778064
    One-Electron Energy =                -841.0867603508468164
    Two-Electron Energy =                 331.1995359423344212
    Total Energy =                       -270.0983334437345889
  Basis Set: (AUG-CC-PVTZ AUX)
    Blend: AUG-CC-PVTZ-RI
    Molecular point group: c1

    Geometry (in Angstrom), charge = 0, multiplicity = 1:

       Center              X                  Y                   Z               Mass
    ------------   -----------------  -----------------  -----------------  -----------------
         O            0.023750275635     1.230639509919    -0.000029210068    15.994914619570
         C           -1.269552724365    -0.793845490081    -0.000171210068    12.000000000000
         C            1.317053275635    -0.793845490081     0.000150789932    12.000000000000
         C           -0.146604924365     0.106413709919    -0.000040510068    12.000000000000
         C           -2.510833724365     0.086779509919     0.000120789932    12.000000000000
         C            2.558334275635     0.086779509919    -0.000037210068    12.000000000000
         H           -1.256985724365    -1.460154490081     0.872804789932     1.007825032230
         H           -1.257037724365    -1.459600490081    -0.873575210068     1.007825032230
         H            1.304522275635    -1.460091490081    -0.872875210068     1.007825032230
         H            1.304503275635    -1.459663490081     0.873504789932     1.007825032230
         H           -3.416703724365    -0.525114490081     0.000383789932     1.007825032230
         H           -2.525593724365     0.732378509919     0.880341789932     1.007825032230
         H           -2.526078724365     0.732308509919    -0.880143210068     1.007825032230
         H            2.573537275635     0.732264509919     0.880260789932     1.007825032230
         H            2.573136275635     0.732422509919    -0.880224210068     1.007825032230
         H            3.464204275635    -0.525114490081    -0.000284210068     1.007825032230

  Basis Set: AUG-CC-PVTZ
    Blend: AUG-CC-PVTZ
  Basis Set: (AUG-CC-PVTZ AUX)
    Blend: AUG-CC-PVTZ-JKFIT
	 Reference Energy          =    -270.0983334437345889 [Eh]
	 Singles Energy            =      -0.0000000000000000 [Eh]
	 Same-Spin Energy          =      -0.2718690267996395 [Eh]
	 Opposite-Spin Energy      =      -0.9444035560789287 [Eh]
	 Correlation Energy        =      -1.2162725828785681 [Eh]
	 Total Energy              =    -271.3146060266131485 [Eh]

	 ================> DF-SCS-MP2 Energies <==================
	-----------------------------------------------------------
	 SCS Same-Spin Scale       =       0.3333333333333333 [-]
	 SCS Opposite-Spin Scale   =       1.2000000000000000 [-]
	 SCS Same-Spin Energy      =      -0.0906230089332132 [Eh]
	 SCS Opposite-Spin Energy  =      -1.1332842672947143 [Eh]
	 SCS Correlation Energy    =      -1.2239072762279275 [Eh]
	 SCS Total Energy          =    -271.3222407199625081 [Eh]
	-----------------------------------------------------------

  Dipole Moment: [D]
     X:    -1.0621      Y:    -2.1732      Z:    -0.0001     Total:     2.4189

*** Psi4 exiting successfully. Buy a developer a beer!
