                               Psi4 1.3.2 release

  ==> Input File <==

--------------------------------------------------------------------------
#psi4
#
memory 32 gb

molecule  {
0 1
  O        0.0214491     1.2844158    -0.0000313
  C       -1.2933030    -0.7398820    -0.0001760
  C        1.2933030    -0.7398820     0.0001460
  C        0.0000000     0.0555960    -0.0000230
  C       -2.5345840     0.1407430     0.0001160
  C        2.5345840     0.1407430    -0.0000420
  H       -1.2807360    -1.4061910     0.8728000
  H       -1.2807880    -1.4056370    -0.8735800
  H        1.2807720    -1.4061280    -0.8728800
  H        1.2807530    -1.4057000     0.8735000
  H       -3.4404540    -0.4711510     0.0003790
  H       -2.5493440     0.7863420     0.8803370
  H       -2.5498290     0.7862720    -0.8801480
  H        2.5497870     0.7862280     0.8802560
  H        2.5493860     0.7863860    -0.8802290
  H        3.4404540    -0.4711510    -0.0002890
units angstrom
no_reorient  #important for SAPT in psi4, default
symmetry c1  #important for SAPT in psi4, default
}

set PROPERTIES_ORIGIN ["COM"]
properties('MP2/aug-cc-pvtz', properties = ['dipole'])
--------------------------------------------------------------------------

    Molecular point group: c1
  Charge       = 0
  Multiplicity = 1
  Basis Set: AUG-CC-PVTZ
    Blend: AUG-CC-PVTZ
  Basis Set: (AUG-CC-PVTZ AUX)
    Blend: AUG-CC-PVTZ-JKFIT

    Orbital Energies [Eh]
    ---------------------

    Doubly Occupied:

       1A    -20.542928     2A    -11.328194     3A    -11.240874
       4A    -11.238823     5A    -11.216931     6A    -11.215494
       7A     -1.374156     8A     -1.069647     9A     -1.036652
      10A     -0.915360    11A     -0.843251    12A     -0.726346
      13A     -0.664227    14A     -0.645862    15A     -0.612323
      16A     -0.606614    17A     -0.560810    18A     -0.520697
      19A     -0.520155    20A     -0.509326    21A     -0.505481
      22A     -0.490637    23A     -0.479551    24A     -0.408576

  @DF-RHF Final Energy:  -270.13050900337453

   => Energetics <=

    Nuclear Repulsion Energy =            238.9629538707832239
    One-Electron Energy =                -839.6410938034512128
    Two-Electron Energy =                 330.5476309292935184
    Total Energy =                       -270.1305090033745273
  Basis Set: (AUG-CC-PVTZ AUX)
    Blend: AUG-CC-PVTZ-RI
    Molecular point group: c1

    Geometry (in Angstrom), charge = 0, multiplicity = 1:

       Center              X                  Y                   Z               Mass
    ------------   -----------------  -----------------  -----------------  -----------------
         O            0.017463217394     1.245095301714    -0.000030120790    15.994914619570
         C           -1.297288882606    -0.779202498286    -0.000174820790    12.000000000000
         C            1.289317117394    -0.779202498286     0.000147179210    12.000000000000
         C           -0.003985882606     0.016275501714    -0.000021820790    12.000000000000
         C           -2.538569882606     0.101422501714     0.000117179210    12.000000000000
         C            2.530598117394     0.101422501714    -0.000040820790    12.000000000000
         H           -1.284721882606    -1.445511498286     0.872801179210     1.007825032230
         H           -1.284773882606    -1.444957498286    -0.873578820790     1.007825032230
         H            1.276786117394    -1.445448498286    -0.872878820790     1.007825032230
         H            1.276767117394    -1.445020498286     0.873501179210     1.007825032230
         H           -3.444439882606    -0.510471498286     0.000380179210     1.007825032230
         H           -2.553329882606     0.747021501714     0.880338179210     1.007825032230
         H           -2.553814882606     0.746951501714    -0.880146820790     1.007825032230
         H            2.545801117394     0.746907501714     0.880257179210     1.007825032230
         H            2.545400117394     0.747065501714    -0.880227820790     1.007825032230
         H            3.436468117394    -0.510471498286    -0.000287820790     1.007825032230

  Basis Set: AUG-CC-PVTZ
    Blend: AUG-CC-PVTZ
  Basis Set: (AUG-CC-PVTZ AUX)
    Blend: AUG-CC-PVTZ-JKFIT
	 Reference Energy          =    -270.1305090033745273 [Eh]
	 Singles Energy            =      -0.0000000000000000 [Eh]
	 Same-Spin Energy          =      -0.2727916804351654 [Eh]
	 Opposite-Spin Energy      =      -0.9465380057963921 [Eh]
	 Correlation Energy        =      -1.2193296862315575 [Eh]
	 Total Energy              =    -271.3498386896060879 [Eh]

	 ================> DF-SCS-MP2 Energies <==================
	-----------------------------------------------------------
	 SCS Same-Spin Scale       =       0.3333333333333333 [-]
	 SCS Opposite-Spin Scale   =       1.2000000000000000 [-]
	 SCS Same-Spin Energy      =      -0.0909305601450551 [Eh]
	 SCS Opposite-Spin Energy  =      -1.1358456069556706 [Eh]
	 SCS Correlation Energy    =      -1.2267761671007258 [Eh]
	 SCS Total Energy          =    -271.3572851704752793 [Eh]
	-----------------------------------------------------------

  Dipole Moment: [D]
     X:    -0.0668      Y:    -2.6897      Z:     0.0000     Total:     2.6905

*** Psi4 exiting successfully. Buy a developer a beer!
