                               Psi4 1.3.2 release

  ==> Input File <==

--------------------------------------------------------------------------
#psi4
#
memory 32 gb

molecule  {
0 1
  O        0.0000000     1.2846030    -0.0000340
  C       -1.2933030    -0.7398820    -0.0001760
  C        1.2933030    -0.7398820     0.0001460
  C       -0.0074282     0.0430729    -0.0221645
  C       -2.5345840     0.1407430     0.0001160
  C        2.5345840     0.1407430    -0.0000420
  H       -1.2807360    -1.4061910     0.8728000
  H       -1.2807880    -1.4056370    -0.8735800
  H        1.2807720    -1.4061280    -0.8728800
  H        1.2807530    -1.4057000     0.8735000
  H       -3.4404540    -0.4711510     0.0003790
  H       -2.5493440     0.7863420     0.8803370
  H       -2.5498290     0.7862720    -0.8801480
  H        2.5497870     0.7862280     0.8802560
  H        2.5493860     0.7863860    -0.8802290
  H        3.4404540    -0.4711510    -0.0002890
units angstrom
no_reorient  #important for SAPT in psi4, default
symmetry c1  #important for SAPT in psi4, default
}

set PROPERTIES_ORIGIN ["COM"]
properties('MP2/aug-cc-pvtz', properties = ['dipole'])
--------------------------------------------------------------------------

    Molecular point group: c1
  Charge       = 0
  Multiplicity = 1
  Basis Set: AUG-CC-PVTZ
    Blend: AUG-CC-PVTZ
  Basis Set: (AUG-CC-PVTZ AUX)
    Blend: AUG-CC-PVTZ-JKFIT

    Orbital Energies [Eh]
    ---------------------

    Doubly Occupied:

       1A    -20.541875     2A    -11.329308     3A    -11.240694
       4A    -11.240410     5A    -11.216853     6A    -11.216298
       7A     -1.365713     8A     -1.071277     9A     -1.037567
      10A     -0.917009    11A     -0.844617    12A     -0.726050
      13A     -0.663201    14A     -0.646417    15A     -0.609661
      16A     -0.607162    17A     -0.561345    18A     -0.520226
      19A     -0.519537    20A     -0.508412    21A     -0.505816
      22A     -0.491133    23A     -0.475187    24A     -0.410769

  @DF-RHF Final Energy:  -270.12862651444073

   => Energetics <=

    Nuclear Repulsion Energy =            238.8698311455576686
    One-Electron Energy =                -839.4638444391438270
    Two-Electron Energy =                 330.4653867791454331
    Total Energy =                       -270.1286265144407253
  Basis Set: (AUG-CC-PVTZ AUX)
    Blend: AUG-CC-PVTZ-RI
    Molecular point group: c1

    Geometry (in Angstrom), charge = 0, multiplicity = 1:

       Center              X                  Y                   Z               Mass
    ------------   -----------------  -----------------  -----------------  -----------------
         O            0.001035600262     1.246993638421     0.003054566394    15.994914619570
         C           -1.292267399738    -0.777491361579     0.002912566394    12.000000000000
         C            1.294338600262    -0.777491361579     0.003234566394    12.000000000000
         C           -0.006392599738     0.005463538421    -0.019075933606    12.000000000000
         C           -2.533548399738     0.103133638421     0.003204566394    12.000000000000
         C            2.535619600262     0.103133638421     0.003046566394    12.000000000000
         H           -1.279700399738    -1.443800361579     0.875888566394     1.007825032230
         H           -1.279752399738    -1.443246361579    -0.870491433606     1.007825032230
         H            1.281807600262    -1.443737361579    -0.869791433606     1.007825032230
         H            1.281788600262    -1.443309361579     0.876588566394     1.007825032230
         H           -3.439418399738    -0.508760361579     0.003467566394     1.007825032230
         H           -2.548308399738     0.748732638421     0.883425566394     1.007825032230
         H           -2.548793399738     0.748662638421    -0.877059433606     1.007825032230
         H            2.550822600262     0.748618638421     0.883344566394     1.007825032230
         H            2.550421600262     0.748776638421    -0.877140433606     1.007825032230
         H            3.441489600262    -0.508760361579     0.002799566394     1.007825032230

  Basis Set: AUG-CC-PVTZ
    Blend: AUG-CC-PVTZ
  Basis Set: (AUG-CC-PVTZ AUX)
    Blend: AUG-CC-PVTZ-JKFIT
	 Reference Energy          =    -270.1286265144407253 [Eh]
	 Singles Energy            =      -0.0000000000000000 [Eh]
	 Same-Spin Energy          =      -0.2731815117596696 [Eh]
	 Opposite-Spin Energy      =      -0.9473273486058903 [Eh]
	 Correlation Energy        =      -1.2205088603655598 [Eh]
	 Total Energy              =    -271.3491353748062807 [Eh]

	 ================> DF-SCS-MP2 Energies <==================
	-----------------------------------------------------------
	 SCS Same-Spin Scale       =       0.3333333333333333 [-]
	 SCS Opposite-Spin Scale   =       1.2000000000000000 [-]
	 SCS Same-Spin Energy      =      -0.0910605039198899 [Eh]
	 SCS Opposite-Spin Energy  =      -1.1367928183270684 [Eh]
	 SCS Correlation Energy    =      -1.2278533222469583 [Eh]
	 SCS Total Energy          =    -271.3564798366876971 [Eh]
	-----------------------------------------------------------

  Dipole Moment: [D]
     X:    -0.0375      Y:    -2.7387      Z:    -0.0062     Total:     2.7389

*** Psi4 exiting successfully. Buy a developer a beer!
