                               Psi4 1.3.2 release

  ==> Input File <==

--------------------------------------------------------------------------
#psi4
#
memory 32 gb

molecule  {
0 1
  O        0.0000000     1.2846030    -0.0000340
  C       -1.2933030    -0.7398820    -0.0001760
  C        1.2933030    -0.7398820     0.0001460
  C        0.0000000    -0.0444040    -0.0000221
  C       -2.5345840     0.1407430     0.0001160
  C        2.5345840     0.1407430    -0.0000420
  H       -1.2807360    -1.4061910     0.8728000
  H       -1.2807880    -1.4056370    -0.8735800
  H        1.2807720    -1.4061280    -0.8728800
  H        1.2807530    -1.4057000     0.8735000
  H       -3.4404540    -0.4711510     0.0003790
  H       -2.5493440     0.7863420     0.8803370
  H       -2.5498290     0.7862720    -0.8801480
  H        2.5497870     0.7862280     0.8802560
  H        2.5493860     0.7863860    -0.8802290
  H        3.4404540    -0.4711510    -0.0002890
units angstrom
no_reorient  #important for SAPT in psi4, default
symmetry c1  #important for SAPT in psi4, default
}

set PROPERTIES_ORIGIN ["COM"]
properties('MP2/aug-cc-pvtz', properties = ['dipole'])
--------------------------------------------------------------------------

    Molecular point group: c1
  Charge       = 0
  Multiplicity = 1
  Basis Set: AUG-CC-PVTZ
    Blend: AUG-CC-PVTZ
  Basis Set: (AUG-CC-PVTZ AUX)
    Blend: AUG-CC-PVTZ-JKFIT

    Orbital Energies [Eh]
    ---------------------

    Doubly Occupied:

       1A    -20.533428     2A    -11.336511     3A    -11.244987
       4A    -11.244965     5A    -11.219108     6A    -11.219107
       7A     -1.313654     8A     -1.082195     9A     -1.044581
      10A     -0.927881    11A     -0.855020    12A     -0.724315
      13A     -0.659198    14A     -0.651643    15A     -0.611125
      16A     -0.595380    17A     -0.562376    18A     -0.519656
      19A     -0.519087    20A     -0.510703    21A     -0.497977
      22A     -0.494585    23A     -0.443992    24A     -0.419246

  @DF-RHF Final Energy:  -270.10541200447784

   => Energetics <=

    Nuclear Repulsion Energy =            238.3830735430547634
    One-Electron Energy =                -838.5155298850347663
    Two-Electron Energy =                 330.0270443375022182
    Total Energy =                       -270.1054120044778415
  Basis Set: (AUG-CC-PVTZ AUX)
    Blend: AUG-CC-PVTZ-RI
    Molecular point group: c1

    Geometry (in Angstrom), charge = 0, multiplicity = 1:

       Center              X                  Y                   Z               Mass
    ------------   -----------------  -----------------  -----------------  -----------------
         O           -0.000000011709     1.259189341933    -0.000032444525    15.994914619570
         C           -1.293303011709    -0.765295658067    -0.000174444525    12.000000000000
         C            1.293302988291    -0.765295658067     0.000147555475    12.000000000000
         C           -0.000000011709    -0.069817658067    -0.000020544525    12.000000000000
         C           -2.534584011709     0.115329341933     0.000117555475    12.000000000000
         C            2.534583988291     0.115329341933    -0.000040444525    12.000000000000
         H           -1.280736011709    -1.431604658067     0.872801555475     1.007825032230
         H           -1.280788011709    -1.431050658067    -0.873578444525     1.007825032230
         H            1.280771988291    -1.431541658067    -0.872878444525     1.007825032230
         H            1.280752988291    -1.431113658067     0.873501555475     1.007825032230
         H           -3.440454011709    -0.496564658067     0.000380555475     1.007825032230
         H           -2.549344011709     0.760928341933     0.880338555475     1.007825032230
         H           -2.549829011709     0.760858341933    -0.880146444525     1.007825032230
         H            2.549786988291     0.760814341933     0.880257555475     1.007825032230
         H            2.549385988291     0.760972341933    -0.880227444525     1.007825032230
         H            3.440453988291    -0.496564658067    -0.000287444525     1.007825032230

  Basis Set: AUG-CC-PVTZ
    Blend: AUG-CC-PVTZ
  Basis Set: (AUG-CC-PVTZ AUX)
    Blend: AUG-CC-PVTZ-JKFIT
	 Reference Energy          =    -270.1054120044778415 [Eh]
	 Singles Energy            =      -0.0000000000000000 [Eh]
	 Same-Spin Energy          =      -0.2761842105075816 [Eh]
	 Opposite-Spin Energy      =      -0.9531358271611327 [Eh]
	 Correlation Energy        =      -1.2293200376687143 [Eh]
	 Total Energy              =    -271.3347320421465838 [Eh]

	 ================> DF-SCS-MP2 Energies <==================
	-----------------------------------------------------------
	 SCS Same-Spin Scale       =       0.3333333333333333 [-]
	 SCS Opposite-Spin Scale   =       1.2000000000000000 [-]
	 SCS Same-Spin Energy      =      -0.0920614035025272 [Eh]
	 SCS Opposite-Spin Energy  =      -1.1437629925933592 [Eh]
	 SCS Correlation Energy    =      -1.2358243960958863 [Eh]
	 SCS Total Energy          =    -271.3412364005737345 [Eh]
	-----------------------------------------------------------

  Dipole Moment: [D]
     X:    -0.0000      Y:    -3.0300      Z:     0.0000     Total:     3.0300

*** Psi4 exiting successfully. Buy a developer a beer!
