                               Psi4 1.3.2 release

  ==> Input File <==

--------------------------------------------------------------------------
#psi4
#
memory 32 gb

molecule  {
0 1
  O        0.0000000     1.2846030    -0.0000340
  C       -1.2933030    -0.7398820    -0.0001760
  C        1.2933030    -0.7398820     0.0001460
  C       -0.0273272     0.0040884    -0.0885214
  C       -2.5345840     0.1407430     0.0001160
  C        2.5345840     0.1407430    -0.0000420
  H       -1.2807360    -1.4061910     0.8728000
  H       -1.2807880    -1.4056370    -0.8735800
  H        1.2807720    -1.4061280    -0.8728800
  H        1.2807530    -1.4057000     0.8735000
  H       -3.4404540    -0.4711510     0.0003790
  H       -2.5493440     0.7863420     0.8803370
  H       -2.5498290     0.7862720    -0.8801480
  H        2.5497870     0.7862280     0.8802560
  H        2.5493860     0.7863860    -0.8802290
  H        3.4404540    -0.4711510    -0.0002890
units angstrom
no_reorient  #important for SAPT in psi4, default
symmetry c1  #important for SAPT in psi4, default
}

set PROPERTIES_ORIGIN ["COM"]
properties('MP2/aug-cc-pvtz', properties = ['dipole'])
--------------------------------------------------------------------------

    Molecular point group: c1
  Charge       = 0
  Multiplicity = 1
  Basis Set: AUG-CC-PVTZ
    Blend: AUG-CC-PVTZ
  Basis Set: (AUG-CC-PVTZ AUX)
    Blend: AUG-CC-PVTZ-JKFIT

    Orbital Energies [Eh]
    ---------------------

    Doubly Occupied:

       1A    -20.539133     2A    -11.333456     3A    -11.243034
       4A    -11.242614     5A    -11.218621     6A    -11.216690
       7A     -1.339905     8A     -1.076654     9A     -1.039730
      10A     -0.921943    11A     -0.848610    12A     -0.725701
      13A     -0.660369    14A     -0.648397    15A     -0.608507
      16A     -0.601503    17A     -0.562440    18A     -0.519532
      19A     -0.518914    20A     -0.507712    21A     -0.503885
      22A     -0.492244    23A     -0.460064    24A     -0.415218

  @DF-RHF Final Energy:  -270.11547265598949

   => Energetics <=

    Nuclear Repulsion Energy =            238.5361077758701072
    One-Electron Energy =                -838.8134075993350507
    Two-Electron Energy =                 330.1618271674755078
    Total Energy =                       -270.1154726559894925
  Basis Set: (AUG-CC-PVTZ AUX)
    Blend: AUG-CC-PVTZ-RI
    Molecular point group: c1

    Geometry (in Angstrom), charge = 0, multiplicity = 1:

       Center              X                  Y                   Z               Mass
    ------------   -----------------  -----------------  -----------------  -----------------
         O            0.003809844711     1.252428712179     0.012305798186    15.994914619570
         C           -1.289493155289    -0.772056287821     0.012163798186    12.000000000000
         C            1.297112844711    -0.772056287821     0.012485798186    12.000000000000
         C           -0.023517355289    -0.028085887821    -0.076181601814    12.000000000000
         C           -2.530774155289     0.108568712179     0.012455798186    12.000000000000
         C            2.538393844711     0.108568712179     0.012297798186    12.000000000000
         H           -1.276926155289    -1.438365287821     0.885139798186     1.007825032230
         H           -1.276978155289    -1.437811287821    -0.861240201814     1.007825032230
         H            1.284581844711    -1.438302287821    -0.860540201814     1.007825032230
         H            1.284562844711    -1.437874287821     0.885839798186     1.007825032230
         H           -3.436644155289    -0.503325287821     0.012718798186     1.007825032230
         H           -2.545534155289     0.754167712179     0.892676798186     1.007825032230
         H           -2.546019155289     0.754097712179    -0.867808201814     1.007825032230
         H            2.553596844711     0.754053712179     0.892595798186     1.007825032230
         H            2.553195844711     0.754211712179    -0.867889201814     1.007825032230
         H            3.444263844711    -0.503325287821     0.012050798186     1.007825032230

  Basis Set: AUG-CC-PVTZ
    Blend: AUG-CC-PVTZ
  Basis Set: (AUG-CC-PVTZ AUX)
    Blend: AUG-CC-PVTZ-JKFIT
	 Reference Energy          =    -270.1154726559894925 [Eh]
	 Singles Energy            =      -0.0000000000000000 [Eh]
	 Same-Spin Energy          =      -0.2746937674262451 [Eh]
	 Opposite-Spin Energy      =      -0.9505475797043400 [Eh]
	 Correlation Energy        =      -1.2252413471305852 [Eh]
	 Total Energy              =    -271.3407140031200697 [Eh]

	 ================> DF-SCS-MP2 Energies <==================
	-----------------------------------------------------------
	 SCS Same-Spin Scale       =       0.3333333333333333 [-]
	 SCS Opposite-Spin Scale   =       1.2000000000000000 [-]
	 SCS Same-Spin Energy      =      -0.0915645891420817 [Eh]
	 SCS Opposite-Spin Energy  =      -1.1406570956452080 [Eh]
	 SCS Correlation Energy    =      -1.2322216847872898 [Eh]
	 SCS Total Energy          =    -271.3476943407767976 [Eh]
	-----------------------------------------------------------

  Dipole Moment: [D]
     X:    -0.1301      Y:    -2.8647      Z:    -0.0172     Total:     2.8677

*** Psi4 exiting successfully. Buy a developer a beer!
