                               Psi4 1.4a3.dev225

  ==> Input File <==

--------------------------------------------------------------------------
#psi4
#
memory 32 gb

molecule  {
0 1
  O        0.0000000     1.2846080    -0.0000020
  C       -1.2933020    -0.7398800     0.0000010
  C        1.2933020    -0.7398800    -0.0000030
  C        0.0170355     0.0451219    -0.0000010
  C       -2.5345880     0.1407340     0.0000020
  C        2.5345890     0.1407340     0.0000030
  H       -1.2807520    -1.4059020     0.8731990
  H       -1.2807540    -1.4059020    -0.8731970
  H        1.2807540    -1.4058970    -0.8732050
  H        1.2807510    -1.4059060     0.8731910
  H       -3.4404600    -0.4711580     0.0000060
  H       -2.5496050     0.7863060     0.8802420
  H       -2.5496100     0.7863010    -0.8802430
  H        2.5496080     0.7862970     0.8802510
  H        2.5496070     0.7863100    -0.8802340
  H        3.4404600    -0.4711580    -0.0000010
units angstrom
no_reorient  #important for SAPT in psi4, default
symmetry c1  #important for SAPT in psi4, default
}

set PROPERTIES_ORIGIN ["COM"]
properties('MP2/aug-cc-pvtz', properties = ['dipole'])
--------------------------------------------------------------------------

    Molecular point group: c1
  Charge       = 0
  Multiplicity = 1
  Basis Set: AUG-CC-PVTZ
    Blend: AUG-CC-PVTZ
  Basis Set: (AUG-CC-PVTZ AUX)
    Blend: AUG-CC-PVTZ-JKFIT

    Orbital Energies [Eh]
    ---------------------

    Doubly Occupied:

       1A    -20.542010     2A    -11.329098     3A    -11.240749
       4A    -11.240078     5A    -11.217162     6A    -11.215885
       7A     -1.367091     8A     -1.071354     9A     -1.037229
      10A     -0.916822    11A     -0.844344    12A     -0.726146
      13A     -0.663356    14A     -0.646419    15A     -0.610149
      16A     -0.607033    17A     -0.561263    18A     -0.520385
      19A     -0.519666    20A     -0.508559    21A     -0.505712
      22A     -0.491026    23A     -0.475957    24A     -0.410311

  @DF-RHF Final Energy:  -270.12894898932382

   => Energetics <=

    Nuclear Repulsion Energy =            238.8904496387268637
    One-Electron Energy =                -839.5031888153862383
    Two-Electron Energy =                 330.4837901873355577
    Total Energy =                       -270.1289489893238169
  Basis Set: (AUG-CC-PVTZ AUX)
    Blend: AUG-CC-PVTZ-RI
    Molecular point group: c1

    Geometry (in Angstrom), charge = 0, multiplicity = 1:

       Center              X                  Y                   Z               Mass
    ------------   -----------------  -----------------  -----------------  -----------------
         O           -0.002375153653     1.246713751268    -0.000002012554    15.994914619570
         C           -1.295677153653    -0.777774248732     0.000000987446    12.000000000000
         C            1.290926846347    -0.777774248732    -0.000003012554    12.000000000000
         C            0.014660346347     0.007227651268    -0.000001012554    12.000000000000
         C           -2.536963153653     0.102839751268     0.000001987446    12.000000000000
         C            2.532213846347     0.102839751268     0.000002987446    12.000000000000
         H           -1.283127153653    -1.443796248732     0.873198987446     1.007825032230
         H           -1.283129153653    -1.443796248732    -0.873197012554     1.007825032230
         H            1.278378846347    -1.443791248732    -0.873205012554     1.007825032230
         H            1.278375846347    -1.443800248732     0.873190987446     1.007825032230
         H           -3.442835153653    -0.509052248732     0.000005987446     1.007825032230
         H           -2.551980153653     0.748411751268     0.880241987446     1.007825032230
         H           -2.551985153653     0.748406751268    -0.880243012554     1.007825032230
         H            2.547232846347     0.748402751268     0.880250987446     1.007825032230
         H            2.547231846347     0.748415751268    -0.880234012554     1.007825032230
         H            3.438084846347    -0.509052248732    -0.000001012554     1.007825032230

  Basis Set: AUG-CC-PVTZ
    Blend: AUG-CC-PVTZ
  Basis Set: (AUG-CC-PVTZ AUX)
    Blend: AUG-CC-PVTZ-JKFIT
	 Reference Energy          =    -270.1289489893238169 [Eh]
	 Singles Energy            =      -0.0000000000000000 [Eh]
	 Same-Spin Energy          =      -0.2731192971491802 [Eh]
	 Opposite-Spin Energy      =      -0.9471863557930575 [Eh]
	 Correlation Energy        =      -1.2203056529422378 [Eh]
	 Total Energy              =    -271.3492546422660325 [Eh]

	 ================> DF-SCS-MP2 Energies <==================
	-----------------------------------------------------------
	 SCS Same-Spin Scale       =       0.3333333333333333 [-]
	 SCS Opposite-Spin Scale   =       1.2000000000000000 [-]
	 SCS Same-Spin Energy      =      -0.0910397657163934 [Eh]
	 SCS Opposite-Spin Energy  =      -1.1366236269516690 [Eh]
	 SCS Correlation Energy    =      -1.2276633926680622 [Eh]
	 SCS Total Energy          =    -271.3566123819918516 [Eh]
	-----------------------------------------------------------

  Dipole Moment: [D]
     X:     0.0862      Y:    -2.7317      Z:     0.0000     Total:     2.7330

*** Psi4 exiting successfully. Buy a developer a beer!
