                               Psi4 1.4a3.dev225

  ==> Input File <==

--------------------------------------------------------------------------
#psi4
#
memory 32 gb

molecule  {
0 1
  O        0.0000000     1.2846080    -0.0000020
  C       -1.2933020    -0.7398800     0.0000010
  C        1.2933020    -0.7398800    -0.0000030
  C       -0.0425888     0.0817954    -0.0000009
  C       -2.5345880     0.1407340     0.0000020
  C        2.5345890     0.1407340     0.0000030
  H       -1.2807520    -1.4059020     0.8731990
  H       -1.2807540    -1.4059020    -0.8731970
  H        1.2807540    -1.4058970    -0.8732050
  H        1.2807510    -1.4059060     0.8731910
  H       -3.4404600    -0.4711580     0.0000060
  H       -2.5496050     0.7863060     0.8802420
  H       -2.5496100     0.7863010    -0.8802430
  H        2.5496080     0.7862970     0.8802510
  H        2.5496070     0.7863100    -0.8802340
  H        3.4404600    -0.4711580    -0.0000010
units angstrom
no_reorient  #important for SAPT in psi4, default
symmetry c1  #important for SAPT in psi4, default
}

set PROPERTIES_ORIGIN ["COM"]
properties('MP2/aug-cc-pvtz', properties = ['dipole'])
--------------------------------------------------------------------------

    Molecular point group: c1
  Charge       = 0
  Multiplicity = 1
  Basis Set: AUG-CC-PVTZ
    Blend: AUG-CC-PVTZ
  Basis Set: (AUG-CC-PVTZ AUX)
    Blend: AUG-CC-PVTZ-JKFIT

    Orbital Energies [Eh]
    ---------------------

    Doubly Occupied:

       1A    -20.545344     2A    -11.326241     3A    -11.239630
       4A    -11.236950     5A    -11.217176     6A    -11.213793
       7A     -1.391814     8A     -1.068520     9A     -1.033275
      10A     -0.912331    11A     -0.839951    12A     -0.727665
      13A     -0.666583    14A     -0.645496    15A     -0.617900
      16A     -0.605029    17A     -0.559414    18A     -0.522749
      19A     -0.522412    20A     -0.510951    21A     -0.504825
      22A     -0.489880    23A     -0.486961    24A     -0.402043

  @DF-RHF Final Energy:  -270.13051406757955

   => Energetics <=

    Nuclear Repulsion Energy =            239.1483804903612338
    One-Electron Energy =                -839.9839229074658533
    Two-Electron Energy =                 330.7050283495250937
    Total Energy =                       -270.1305140675795542
  Basis Set: (AUG-CC-PVTZ AUX)
    Blend: AUG-CC-PVTZ-RI
    Molecular point group: c1

    Geometry (in Angstrom), charge = 0, multiplicity = 1:

       Center              X                  Y                   Z               Mass
    ------------   -----------------  -----------------  -----------------  -----------------
         O            0.005937444129     1.241600868521    -0.000002026496    15.994914619570
         C           -1.287364555871    -0.782887131479     0.000000973504    12.000000000000
         C            1.299239444129    -0.782887131479    -0.000003026496    12.000000000000
         C           -0.036651355871     0.038788268521    -0.000000926496    12.000000000000
         C           -2.528650555871     0.097726868521     0.000001973504    12.000000000000
         C            2.540526444129     0.097726868521     0.000002973504    12.000000000000
         H           -1.274814555871    -1.448909131479     0.873198973504     1.007825032230
         H           -1.274816555871    -1.448909131479    -0.873197026496     1.007825032230
         H            1.286691444129    -1.448904131479    -0.873205026496     1.007825032230
         H            1.286688444129    -1.448913131479     0.873190973504     1.007825032230
         H           -3.434522555871    -0.514165131479     0.000005973504     1.007825032230
         H           -2.543667555871     0.743298868521     0.880241973504     1.007825032230
         H           -2.543672555871     0.743293868521    -0.880243026496     1.007825032230
         H            2.555545444129     0.743289868521     0.880250973504     1.007825032230
         H            2.555544444129     0.743302868521    -0.880234026496     1.007825032230
         H            3.446397444129    -0.514165131479    -0.000001026496     1.007825032230

  Basis Set: AUG-CC-PVTZ
    Blend: AUG-CC-PVTZ
  Basis Set: (AUG-CC-PVTZ AUX)
    Blend: AUG-CC-PVTZ-JKFIT
	 Reference Energy          =    -270.1305140675795542 [Eh]
	 Singles Energy            =      -0.0000000000000000 [Eh]
	 Same-Spin Energy          =      -0.2721555354959526 [Eh]
	 Opposite-Spin Energy      =      -0.9452541235971146 [Eh]
	 Correlation Energy        =      -1.2174096590930672 [Eh]
	 Total Energy              =    -271.3479237266726045 [Eh]

	 ================> DF-SCS-MP2 Energies <==================
	-----------------------------------------------------------
	 SCS Same-Spin Scale       =       0.3333333333333333 [-]
	 SCS Opposite-Spin Scale   =       1.2000000000000000 [-]
	 SCS Same-Spin Energy      =      -0.0907185118319842 [Eh]
	 SCS Opposite-Spin Energy  =      -1.1343049483165375 [Eh]
	 SCS Correlation Energy    =      -1.2250234601485217 [Eh]
	 SCS Total Energy          =    -271.3555375277280746 [Eh]
	-----------------------------------------------------------

  Dipole Moment: [D]
     X:    -0.2278      Y:    -2.5805      Z:     0.0000     Total:     2.5905

*** Psi4 exiting successfully. Buy a developer a beer!
