                               Psi4 1.3.2 release

  ==> Input File <==

--------------------------------------------------------------------------
#psi4
#
memory 32 gb

molecule  {
0 1
  O        0.0000000     1.2846030    -0.0000340
  C       -1.2933030    -0.7398820    -0.0001760
  C        1.2933030    -0.7398820     0.0001460
  C        0.0000000     0.2555960    -0.0000248
  C       -2.5345840     0.1407430     0.0001160
  C        2.5345840     0.1407430    -0.0000420
  H       -1.2807360    -1.4061910     0.8728000
  H       -1.2807880    -1.4056370    -0.8735800
  H        1.2807720    -1.4061280    -0.8728800
  H        1.2807530    -1.4057000     0.8735000
  H       -3.4404540    -0.4711510     0.0003790
  H       -2.5493440     0.7863420     0.8803370
  H       -2.5498290     0.7862720    -0.8801480
  H        2.5497870     0.7862280     0.8802560
  H        2.5493860     0.7863860    -0.8802290
  H        3.4404540    -0.4711510    -0.0002890
units angstrom
no_reorient  #important for SAPT in psi4, default
symmetry c1  #important for SAPT in psi4, default
}

set PROPERTIES_ORIGIN ["COM"]
properties('MP2/aug-cc-pvtz', properties = ['dipole'])
--------------------------------------------------------------------------

    Molecular point group: c1
  Charge       = 0
  Multiplicity = 1
  Basis Set: AUG-CC-PVTZ
    Blend: AUG-CC-PVTZ
  Basis Set: (AUG-CC-PVTZ AUX)
    Blend: AUG-CC-PVTZ-JKFIT

    Orbital Energies [Eh]
    ---------------------

    Doubly Occupied:

       1A    -20.563014     2A    -11.313380     3A    -11.225498
       4A    -11.225473     5A    -11.210463     6A    -11.210462
       7A     -1.535264     8A     -1.044467     9A     -1.022784
      10A     -0.886350    11A     -0.824051    12A     -0.743423
      13A     -0.704733    14A     -0.660885    15A     -0.648170
      16A     -0.597064    17A     -0.580170    18A     -0.546115
      19A     -0.537668    20A     -0.515057    21A     -0.500490
      22A     -0.498577    23A     -0.481509    24A     -0.350515

  @DF-RHF Final Energy:  -270.05864541578177

   => Energetics <=

    Nuclear Repulsion Energy =            240.9060652408397232
    One-Electron Energy =                -843.0782571445899976
    Two-Electron Energy =                 332.1135464879684491
    Total Energy =                       -270.0586454157817684
  Basis Set: (AUG-CC-PVTZ AUX)
    Blend: AUG-CC-PVTZ-RI
    Molecular point group: c1

    Geometry (in Angstrom), charge = 0, multiplicity = 1:

       Center              X                  Y                   Z               Mass
    ------------   -----------------  -----------------  -----------------  -----------------
         O           -0.000000011709     1.217364459551    -0.000032068101    15.994914619570
         C           -1.293303011709    -0.807120540449    -0.000174068101    12.000000000000
         C            1.293302988291    -0.807120540449     0.000147931899    12.000000000000
         C           -0.000000011709     0.188357459551    -0.000022868101    12.000000000000
         C           -2.534584011709     0.073504459551     0.000117931899    12.000000000000
         C            2.534583988291     0.073504459551    -0.000040068101    12.000000000000
         H           -1.280736011709    -1.473429540449     0.872801931899     1.007825032230
         H           -1.280788011709    -1.472875540449    -0.873578068101     1.007825032230
         H            1.280771988291    -1.473366540449    -0.872878068101     1.007825032230
         H            1.280752988291    -1.472938540449     0.873501931899     1.007825032230
         H           -3.440454011709    -0.538389540449     0.000380931899     1.007825032230
         H           -2.549344011709     0.719103459551     0.880338931899     1.007825032230
         H           -2.549829011709     0.719033459551    -0.880146068101     1.007825032230
         H            2.549786988291     0.718989459551     0.880257931899     1.007825032230
         H            2.549385988291     0.719147459551    -0.880227068101     1.007825032230
         H            3.440453988291    -0.538389540449    -0.000287068101     1.007825032230

  Basis Set: AUG-CC-PVTZ
    Blend: AUG-CC-PVTZ
  Basis Set: (AUG-CC-PVTZ AUX)
    Blend: AUG-CC-PVTZ-JKFIT
	 Reference Energy          =    -270.0586454157817684 [Eh]
	 Singles Energy            =      -0.0000000000000000 [Eh]
	 Same-Spin Energy          =      -0.2686994903860992 [Eh]
	 Opposite-Spin Energy      =      -0.9379630072364530 [Eh]
	 Correlation Energy        =      -1.2066624976225522 [Eh]
	 Total Energy              =    -271.2653079134043423 [Eh]

	 ================> DF-SCS-MP2 Energies <==================
	-----------------------------------------------------------
	 SCS Same-Spin Scale       =       0.3333333333333333 [-]
	 SCS Opposite-Spin Scale   =       1.2000000000000000 [-]
	 SCS Same-Spin Energy      =      -0.0895664967953664 [Eh]
	 SCS Opposite-Spin Energy  =      -1.1255556086837435 [Eh]
	 SCS Correlation Energy    =      -1.2151221054791099 [Eh]
	 SCS Total Energy          =    -271.2737675212608792 [Eh]
	-----------------------------------------------------------

  Dipole Moment: [D]
     X:    -0.0000      Y:    -1.6130      Z:     0.0000     Total:     1.6130

*** Psi4 exiting successfully. Buy a developer a beer!
