                               Psi4 1.3.2 release

  ==> Input File <==

--------------------------------------------------------------------------
#psi4
#
memory 32 gb

molecule  {
0 1
  O        0.0000000     1.2846030    -0.0000340
  C       -1.2933030    -0.7398820    -0.0001760
  C        1.2933030    -0.7398820     0.0001460
  C        0.0851776     0.0032054    -0.0000119
  C       -2.5345840     0.1407430     0.0001160
  C        2.5345840     0.1407430    -0.0000420
  H       -1.2807360    -1.4061910     0.8728000
  H       -1.2807880    -1.4056370    -0.8735800
  H        1.2807720    -1.4061280    -0.8728800
  H        1.2807530    -1.4057000     0.8735000
  H       -3.4404540    -0.4711510     0.0003790
  H       -2.5493440     0.7863420     0.8803370
  H       -2.5498290     0.7862720    -0.8801480
  H        2.5497870     0.7862280     0.8802560
  H        2.5493860     0.7863860    -0.8802290
  H        3.4404540    -0.4711510    -0.0002890
units angstrom
no_reorient  #important for SAPT in psi4, default
symmetry c1  #important for SAPT in psi4, default
}

set PROPERTIES_ORIGIN ["COM"]
properties('MP2/aug-cc-pvtz', properties = ['dipole'])
--------------------------------------------------------------------------

    Molecular point group: c1
  Charge       = 0
  Multiplicity = 1
  Basis Set: AUG-CC-PVTZ
    Blend: AUG-CC-PVTZ
  Basis Set: (AUG-CC-PVTZ AUX)
    Blend: AUG-CC-PVTZ-JKFIT

    Orbital Energies [Eh]
    ---------------------

    Doubly Occupied:

       1A    -20.538091     2A    -11.332912     3A    -11.243087
       4A    -11.241624     5A    -11.220901     6A    -11.214738
       7A     -1.339127     8A     -1.084896     9A     -1.035631
      10A     -0.924009    11A     -0.847279    12A     -0.727187
      13A     -0.659701    14A     -0.651037    15A     -0.607543
      16A     -0.602711    17A     -0.562395    18A     -0.521689
      19A     -0.520253    20A     -0.508969    21A     -0.500812
      22A     -0.491574    23A     -0.459997    24A     -0.411937

  @DF-RHF Final Energy:  -270.11194991654202

   => Energetics <=

    Nuclear Repulsion Energy =            238.6641578660729124
    One-Electron Energy =                -839.0560121055177660
    Two-Electron Energy =                 330.2799043229028939
    Total Energy =                       -270.1119499165420166
  Basis Set: (AUG-CC-PVTZ AUX)
    Blend: AUG-CC-PVTZ-RI
    Molecular point group: c1

    Geometry (in Angstrom), charge = 0, multiplicity = 1:

       Center              X                  Y                   Z               Mass
    ------------   -----------------  -----------------  -----------------  -----------------
         O           -0.011875155381     1.252551816749    -0.000033866571    15.994914619570
         C           -1.305178155381    -0.771933183251    -0.000175866571    12.000000000000
         C            1.281427844619    -0.771933183251     0.000146133429    12.000000000000
         C            0.073302444619    -0.028845783251    -0.000011766571    12.000000000000
         C           -2.546459155381     0.108691816749     0.000116133429    12.000000000000
         C            2.522708844619     0.108691816749    -0.000041866571    12.000000000000
         H           -1.292611155381    -1.438242183251     0.872800133429     1.007825032230
         H           -1.292663155381    -1.437688183251    -0.873579866571     1.007825032230
         H            1.268896844619    -1.438179183251    -0.872879866571     1.007825032230
         H            1.268877844619    -1.437751183251     0.873500133429     1.007825032230
         H           -3.452329155381    -0.503202183251     0.000379133429     1.007825032230
         H           -2.561219155381     0.754290816749     0.880337133429     1.007825032230
         H           -2.561704155381     0.754220816749    -0.880147866571     1.007825032230
         H            2.537911844619     0.754176816749     0.880256133429     1.007825032230
         H            2.537510844619     0.754334816749    -0.880228866571     1.007825032230
         H            3.428578844619    -0.503202183251    -0.000288866571     1.007825032230

  Basis Set: AUG-CC-PVTZ
    Blend: AUG-CC-PVTZ
  Basis Set: (AUG-CC-PVTZ AUX)
    Blend: AUG-CC-PVTZ-JKFIT
	 Reference Energy          =    -270.1119499165420166 [Eh]
	 Singles Energy            =      -0.0000000000000000 [Eh]
	 Same-Spin Energy          =      -0.2748971582859373 [Eh]
	 Opposite-Spin Energy      =      -0.9506248602778034 [Eh]
	 Correlation Energy        =      -1.2255220185637405 [Eh]
	 Total Energy              =    -271.3374719351057820 [Eh]

	 ================> DF-SCS-MP2 Energies <==================
	-----------------------------------------------------------
	 SCS Same-Spin Scale       =       0.3333333333333333 [-]
	 SCS Opposite-Spin Scale   =       1.2000000000000000 [-]
	 SCS Same-Spin Energy      =      -0.0916323860953124 [Eh]
	 SCS Opposite-Spin Energy  =      -1.1407498323333640 [Eh]
	 SCS Correlation Energy    =      -1.2323822184286763 [Eh]
	 SCS Total Energy          =    -271.3443321349706707 [Eh]
	-----------------------------------------------------------

  Dipole Moment: [D]
     X:     0.4110      Y:    -2.8876      Z:     0.0001     Total:     2.9167

*** Psi4 exiting successfully. Buy a developer a beer!
