                               Psi4 1.3.2 release

  ==> Input File <==

--------------------------------------------------------------------------
#psi4
#
memory 32 gb

molecule  {
0 1
  O        0.0000000     1.2846030    -0.0000340
  C       -1.2933030    -0.7398820    -0.0001760
  C        1.2933030    -0.7398820     0.0001460
  C        0.0527548     0.1255175     0.1325913
  C       -2.5345840     0.1407430     0.0001160
  C        2.5345840     0.1407430    -0.0000420
  H       -1.2807360    -1.4061910     0.8728000
  H       -1.2807880    -1.4056370    -0.8735800
  H        1.2807720    -1.4061280    -0.8728800
  H        1.2807530    -1.4057000     0.8735000
  H       -3.4404540    -0.4711510     0.0003790
  H       -2.5493440     0.7863420     0.8803370
  H       -2.5498290     0.7862720    -0.8801480
  H        2.5497870     0.7862280     0.8802560
  H        2.5493860     0.7863860    -0.8802290
  H        3.4404540    -0.4711510    -0.0002890
units angstrom
no_reorient  #important for SAPT in psi4, default
symmetry c1  #important for SAPT in psi4, default
}

set PROPERTIES_ORIGIN ["COM"]
properties('MP2/aug-cc-pvtz', properties = ['dipole'])
--------------------------------------------------------------------------

    Molecular point group: c1
  Charge       = 0
  Multiplicity = 1
  Basis Set: AUG-CC-PVTZ
    Blend: AUG-CC-PVTZ
  Basis Set: (AUG-CC-PVTZ AUX)
    Blend: AUG-CC-PVTZ-JKFIT

    Orbital Energies [Eh]
    ---------------------

    Doubly Occupied:

       1A    -20.551048     2A    -11.325092     3A    -11.238754
       4A    -11.234025     5A    -11.216370     6A    -11.211968
       7A     -1.419536     8A     -1.063005     9A     -1.028961
      10A     -0.905956    11A     -0.834720    12A     -0.730470
      13A     -0.670716    14A     -0.644940    15A     -0.624288
      16A     -0.602596    17A     -0.556523    18A     -0.530396
      19A     -0.524798    20A     -0.514257    21A     -0.503825
      22A     -0.493891    23A     -0.486895    24A     -0.388888

  @DF-RHF Final Energy:  -270.11825445148099

   => Energetics <=

    Nuclear Repulsion Energy =            239.2345123649603806
    One-Electron Energy =                -840.1016944156449426
    Two-Electron Energy =                 330.7489275992035118
    Total Energy =                       -270.1182544514809933
  Basis Set: (AUG-CC-PVTZ AUX)
    Blend: AUG-CC-PVTZ-RI
    Molecular point group: c1

    Geometry (in Angstrom), charge = 0, multiplicity = 1:

       Center              X                  Y                   Z               Mass
    ------------   -----------------  -----------------  -----------------  -----------------
         O           -0.007354889393     1.235499519427    -0.018520910716    15.994914619570
         C           -1.300657889393    -0.788985480573    -0.018662910716    12.000000000000
         C            1.285948110607    -0.788985480573    -0.018340910716    12.000000000000
         C            0.045399910607     0.076414019427     0.114104389284    12.000000000000
         C           -2.541938889393     0.091639519427    -0.018370910716    12.000000000000
         C            2.527229110607     0.091639519427    -0.018528910716    12.000000000000
         H           -1.288090889393    -1.455294480573     0.854313089284     1.007825032230
         H           -1.288142889393    -1.454740480573    -0.892066910716     1.007825032230
         H            1.273417110607    -1.455231480573    -0.891366910716     1.007825032230
         H            1.273398110607    -1.454803480573     0.855013089284     1.007825032230
         H           -3.447808889393    -0.520254480573    -0.018107910716     1.007825032230
         H           -2.556698889393     0.737238519427     0.861850089284     1.007825032230
         H           -2.557183889393     0.737168519427    -0.898634910716     1.007825032230
         H            2.542432110607     0.737124519427     0.861769089284     1.007825032230
         H            2.542031110607     0.737282519427    -0.898715910716     1.007825032230
         H            3.433099110607    -0.520254480573    -0.018775910716     1.007825032230

  Basis Set: AUG-CC-PVTZ
    Blend: AUG-CC-PVTZ
  Basis Set: (AUG-CC-PVTZ AUX)
    Blend: AUG-CC-PVTZ-JKFIT
	 Reference Energy          =    -270.1182544514809933 [Eh]
	 Singles Energy            =      -0.0000000000000000 [Eh]
	 Same-Spin Energy          =      -0.2716098882059014 [Eh]
	 Opposite-Spin Energy      =      -0.9446492040873118 [Eh]
	 Correlation Energy        =      -1.2162590922932133 [Eh]
	 Total Energy              =    -271.3345135437742215 [Eh]

	 ================> DF-SCS-MP2 Energies <==================
	-----------------------------------------------------------
	 SCS Same-Spin Scale       =       0.3333333333333333 [-]
	 SCS Opposite-Spin Scale   =       1.2000000000000000 [-]
	 SCS Same-Spin Energy      =      -0.0905366294019671 [Eh]
	 SCS Opposite-Spin Energy  =      -1.1335790449047740 [Eh]
	 SCS Correlation Energy    =      -1.2241156743067412 [Eh]
	 SCS Total Energy          =    -271.3423701257877383 [Eh]
	-----------------------------------------------------------

  Dipole Moment: [D]
     X:     0.2966      Y:    -2.3572      Z:     0.0575     Total:     2.3765

*** Psi4 exiting successfully. Buy a developer a beer!
