                               Psi4 1.4a3.dev225

  ==> Input File <==

--------------------------------------------------------------------------
#psi4
#
memory 32 gb

molecule  {
0 1
  O        0.0000000     1.2846080    -0.0000020
  C       -1.2933020    -0.7398800     0.0000010
  C        1.2933020    -0.7398800    -0.0000030
  C       -0.0170355     0.0660781    -0.0000010
  C       -2.5345880     0.1407340     0.0000020
  C        2.5345890     0.1407340     0.0000030
  H       -1.2807520    -1.4059020     0.8731990
  H       -1.2807540    -1.4059020    -0.8731970
  H        1.2807540    -1.4058970    -0.8732050
  H        1.2807510    -1.4059060     0.8731910
  H       -3.4404600    -0.4711580     0.0000060
  H       -2.5496050     0.7863060     0.8802420
  H       -2.5496100     0.7863010    -0.8802430
  H        2.5496080     0.7862970     0.8802510
  H        2.5496070     0.7863100    -0.8802340
  H        3.4404600    -0.4711580    -0.0000010
units angstrom
no_reorient  #important for SAPT in psi4, default
symmetry c1  #important for SAPT in psi4, default
}

set PROPERTIES_ORIGIN ["COM"]
properties('MP2/aug-cc-pvtz', properties = ['dipole'])
--------------------------------------------------------------------------

    Molecular point group: c1
  Charge       = 0
  Multiplicity = 1
  Basis Set: AUG-CC-PVTZ
    Blend: AUG-CC-PVTZ
  Basis Set: (AUG-CC-PVTZ AUX)
    Blend: AUG-CC-PVTZ-JKFIT

    Orbital Energies [Eh]
    ---------------------

    Doubly Occupied:

       1A    -20.543877     2A    -11.327350     3A    -11.239698
       4A    -11.238806     5A    -11.216577     6A    -11.215260
       7A     -1.381204     8A     -1.068658     9A     -1.035655
      10A     -0.914031    11A     -0.842035    12A     -0.726737
      13A     -0.665112    14A     -0.645529    15A     -0.614532
      16A     -0.606081    17A     -0.560263    18A     -0.521194
      19A     -0.520939    20A     -0.510055    21A     -0.505283
      22A     -0.490191    23A     -0.482927    24A     -0.406381

  @DF-RHF Final Energy:  -270.13127383306119

   => Energetics <=

    Nuclear Repulsion Energy =            239.0324405454417445
    One-Electron Energy =                -839.7706756045357679
    Two-Electron Energy =                 330.6069612260328086
    Total Energy =                       -270.1312738330611865
  Basis Set: (AUG-CC-PVTZ AUX)
    Blend: AUG-CC-PVTZ-RI
    Molecular point group: c1

    Geometry (in Angstrom), charge = 0, multiplicity = 1:

       Center              X                  Y                   Z               Mass
    ------------   -----------------  -----------------  -----------------  -----------------
         O            0.002374898239     1.243792115934    -0.000002012554    15.994914619570
         C           -1.290927101761    -0.780695884066     0.000000987446    12.000000000000
         C            1.295676898239    -0.780695884066    -0.000003012554    12.000000000000
         C           -0.014660601761     0.025262215934    -0.000001012554    12.000000000000
         C           -2.532213101761     0.099918115934     0.000001987446    12.000000000000
         C            2.536963898239     0.099918115934     0.000002987446    12.000000000000
         H           -1.278377101761    -1.446717884066     0.873198987446     1.007825032230
         H           -1.278379101761    -1.446717884066    -0.873197012554     1.007825032230
         H            1.283128898239    -1.446712884066    -0.873205012554     1.007825032230
         H            1.283125898239    -1.446721884066     0.873190987446     1.007825032230
         H           -3.438085101761    -0.511973884066     0.000005987446     1.007825032230
         H           -2.547230101761     0.745490115934     0.880241987446     1.007825032230
         H           -2.547235101761     0.745485115934    -0.880243012554     1.007825032230
         H            2.551982898239     0.745481115934     0.880250987446     1.007825032230
         H            2.551981898239     0.745494115934    -0.880234012554     1.007825032230
         H            3.442834898239    -0.511973884066    -0.000001012554     1.007825032230

  Basis Set: AUG-CC-PVTZ
    Blend: AUG-CC-PVTZ
  Basis Set: (AUG-CC-PVTZ AUX)
    Blend: AUG-CC-PVTZ-JKFIT
	 Reference Energy          =    -270.1312738330611865 [Eh]
	 Singles Energy            =      -0.0000000000000000 [Eh]
	 Same-Spin Energy          =      -0.2725012695755082 [Eh]
	 Opposite-Spin Energy      =      -0.9459572466501602 [Eh]
	 Correlation Energy        =      -1.2184585162256685 [Eh]
	 Total Energy              =    -271.3497323492868532 [Eh]

	 ================> DF-SCS-MP2 Energies <==================
	-----------------------------------------------------------
	 SCS Same-Spin Scale       =       0.3333333333333333 [-]
	 SCS Opposite-Spin Scale   =       1.2000000000000000 [-]
	 SCS Same-Spin Energy      =      -0.0908337565251694 [Eh]
	 SCS Opposite-Spin Energy  =      -1.1351486959801922 [Eh]
	 SCS Correlation Energy    =      -1.2259824525053615 [Eh]
	 SCS Total Energy          =    -271.3572562855665637 [Eh]
	-----------------------------------------------------------

  Dipole Moment: [D]
     X:    -0.0888      Y:    -2.6475      Z:     0.0000     Total:     2.6490

*** Psi4 exiting successfully. Buy a developer a beer!
