                               Psi4 1.3.2 release

  ==> Input File <==

--------------------------------------------------------------------------
#psi4
#
memory 32 gb

molecule  {
0 1
  O        0.0000000     1.2846030    -0.0000340
  C       -1.2933030    -0.7398820    -0.0001760
  C        1.2933030    -0.7398820     0.0001460
  C        0.0140800     0.0780461    -0.0000278
  C       -2.5345840     0.1407430     0.0001160
  C        2.5345840     0.1407430    -0.0000420
  H       -1.2807360    -1.4061910     0.8728000
  H       -1.2807880    -1.4056370    -0.8735800
  H        1.2807720    -1.4061280    -0.8728800
  H        1.2807530    -1.4057000     0.8735000
  H       -3.4404540    -0.4711510     0.0003790
  H       -2.5493440     0.7863420     0.8803370
  H       -2.5498290     0.7862720    -0.8801480
  H        2.5497870     0.7862280     0.8802560
  H        2.5493860     0.7863860    -0.8802290
  H        3.4404540    -0.4711510    -0.0002890
units angstrom
no_reorient  #important for SAPT in psi4, default
symmetry c1  #important for SAPT in psi4, default
}

set PROPERTIES_ORIGIN ["COM"]
properties('MP2/aug-cc-pvtz', properties = ['dipole'])
--------------------------------------------------------------------------

    Molecular point group: c1
  Charge       = 0
  Multiplicity = 1
  Basis Set: AUG-CC-PVTZ
    Blend: AUG-CC-PVTZ
  Basis Set: (AUG-CC-PVTZ AUX)
    Blend: AUG-CC-PVTZ-JKFIT

    Orbital Energies [Eh]
    ---------------------

    Doubly Occupied:

       1A    -20.544932     2A    -11.326344     3A    -11.238991
       4A    -11.238143     5A    -11.216126     6A    -11.215017
       7A     -1.389563     8A     -1.066998     9A     -1.034846
      10A     -0.912381    11A     -0.840767    12A     -0.727106
      13A     -0.666290    14A     -0.645074    15A     -0.617089
      16A     -0.605554    17A     -0.559610    18A     -0.522146
      19A     -0.521745    20A     -0.510818    21A     -0.505080
      22A     -0.489736    23A     -0.486533    24A     -0.403914

  @DF-RHF Final Energy:  -270.13202429634526

   => Energetics <=

    Nuclear Repulsion Energy =            239.1182823908386297
    One-Electron Energy =                -839.9310049576511119
    Two-Electron Energy =                 330.6806982704671896
    Total Energy =                       -270.1320242963452642
  Basis Set: (AUG-CC-PVTZ AUX)
    Blend: AUG-CC-PVTZ-RI
    Molecular point group: c1

    Geometry (in Angstrom), charge = 0, multiplicity = 1:

       Center              X                  Y                   Z               Mass
    ------------   -----------------  -----------------  -----------------  -----------------
         O           -0.001962992855     1.242117805166    -0.000031649852    15.994914619570
         C           -1.295265992855    -0.782367194834    -0.000173649852    12.000000000000
         C            1.291340007145    -0.782367194834     0.000148350148    12.000000000000
         C            0.012117007145     0.035560905166    -0.000025449852    12.000000000000
         C           -2.536546992855     0.098257805166     0.000118350148    12.000000000000
         C            2.532621007145     0.098257805166    -0.000039649852    12.000000000000
         H           -1.282698992855    -1.448676194834     0.872802350148     1.007825032230
         H           -1.282750992855    -1.448122194834    -0.873577649852     1.007825032230
         H            1.278809007145    -1.448613194834    -0.872877649852     1.007825032230
         H            1.278790007145    -1.448185194834     0.873502350148     1.007825032230
         H           -3.442416992855    -0.513636194834     0.000381350148     1.007825032230
         H           -2.551306992855     0.743856805166     0.880339350148     1.007825032230
         H           -2.551791992855     0.743786805166    -0.880145649852     1.007825032230
         H            2.547824007145     0.743742805166     0.880258350148     1.007825032230
         H            2.547423007145     0.743900805166    -0.880226649852     1.007825032230
         H            3.438491007145    -0.513636194834    -0.000286649852     1.007825032230

  Basis Set: AUG-CC-PVTZ
    Blend: AUG-CC-PVTZ
  Basis Set: (AUG-CC-PVTZ AUX)
    Blend: AUG-CC-PVTZ-JKFIT
	 Reference Energy          =    -270.1320242963452642 [Eh]
	 Singles Energy            =      -0.0000000000000000 [Eh]
	 Same-Spin Energy          =      -0.2721614968382737 [Eh]
	 Opposite-Spin Energy      =      -0.9452771913777093 [Eh]
	 Correlation Energy        =      -1.2174386882159829 [Eh]
	 Total Energy              =    -271.3494629845612280 [Eh]

	 ================> DF-SCS-MP2 Energies <==================
	-----------------------------------------------------------
	 SCS Same-Spin Scale       =       0.3333333333333333 [-]
	 SCS Opposite-Spin Scale   =       1.2000000000000000 [-]
	 SCS Same-Spin Energy      =      -0.0907204989460912 [Eh]
	 SCS Opposite-Spin Energy  =      -1.1343326296532510 [Eh]
	 SCS Correlation Energy    =      -1.2250531285993422 [Eh]
	 SCS Total Energy          =    -271.3570774249446345 [Eh]
	-----------------------------------------------------------

  Dipole Moment: [D]
     X:     0.0748      Y:    -2.5968      Z:     0.0000     Total:     2.5979

*** Psi4 exiting successfully. Buy a developer a beer!
