                               Psi4 1.3.2 release

  ==> Input File <==

--------------------------------------------------------------------------
#psi4
#
memory 32 gb

molecule  {
0 1
  O        0.0000000     1.2846030    -0.0000340
  C       -1.2933030    -0.7398820    -0.0001760
  C        1.2933030    -0.7398820     0.0001460
  C        0.0285496     0.1002470    -0.0000325
  C       -2.5345840     0.1407430     0.0001160
  C        2.5345840     0.1407430    -0.0000420
  H       -1.2807360    -1.4061910     0.8728000
  H       -1.2807880    -1.4056370    -0.8735800
  H        1.2807720    -1.4061280    -0.8728800
  H        1.2807530    -1.4057000     0.8735000
  H       -3.4404540    -0.4711510     0.0003790
  H       -2.5493440     0.7863420     0.8803370
  H       -2.5498290     0.7862720    -0.8801480
  H        2.5497870     0.7862280     0.8802560
  H        2.5493860     0.7863860    -0.8802290
  H        3.4404540    -0.4711510    -0.0002890
units angstrom
no_reorient  #important for SAPT in psi4, default
symmetry c1  #important for SAPT in psi4, default
}

set PROPERTIES_ORIGIN ["COM"]
properties('MP2/aug-cc-pvtz', properties = ['dipole'])
--------------------------------------------------------------------------

    Molecular point group: c1
  Charge       = 0
  Multiplicity = 1
  Basis Set: AUG-CC-PVTZ
    Blend: AUG-CC-PVTZ
  Basis Set: (AUG-CC-PVTZ AUX)
    Blend: AUG-CC-PVTZ-JKFIT

    Orbital Energies [Eh]
    ---------------------

    Doubly Occupied:

       1A    -20.546937     2A    -11.324605     3A    -11.238300
       4A    -11.236134     5A    -11.216111     6A    -11.213768
       7A     -1.405395     8A     -1.064926     9A     -1.032705
      10A     -0.909499    11A     -0.838267    12A     -0.728126
      13A     -0.668793    14A     -0.644697    15A     -0.621851
      16A     -0.604395    17A     -0.558285    18A     -0.525717
      19A     -0.523198    20A     -0.512045    21A     -0.504623
      22A     -0.492462    23A     -0.488416    24A     -0.398335

  @DF-RHF Final Energy:  -270.13124840041957

   => Energetics <=

    Nuclear Repulsion Energy =            239.2877086381015488
    One-Electron Energy =                -840.2427353551147462
    Two-Electron Energy =                 330.8237783165936321
    Total Energy =                       -270.1312484004195653
  Basis Set: (AUG-CC-PVTZ AUX)
    Blend: AUG-CC-PVTZ-RI
    Molecular point group: c1

    Geometry (in Angstrom), charge = 0, multiplicity = 1:

       Center              X                  Y                   Z               Mass
    ------------   -----------------  -----------------  -----------------  -----------------
         O           -0.003980290583     1.239022638395    -0.000030994596    15.994914619570
         C           -1.297283290583    -0.785462361605    -0.000172994596    12.000000000000
         C            1.289322709417    -0.785462361605     0.000149005404    12.000000000000
         C            0.024569309417     0.054666638395    -0.000029494596    12.000000000000
         C           -2.538564290583     0.095162638395     0.000119005404    12.000000000000
         C            2.530603709417     0.095162638395    -0.000038994596    12.000000000000
         H           -1.284716290583    -1.451771361605     0.872803005404     1.007825032230
         H           -1.284768290583    -1.451217361605    -0.873576994596     1.007825032230
         H            1.276791709417    -1.451708361605    -0.872876994596     1.007825032230
         H            1.276772709417    -1.451280361605     0.873503005404     1.007825032230
         H           -3.444434290583    -0.516731361605     0.000382005404     1.007825032230
         H           -2.553324290583     0.740761638395     0.880340005404     1.007825032230
         H           -2.553809290583     0.740691638395    -0.880144994596     1.007825032230
         H            2.545806709417     0.740647638395     0.880259005404     1.007825032230
         H            2.545405709417     0.740805638395    -0.880225994596     1.007825032230
         H            3.436473709417    -0.516731361605    -0.000285994596     1.007825032230

  Basis Set: AUG-CC-PVTZ
    Blend: AUG-CC-PVTZ
  Basis Set: (AUG-CC-PVTZ AUX)
    Blend: AUG-CC-PVTZ-JKFIT
	 Reference Energy          =    -270.1312484004195653 [Eh]
	 Singles Energy            =      -0.0000000000000000 [Eh]
	 Same-Spin Energy          =      -0.2716140986211175 [Eh]
	 Opposite-Spin Energy      =      -0.9441682481540410 [Eh]
	 Correlation Energy        =      -1.2157823467751585 [Eh]
	 Total Energy              =    -271.3470307471947081 [Eh]

	 ================> DF-SCS-MP2 Energies <==================
	-----------------------------------------------------------
	 SCS Same-Spin Scale       =       0.3333333333333333 [-]
	 SCS Opposite-Spin Scale   =       1.2000000000000000 [-]
	 SCS Same-Spin Energy      =      -0.0905380328737058 [Eh]
	 SCS Opposite-Spin Energy  =      -1.1330018977848491 [Eh]
	 SCS Correlation Energy    =      -1.2235399306585548 [Eh]
	 SCS Total Energy          =    -271.3547883310781117 [Eh]
	-----------------------------------------------------------

  Dipole Moment: [D]
     X:     0.1575      Y:    -2.4976      Z:     0.0000     Total:     2.5025

*** Psi4 exiting successfully. Buy a developer a beer!
