                               Psi4 1.3.2 release

  ==> Input File <==

--------------------------------------------------------------------------
#psi4
#
memory 32 gb

molecule  {
0 1
  O        0.0000000     1.2846030    -0.0000340
  C       -1.3069890    -0.7171896    -0.0001779
  C        1.2933030    -0.7398820     0.0001460
  C        0.0000000     0.0555960    -0.0000230
  C       -2.5345840     0.1407430     0.0001160
  C        2.5345840     0.1407430    -0.0000420
  H       -1.2807360    -1.4061910     0.8728000
  H       -1.2807880    -1.4056370    -0.8735800
  H        1.2807720    -1.4061280    -0.8728800
  H        1.2807530    -1.4057000     0.8735000
  H       -3.4404540    -0.4711510     0.0003790
  H       -2.5493440     0.7863420     0.8803370
  H       -2.5498290     0.7862720    -0.8801480
  H        2.5497870     0.7862280     0.8802560
  H        2.5493860     0.7863860    -0.8802290
  H        3.4404540    -0.4711510    -0.0002890
units angstrom
no_reorient  #important for SAPT in psi4, default
symmetry c1  #important for SAPT in psi4, default
}

set PROPERTIES_ORIGIN ["COM"]
properties('MP2/aug-cc-pvtz', properties = ['dipole'])
--------------------------------------------------------------------------

    Molecular point group: c1
  Charge       = 0
  Multiplicity = 1
  Basis Set: AUG-CC-PVTZ
    Blend: AUG-CC-PVTZ
  Basis Set: (AUG-CC-PVTZ AUX)
    Blend: AUG-CC-PVTZ-JKFIT

    Orbital Energies [Eh]
    ---------------------

    Doubly Occupied:

       1A    -20.542078     2A    -11.327948     3A    -11.241200
       4A    -11.240555     5A    -11.216600     6A    -11.215250
       7A     -1.373976     8A     -1.070287     9A     -1.039296
      10A     -0.915951    11A     -0.842572    12A     -0.725114
      13A     -0.664782    14A     -0.644685    15A     -0.612088
      16A     -0.606170    17A     -0.564271    18A     -0.520569
      19A     -0.519828    20A     -0.510743    21A     -0.507978
      22A     -0.488219    23A     -0.476947    24A     -0.408548

  @DF-RHF Final Energy:  -270.12965608843382

   => Energetics <=

    Nuclear Repulsion Energy =            239.1171224150215266
    One-Electron Energy =                -839.9422417969105936
    Two-Electron Energy =                 330.6954632934552478
    Total Energy =                       -270.1296560884338191
  Basis Set: (AUG-CC-PVTZ AUX)
    Blend: AUG-CC-PVTZ-RI
    Molecular point group: c1

    Geometry (in Angstrom), charge = 0, multiplicity = 1:

       Center              X                  Y                   Z               Mass
    ------------   -----------------  -----------------  -----------------  -----------------
         O            0.001908039425     1.242084024603    -0.000032054160    15.994914619570
         C           -1.305080960575    -0.759708575397    -0.000175954160    12.000000000000
         C            1.295211039425    -0.782400975397     0.000147945840    12.000000000000
         C            0.001908039425     0.013077024603    -0.000021054160    12.000000000000
         C           -2.532675960575     0.098224024603     0.000117945840    12.000000000000
         C            2.536492039425     0.098224024603    -0.000040054160    12.000000000000
         H           -1.278827960575    -1.448709975397     0.872801945840     1.007825032230
         H           -1.278879960575    -1.448155975397    -0.873578054160     1.007825032230
         H            1.282680039425    -1.448646975397    -0.872878054160     1.007825032230
         H            1.282661039425    -1.448218975397     0.873501945840     1.007825032230
         H           -3.438545960575    -0.513669975397     0.000380945840     1.007825032230
         H           -2.547435960575     0.743823024603     0.880338945840     1.007825032230
         H           -2.547920960575     0.743753024603    -0.880146054160     1.007825032230
         H            2.551695039425     0.743709024603     0.880257945840     1.007825032230
         H            2.551294039425     0.743867024603    -0.880227054160     1.007825032230
         H            3.442362039425    -0.513669975397    -0.000287054160     1.007825032230

  Basis Set: AUG-CC-PVTZ
    Blend: AUG-CC-PVTZ
  Basis Set: (AUG-CC-PVTZ AUX)
    Blend: AUG-CC-PVTZ-JKFIT
	 Reference Energy          =    -270.1296560884338191 [Eh]
	 Singles Energy            =      -0.0000000000000000 [Eh]
	 Same-Spin Energy          =      -0.2729558594182347 [Eh]
	 Opposite-Spin Energy      =      -0.9466753180582046 [Eh]
	 Correlation Energy        =      -1.2196311774764392 [Eh]
	 Total Energy              =    -271.3492872659102773 [Eh]

	 ================> DF-SCS-MP2 Energies <==================
	-----------------------------------------------------------
	 SCS Same-Spin Scale       =       0.3333333333333333 [-]
	 SCS Opposite-Spin Scale   =       1.2000000000000000 [-]
	 SCS Same-Spin Energy      =      -0.0909852864727449 [Eh]
	 SCS Opposite-Spin Energy  =      -1.1360103816698455 [Eh]
	 SCS Correlation Energy    =      -1.2269956681425904 [Eh]
	 SCS Total Energy          =    -271.3566517565764116 [Eh]
	-----------------------------------------------------------

  Dipole Moment: [D]
     X:    -0.0051      Y:    -2.6884      Z:     0.0000     Total:     2.6884

*** Psi4 exiting successfully. Buy a developer a beer!
