                               Psi4 1.3.2 release

  ==> Input File <==

--------------------------------------------------------------------------
#psi4
#
memory 32 gb

molecule  {
0 1
  O        0.0000000     1.2846030    -0.0000340
  C       -1.2933030    -0.7398820    -0.0001760
  C        1.2933030    -0.7398820     0.0001460
  C        0.0336280     0.1032281     0.0884762
  C       -2.5345840     0.1407430     0.0001160
  C        2.5345840     0.1407430    -0.0000420
  H       -1.2807360    -1.4061910     0.8728000
  H       -1.2807880    -1.4056370    -0.8735800
  H        1.2807720    -1.4061280    -0.8728800
  H        1.2807530    -1.4057000     0.8735000
  H       -3.4404540    -0.4711510     0.0003790
  H       -2.5493440     0.7863420     0.8803370
  H       -2.5498290     0.7862720    -0.8801480
  H        2.5497870     0.7862280     0.8802560
  H        2.5493860     0.7863860    -0.8802290
  H        3.4404540    -0.4711510    -0.0002890
units angstrom
no_reorient  #important for SAPT in psi4, default
symmetry c1  #important for SAPT in psi4, default
}

set PROPERTIES_ORIGIN ["COM"]
properties('MP2/aug-cc-pvtz', properties = ['dipole'])
--------------------------------------------------------------------------

    Molecular point group: c1
  Charge       = 0
  Multiplicity = 1
  Basis Set: AUG-CC-PVTZ
    Blend: AUG-CC-PVTZ
  Basis Set: (AUG-CC-PVTZ AUX)
    Blend: AUG-CC-PVTZ-JKFIT

    Orbital Energies [Eh]
    ---------------------

    Doubly Occupied:

       1A    -20.547998     2A    -11.325387     3A    -11.238655
       4A    -11.236107     5A    -11.216188     6A    -11.213456
       7A     -1.405699     8A     -1.064475     9A     -1.032027
      10A     -0.908921    11A     -0.837646    12A     -0.728641
      13A     -0.668510    14A     -0.644660    15A     -0.621267
      16A     -0.604072    17A     -0.558036    18A     -0.525766
      19A     -0.523257    20A     -0.512618    21A     -0.504500
      22A     -0.491619    23A     -0.488148    24A     -0.396660

  @DF-RHF Final Energy:  -270.12671572643137

   => Energetics <=

    Nuclear Repulsion Energy =            239.1972280632664365
    One-Electron Energy =                -840.0592601616373258
    Two-Electron Energy =                 330.7353163719395752
    Total Energy =                       -270.1267157264313710
  Basis Set: (AUG-CC-PVTZ AUX)
    Blend: AUG-CC-PVTZ-RI
    Molecular point group: c1

    Geometry (in Angstrom), charge = 0, multiplicity = 1:

       Center              X                  Y                   Z               Mass
    ------------   -----------------  -----------------  -----------------  -----------------
         O           -0.004688302191     1.238607024539    -0.012370547820    15.994914619570
         C           -1.297991302191    -0.785877975461    -0.012512547820    12.000000000000
         C            1.288614697809    -0.785877975461    -0.012190547820    12.000000000000
         C            0.028939697809     0.057232124539     0.076139652180    12.000000000000
         C           -2.539272302191     0.094747024539    -0.012220547820    12.000000000000
         C            2.529895697809     0.094747024539    -0.012378547820    12.000000000000
         H           -1.285424302191    -1.452186975461     0.860463452180     1.007825032230
         H           -1.285476302191    -1.451632975461    -0.885916547820     1.007825032230
         H            1.276083697809    -1.452123975461    -0.885216547820     1.007825032230
         H            1.276064697809    -1.451695975461     0.861163452180     1.007825032230
         H           -3.445142302191    -0.517146975461    -0.011957547820     1.007825032230
         H           -2.554032302191     0.740346024539     0.868000452180     1.007825032230
         H           -2.554517302191     0.740276024539    -0.892484547820     1.007825032230
         H            2.545098697809     0.740232024539     0.867919452180     1.007825032230
         H            2.544697697809     0.740390024539    -0.892565547820     1.007825032230
         H            3.435765697809    -0.517146975461    -0.012625547820     1.007825032230

  Basis Set: AUG-CC-PVTZ
    Blend: AUG-CC-PVTZ
  Basis Set: (AUG-CC-PVTZ AUX)
    Blend: AUG-CC-PVTZ-JKFIT
	 Reference Energy          =    -270.1267157264313710 [Eh]
	 Singles Energy            =      -0.0000000000000000 [Eh]
	 Same-Spin Energy          =      -0.2717765304662508 [Eh]
	 Opposite-Spin Energy      =      -0.9447308980873215 [Eh]
	 Correlation Energy        =      -1.2165074285535722 [Eh]
	 Total Energy              =    -271.3432231549849689 [Eh]

	 ================> DF-SCS-MP2 Energies <==================
	-----------------------------------------------------------
	 SCS Same-Spin Scale       =       0.3333333333333333 [-]
	 SCS Opposite-Spin Scale   =       1.2000000000000000 [-]
	 SCS Same-Spin Energy      =      -0.0905921768220836 [Eh]
	 SCS Opposite-Spin Energy  =      -1.1336770777047858 [Eh]
	 SCS Correlation Energy    =      -1.2242692545268694 [Eh]
	 SCS Total Energy          =    -271.3509849809582306 [Eh]
	-----------------------------------------------------------

  Dipole Moment: [D]
     X:     0.1843      Y:    -2.4740      Z:     0.0352     Total:     2.4811

*** Psi4 exiting successfully. Buy a developer a beer!
