                               Psi4 1.3.2 release

  ==> Input File <==

--------------------------------------------------------------------------
#psi4
#
memory 32 gb

molecule  {
0 1
  O        0.0000000     1.2846030    -0.0000340
  C       -1.2030681    -0.8707113    -0.0001635
  C        1.2933030    -0.7398820     0.0001460
  C        0.0000000     0.0555960    -0.0000230
  C       -2.5345840     0.1407430     0.0001160
  C        2.5345840     0.1407430    -0.0000420
  H       -1.2807360    -1.4061910     0.8728000
  H       -1.2807880    -1.4056370    -0.8735800
  H        1.2807720    -1.4061280    -0.8728800
  H        1.2807530    -1.4057000     0.8735000
  H       -3.4404540    -0.4711510     0.0003790
  H       -2.5493440     0.7863420     0.8803370
  H       -2.5498290     0.7862720    -0.8801480
  H        2.5497870     0.7862280     0.8802560
  H        2.5493860     0.7863860    -0.8802290
  H        3.4404540    -0.4711510    -0.0002890
units angstrom
no_reorient  #important for SAPT in psi4, default
symmetry c1  #important for SAPT in psi4, default
}

set PROPERTIES_ORIGIN ["COM"]
properties('MP2/aug-cc-pvtz', properties = ['dipole'])
--------------------------------------------------------------------------

    Molecular point group: c1
  Charge       = 0
  Multiplicity = 1
  Basis Set: AUG-CC-PVTZ
    Blend: AUG-CC-PVTZ
  Basis Set: (AUG-CC-PVTZ AUX)
    Blend: AUG-CC-PVTZ-JKFIT

    Orbital Energies [Eh]
    ---------------------

    Doubly Occupied:

       1A    -20.548132     2A    -11.331162     3A    -11.235972
       4A    -11.235757     5A    -11.221858     6A    -11.213986
       7A     -1.375779     8A     -1.069835     9A     -1.024189
      10A     -0.911622    11A     -0.847504    12A     -0.733231
      13A     -0.661291    14A     -0.659384    15A     -0.616523
      16A     -0.611586    17A     -0.548877    18A     -0.524693
      19A     -0.521149    20A     -0.511876    21A     -0.506299
      22A     -0.483322    23A     -0.468998    24A     -0.405256

  @DF-RHF Final Energy:  -270.10813405527540

   => Energetics <=

    Nuclear Repulsion Energy =            238.1410938201906617
    One-Electron Energy =                -837.9618914249610953
    Two-Electron Energy =                 329.7126635494950051
    Total Energy =                       -270.1081340552754000
  Basis Set: (AUG-CC-PVTZ AUX)
    Blend: AUG-CC-PVTZ-RI
    Molecular point group: c1

    Geometry (in Angstrom), charge = 0, multiplicity = 1:

       Center              X                  Y                   Z               Mass
    ------------   -----------------  -----------------  -----------------  -----------------
         O           -0.012580225307     1.263487448088    -0.000034061754    15.994914619570
         C           -1.215648325307    -0.891826851912    -0.000163561754    12.000000000000
         C            1.280722774693    -0.760997551912     0.000145938246    12.000000000000
         C           -0.012580225307     0.034480448088    -0.000023061754    12.000000000000
         C           -2.547164225307     0.119627448088     0.000115938246    12.000000000000
         C            2.522003774693     0.119627448088    -0.000042061754    12.000000000000
         H           -1.293316225307    -1.427306551912     0.872799938246     1.007825032230
         H           -1.293368225307    -1.426752551912    -0.873580061754     1.007825032230
         H            1.268191774693    -1.427243551912    -0.872880061754     1.007825032230
         H            1.268172774693    -1.426815551912     0.873499938246     1.007825032230
         H           -3.453034225307    -0.492266551912     0.000378938246     1.007825032230
         H           -2.561924225307     0.765226448088     0.880336938246     1.007825032230
         H           -2.562409225307     0.765156448088    -0.880148061754     1.007825032230
         H            2.537206774693     0.765112448088     0.880255938246     1.007825032230
         H            2.536805774693     0.765270448088    -0.880229061754     1.007825032230
         H            3.427873774693    -0.492266551912    -0.000289061754     1.007825032230

  Basis Set: AUG-CC-PVTZ
    Blend: AUG-CC-PVTZ
  Basis Set: (AUG-CC-PVTZ AUX)
    Blend: AUG-CC-PVTZ-JKFIT
	 Reference Energy          =    -270.1081340552754000 [Eh]
	 Singles Energy            =      -0.0000000000000000 [Eh]
	 Same-Spin Energy          =      -0.2728050269686435 [Eh]
	 Opposite-Spin Energy      =      -0.9478412487858598 [Eh]
	 Correlation Energy        =      -1.2206462757545034 [Eh]
	 Total Energy              =    -271.3287803310299182 [Eh]

	 ================> DF-SCS-MP2 Energies <==================
	-----------------------------------------------------------
	 SCS Same-Spin Scale       =       0.3333333333333333 [-]
	 SCS Opposite-Spin Scale   =       1.2000000000000000 [-]
	 SCS Same-Spin Energy      =      -0.0909350089895478 [Eh]
	 SCS Opposite-Spin Energy  =      -1.1374094985430319 [Eh]
	 SCS Correlation Energy    =      -1.2283445075325796 [Eh]
	 SCS Total Energy          =    -271.3364785628079972 [Eh]
	-----------------------------------------------------------

  Dipole Moment: [D]
     X:     0.0056      Y:    -2.6658      Z:     0.0000     Total:     2.6658

*** Psi4 exiting successfully. Buy a developer a beer!
