                               Psi4 1.3.2 release

  ==> Input File <==

--------------------------------------------------------------------------
#psi4
#
memory 32 gb

molecule  {
0 1
  O        0.0000000     1.2846030    -0.0000340
  C       -1.2933030    -0.7398820    -0.0001760
  C        1.2933030    -0.7398820     0.0001460
  C        0.0000000    -0.1444040    -0.0000212
  C       -2.5345840     0.1407430     0.0001160
  C        2.5345840     0.1407430    -0.0000420
  H       -1.2807360    -1.4061910     0.8728000
  H       -1.2807880    -1.4056370    -0.8735800
  H        1.2807720    -1.4061280    -0.8728800
  H        1.2807530    -1.4057000     0.8735000
  H       -3.4404540    -0.4711510     0.0003790
  H       -2.5493440     0.7863420     0.8803370
  H       -2.5498290     0.7862720    -0.8801480
  H        2.5497870     0.7862280     0.8802560
  H        2.5493860     0.7863860    -0.8802290
  H        3.4404540    -0.4711510    -0.0002890
units angstrom
no_reorient  #important for SAPT in psi4, default
symmetry c1  #important for SAPT in psi4, default
}

set PROPERTIES_ORIGIN ["COM"]
properties('MP2/aug-cc-pvtz', properties = ['dipole'])
--------------------------------------------------------------------------

    Molecular point group: c1
  Charge       = 0
  Multiplicity = 1
  Basis Set: AUG-CC-PVTZ
    Blend: AUG-CC-PVTZ
  Basis Set: (AUG-CC-PVTZ AUX)
    Blend: AUG-CC-PVTZ-JKFIT

    Orbital Energies [Eh]
    ---------------------

    Doubly Occupied:

       1A    -20.521668     2A    -11.344246     3A    -11.249879
       4A    -11.249854     5A    -11.221971     6A    -11.221971
       7A     -1.266605     8A     -1.092973     9A     -1.053416
      10A     -0.938686    11A     -0.868180    12A     -0.722797
      13A     -0.659522    14A     -0.658474    15A     -0.615705
      16A     -0.591792    17A     -0.556521    18A     -0.524142
      19A     -0.522682    20A     -0.518562    21A     -0.498405
      22A     -0.475230    23A     -0.414840    24A     -0.411705

  @DF-RHF Final Energy:  -270.05904346369630

   => Energetics <=

    Nuclear Repulsion Energy =            237.9604548974963336
    One-Electron Energy =                -837.6393429800118611
    Two-Electron Energy =                 329.6198446188192293
    Total Energy =                       -270.0590434636962982
  Basis Set: (AUG-CC-PVTZ AUX)
    Blend: AUG-CC-PVTZ-RI
    Molecular point group: c1

    Geometry (in Angstrom), charge = 0, multiplicity = 1:

       Center              X                  Y                   Z               Mass
    ------------   -----------------  -----------------  -----------------  -----------------
         O           -0.000000011709     1.273130969394    -0.000032570000    15.994914619570
         C           -1.293303011709    -0.751354030606    -0.000174570000    12.000000000000
         C            1.293302988291    -0.751354030606     0.000147430000    12.000000000000
         C           -0.000000011709    -0.155876030606    -0.000019770000    12.000000000000
         C           -2.534584011709     0.129270969394     0.000117430000    12.000000000000
         C            2.534583988291     0.129270969394    -0.000040570000    12.000000000000
         H           -1.280736011709    -1.417663030606     0.872801430000     1.007825032230
         H           -1.280788011709    -1.417109030606    -0.873578570000     1.007825032230
         H            1.280771988291    -1.417600030606    -0.872878570000     1.007825032230
         H            1.280752988291    -1.417172030606     0.873501430000     1.007825032230
         H           -3.440454011709    -0.482623030606     0.000380430000     1.007825032230
         H           -2.549344011709     0.774869969394     0.880338430000     1.007825032230
         H           -2.549829011709     0.774799969394    -0.880146570000     1.007825032230
         H            2.549786988291     0.774755969394     0.880257430000     1.007825032230
         H            2.549385988291     0.774913969394    -0.880227570000     1.007825032230
         H            3.440453988291    -0.482623030606    -0.000287570000     1.007825032230

  Basis Set: AUG-CC-PVTZ
    Blend: AUG-CC-PVTZ
  Basis Set: (AUG-CC-PVTZ AUX)
    Blend: AUG-CC-PVTZ-JKFIT
	 Reference Energy          =    -270.0590434636962982 [Eh]
	 Singles Energy            =      -0.0000000000000000 [Eh]
	 Same-Spin Energy          =      -0.2802659758148802 [Eh]
	 Opposite-Spin Energy      =      -0.9607031931476049 [Eh]
	 Correlation Energy        =      -1.2409691689624851 [Eh]
	 Total Energy              =    -271.3000126326587633 [Eh]

	 ================> DF-SCS-MP2 Energies <==================
	-----------------------------------------------------------
	 SCS Same-Spin Scale       =       0.3333333333333333 [-]
	 SCS Opposite-Spin Scale   =       1.2000000000000000 [-]
	 SCS Same-Spin Energy      =      -0.0934219919382934 [Eh]
	 SCS Opposite-Spin Energy  =      -1.1528438317771259 [Eh]
	 SCS Correlation Energy    =      -1.2462658237154194 [Eh]
	 SCS Total Energy          =    -271.3053092874117169 [Eh]
	-----------------------------------------------------------

  Dipole Moment: [D]
     X:    -0.0000      Y:    -3.2695      Z:     0.0000     Total:     3.2695

*** Psi4 exiting successfully. Buy a developer a beer!
