                               Psi4 1.3.2 release

  ==> Input File <==

--------------------------------------------------------------------------
#psi4
#
memory 32 gb

molecule  {
0 1
  O        0.0000000     1.2846030    -0.0000340
  C       -1.2933030    -0.7398820    -0.0001760
  C        1.2933030    -0.7398820     0.0001460
  C        0.1703552    -0.0491852    -0.0000007
  C       -2.5345840     0.1407430     0.0001160
  C        2.5345840     0.1407430    -0.0000420
  H       -1.2807360    -1.4061910     0.8728000
  H       -1.2807880    -1.4056370    -0.8735800
  H        1.2807720    -1.4061280    -0.8728800
  H        1.2807530    -1.4057000     0.8735000
  H       -3.4404540    -0.4711510     0.0003790
  H       -2.5493440     0.7863420     0.8803370
  H       -2.5498290     0.7862720    -0.8801480
  H        2.5497870     0.7862280     0.8802560
  H        2.5493860     0.7863860    -0.8802290
  H        3.4404540    -0.4711510    -0.0002890
units angstrom
no_reorient  #important for SAPT in psi4, default
symmetry c1  #important for SAPT in psi4, default
}

set PROPERTIES_ORIGIN ["COM"]
properties('MP2/aug-cc-pvtz', properties = ['dipole'])
--------------------------------------------------------------------------

    Molecular point group: c1
  Charge       = 0
  Multiplicity = 1
  Basis Set: AUG-CC-PVTZ
    Blend: AUG-CC-PVTZ
  Basis Set: (AUG-CC-PVTZ AUX)
    Blend: AUG-CC-PVTZ-JKFIT

    Orbital Energies [Eh]
    ---------------------

    Doubly Occupied:

       1A    -20.531589     2A    -11.336658     3A    -11.244486
       4A    -11.243859     5A    -11.225763     6A    -11.213448
       7A     -1.305458     8A     -1.111621     9A     -1.030112
      10A     -0.935007    11A     -0.847955    12A     -0.732305
      13A     -0.661758    14A     -0.653507    15A     -0.606373
      16A     -0.598465    17A     -0.561027    18A     -0.526889
      19A     -0.524816    20A     -0.512159    21A     -0.490617
      22A     -0.486353    23A     -0.438100    24A     -0.404289

  @DF-RHF Final Energy:  -270.06450947170066

   => Energetics <=

    Nuclear Repulsion Energy =            238.5274865673775082
    One-Electron Energy =                -838.7387665802913261
    Two-Electron Energy =                 330.1467705412131295
    Total Energy =                       -270.0645094717006600
  Basis Set: (AUG-CC-PVTZ AUX)
    Blend: AUG-CC-PVTZ-RI
    Molecular point group: c1

    Geometry (in Angstrom), charge = 0, multiplicity = 1:

       Center              X                  Y                   Z               Mass
    ------------   -----------------  -----------------  -----------------  -----------------
         O           -0.023750299053     1.259855919026    -0.000035428033    15.994914619570
         C           -1.317053299053    -0.764629080974    -0.000177428033    12.000000000000
         C            1.269552700947    -0.764629080974     0.000144571967    12.000000000000
         C            0.146604900947    -0.073932280974    -0.000002128033    12.000000000000
         C           -2.558334299053     0.115995919026     0.000114571967    12.000000000000
         C            2.510833700947     0.115995919026    -0.000043428033    12.000000000000
         H           -1.304486299053    -1.430938080974     0.872798571967     1.007825032230
         H           -1.304538299053    -1.430384080974    -0.873581428033     1.007825032230
         H            1.257021700947    -1.430875080974    -0.872881428033     1.007825032230
         H            1.257002700947    -1.430447080974     0.873498571967     1.007825032230
         H           -3.464204299053    -0.495898080974     0.000377571967     1.007825032230
         H           -2.573094299053     0.761594919026     0.880335571967     1.007825032230
         H           -2.573579299053     0.761524919026    -0.880149428033     1.007825032230
         H            2.526036700947     0.761480919026     0.880254571967     1.007825032230
         H            2.525635700947     0.761638919026    -0.880230428033     1.007825032230
         H            3.416703700947    -0.495898080974    -0.000290428033     1.007825032230

  Basis Set: AUG-CC-PVTZ
    Blend: AUG-CC-PVTZ
  Basis Set: (AUG-CC-PVTZ AUX)
    Blend: AUG-CC-PVTZ-JKFIT
	 Reference Energy          =    -270.0645094717006600 [Eh]
	 Singles Energy            =      -0.0000000000000000 [Eh]
	 Same-Spin Energy          =      -0.2781072732419499 [Eh]
	 Opposite-Spin Energy      =      -0.9565823408195349 [Eh]
	 Correlation Energy        =      -1.2346896140614847 [Eh]
	 Total Energy              =    -271.2991990857621545 [Eh]

	 ================> DF-SCS-MP2 Energies <==================
	-----------------------------------------------------------
	 SCS Same-Spin Scale       =       0.3333333333333333 [-]
	 SCS Opposite-Spin Scale   =       1.2000000000000000 [-]
	 SCS Same-Spin Energy      =      -0.0927024244139833 [Eh]
	 SCS Opposite-Spin Energy  =      -1.1478988089834419 [Eh]
	 SCS Correlation Energy    =      -1.2406012333974252 [Eh]
	 SCS Total Energy          =    -271.3051107050980590 [Eh]
	-----------------------------------------------------------

  Dipole Moment: [D]
     X:     0.7956      Y:    -3.0733      Z:     0.0002     Total:     3.1746

*** Psi4 exiting successfully. Buy a developer a beer!
