                               Psi4 1.3.2 release

  ==> Input File <==

--------------------------------------------------------------------------
#psi4
#
memory 32 gb

molecule  {
0 1
  O        0.0000000     1.2846030    -0.0000340
  C       -1.2933030    -0.7398820    -0.0001760
  C        1.2933030    -0.7398820     0.0001460
  C       -0.0385851    -0.0230410    -0.1326354
  C       -2.5345840     0.1407430     0.0001160
  C        2.5345840     0.1407430    -0.0000420
  H       -1.2807360    -1.4061910     0.8728000
  H       -1.2807880    -1.4056370    -0.8735800
  H        1.2807720    -1.4061280    -0.8728800
  H        1.2807530    -1.4057000     0.8735000
  H       -3.4404540    -0.4711510     0.0003790
  H       -2.5493440     0.7863420     0.8803370
  H       -2.5498290     0.7862720    -0.8801480
  H        2.5497870     0.7862280     0.8802560
  H        2.5493860     0.7863860    -0.8802290
  H        3.4404540    -0.4711510    -0.0002890
units angstrom
no_reorient  #important for SAPT in psi4, default
symmetry c1  #important for SAPT in psi4, default
}

set PROPERTIES_ORIGIN ["COM"]
properties('MP2/aug-cc-pvtz', properties = ['dipole'])
--------------------------------------------------------------------------

    Molecular point group: c1
  Charge       = 0
  Multiplicity = 1
  Basis Set: AUG-CC-PVTZ
    Blend: AUG-CC-PVTZ
  Basis Set: (AUG-CC-PVTZ AUX)
    Blend: AUG-CC-PVTZ-JKFIT

    Orbital Energies [Eh]
    ---------------------

    Doubly Occupied:

       1A    -20.537660     2A    -11.336759     3A    -11.244470
       4A    -11.244425     5A    -11.219676     6A    -11.217052
       7A     -1.322737     8A     -1.080315     9A     -1.040894
      10A     -0.925123    11A     -0.851206    12A     -0.725826
      13A     -0.658748    14A     -0.649749    15A     -0.609120
      16A     -0.596493    17A     -0.562461    18A     -0.519731
      19A     -0.518807    20A     -0.509413    21A     -0.499855
      22A     -0.492428    23A     -0.449158    24A     -0.416663

  @DF-RHF Final Energy:  -270.10086971171370

   => Energetics <=

    Nuclear Repulsion Energy =            238.2647555696383677
    One-Electron Energy =                -838.2737142548483007
    Two-Electron Energy =                 329.9080889734962057
    Total Energy =                       -270.1008697117136990
  Basis Set: (AUG-CC-PVTZ AUX)
    Blend: AUG-CC-PVTZ-RI
    Molecular point group: c1

    Geometry (in Angstrom), charge = 0, multiplicity = 1:

       Center              X                  Y                   Z               Mass
    ------------   -----------------  -----------------  -----------------  -----------------
         O            0.005379379188     1.256210992059     0.018456007724    15.994914619570
         C           -1.287923620812    -0.768274007941     0.018314007724    12.000000000000
         C            1.298682379188    -0.768274007941     0.018636007724    12.000000000000
         C           -0.033205720812    -0.051433007941    -0.114145392276    12.000000000000
         C           -2.529204620812     0.112350992059     0.018606007724    12.000000000000
         C            2.539963379188     0.112350992059     0.018448007724    12.000000000000
         H           -1.275356620812    -1.434583007941     0.891290007724     1.007825032230
         H           -1.275408620812    -1.434029007941    -0.855089992276     1.007825032230
         H            1.286151379188    -1.434520007941    -0.854389992276     1.007825032230
         H            1.286132379188    -1.434092007941     0.891990007724     1.007825032230
         H           -3.435074620812    -0.499543007941     0.018869007724     1.007825032230
         H           -2.543964620812     0.757949992059     0.898827007724     1.007825032230
         H           -2.544449620812     0.757879992059    -0.861657992276     1.007825032230
         H            2.555166379188     0.757835992059     0.898746007724     1.007825032230
         H            2.554765379188     0.757993992059    -0.861738992276     1.007825032230
         H            3.445833379188    -0.499543007941     0.018201007724     1.007825032230

  Basis Set: AUG-CC-PVTZ
    Blend: AUG-CC-PVTZ
  Basis Set: (AUG-CC-PVTZ AUX)
    Blend: AUG-CC-PVTZ-JKFIT
	 Reference Energy          =    -270.1008697117136990 [Eh]
	 Singles Energy            =      -0.0000000000000000 [Eh]
	 Same-Spin Energy          =      -0.2759659426565475 [Eh]
	 Opposite-Spin Energy      =      -0.9533575105327070 [Eh]
	 Correlation Energy        =      -1.2293234531892545 [Eh]
	 Total Energy              =    -271.3301931649029370 [Eh]

	 ================> DF-SCS-MP2 Energies <==================
	-----------------------------------------------------------
	 SCS Same-Spin Scale       =       0.3333333333333333 [-]
	 SCS Opposite-Spin Scale   =       1.2000000000000000 [-]
	 SCS Same-Spin Energy      =      -0.0919886475521825 [Eh]
	 SCS Opposite-Spin Energy  =      -1.1440290126392483 [Eh]
	 SCS Correlation Energy    =      -1.2360176601914308 [Eh]
	 SCS Total Energy          =    -271.3368873719051066 [Eh]
	-----------------------------------------------------------

  Dipole Moment: [D]
     X:    -0.1765      Y:    -2.9296      Z:    -0.0171     Total:     2.9350

*** Psi4 exiting successfully. Buy a developer a beer!
