                               Psi4 1.3.2 release

  ==> Input File <==

--------------------------------------------------------------------------
#psi4
#
memory 32 gb

molecule  {
0 1
  O        0.1284662     1.2778704    -0.0000179
  C       -1.2933030    -0.7398820    -0.0001760
  C        1.2933030    -0.7398820     0.0001460
  C        0.0000000     0.0555960    -0.0000230
  C       -2.5345840     0.1407430     0.0001160
  C        2.5345840     0.1407430    -0.0000420
  H       -1.2807360    -1.4061910     0.8728000
  H       -1.2807880    -1.4056370    -0.8735800
  H        1.2807720    -1.4061280    -0.8728800
  H        1.2807530    -1.4057000     0.8735000
  H       -3.4404540    -0.4711510     0.0003790
  H       -2.5493440     0.7863420     0.8803370
  H       -2.5498290     0.7862720    -0.8801480
  H        2.5497870     0.7862280     0.8802560
  H        2.5493860     0.7863860    -0.8802290
  H        3.4404540    -0.4711510    -0.0002890
units angstrom
no_reorient  #important for SAPT in psi4, default
symmetry c1  #important for SAPT in psi4, default
}

set PROPERTIES_ORIGIN ["COM"]
properties('MP2/aug-cc-pvtz', properties = ['dipole'])
--------------------------------------------------------------------------

    Molecular point group: c1
  Charge       = 0
  Multiplicity = 1
  Basis Set: AUG-CC-PVTZ
    Blend: AUG-CC-PVTZ
  Basis Set: (AUG-CC-PVTZ AUX)
    Blend: AUG-CC-PVTZ-JKFIT

    Orbital Energies [Eh]
    ---------------------

    Doubly Occupied:

       1A    -20.542600     2A    -11.328201     3A    -11.245964
       4A    -11.233688     5A    -11.220376     6A    -11.211770
       7A     -1.374642     8A     -1.070307     9A     -1.035539
      10A     -0.915595    11A     -0.843023    12A     -0.726207
      13A     -0.664462    14A     -0.646237    15A     -0.612651
      16A     -0.606425    17A     -0.561645    18A     -0.521954
      19A     -0.520335    20A     -0.507947    21A     -0.503980
      22A     -0.490399    23A     -0.479188    24A     -0.407193

  @DF-RHF Final Energy:  -270.12728392019733

   => Energetics <=

    Nuclear Repulsion Energy =            239.0782083472731472
    One-Electron Energy =                -839.8703257690991677
    Two-Electron Energy =                 330.6648335016286637
    Total Energy =                       -270.1272839201973284
  Basis Set: (AUG-CC-PVTZ AUX)
    Blend: AUG-CC-PVTZ-RI
    Molecular point group: c1

    Geometry (in Angstrom), charge = 0, multiplicity = 1:

       Center              X                  Y                   Z               Mass
    ------------   -----------------  -----------------  -----------------  -----------------
         O            0.104593406317     1.239766228710    -0.000019210902    15.994914619570
         C           -1.317175793683    -0.777986171290    -0.000177310902    12.000000000000
         C            1.269430206317    -0.777986171290     0.000144689098    12.000000000000
         C           -0.023872793683     0.017491828710    -0.000024310902    12.000000000000
         C           -2.558456793683     0.102638828710     0.000114689098    12.000000000000
         C            2.510711206317     0.102638828710    -0.000043310902    12.000000000000
         H           -1.304608793683    -1.444295171290     0.872798689098     1.007825032230
         H           -1.304660793683    -1.443741171290    -0.873581310902     1.007825032230
         H            1.256899206317    -1.444232171290    -0.872881310902     1.007825032230
         H            1.256880206317    -1.443804171290     0.873498689098     1.007825032230
         H           -3.464326793683    -0.509255171290     0.000377689098     1.007825032230
         H           -2.573216793683     0.748237828710     0.880335689098     1.007825032230
         H           -2.573701793683     0.748167828710    -0.880149310902     1.007825032230
         H            2.525914206317     0.748123828710     0.880254689098     1.007825032230
         H            2.525513206317     0.748281828710    -0.880230310902     1.007825032230
         H            3.416581206317    -0.509255171290    -0.000290310902     1.007825032230

  Basis Set: AUG-CC-PVTZ
    Blend: AUG-CC-PVTZ
  Basis Set: (AUG-CC-PVTZ AUX)
    Blend: AUG-CC-PVTZ-JKFIT
	 Reference Energy          =    -270.1272839201973284 [Eh]
	 Singles Energy            =      -0.0000000000000000 [Eh]
	 Same-Spin Energy          =      -0.2729300001646938 [Eh]
	 Opposite-Spin Energy      =      -0.9468144400411296 [Eh]
	 Correlation Energy        =      -1.2197444402058233 [Eh]
	 Total Energy              =    -271.3470283604031579 [Eh]

	 ================> DF-SCS-MP2 Energies <==================
	-----------------------------------------------------------
	 SCS Same-Spin Scale       =       0.3333333333333333 [-]
	 SCS Opposite-Spin Scale   =       1.2000000000000000 [-]
	 SCS Same-Spin Energy      =      -0.0909766667215646 [Eh]
	 SCS Opposite-Spin Energy  =      -1.1361773280493555 [Eh]
	 SCS Correlation Energy    =      -1.2271539947709200 [Eh]
	 SCS Total Energy          =    -271.3544379149682300 [Eh]
	-----------------------------------------------------------

  Dipole Moment: [D]
     X:    -0.4000      Y:    -2.6693      Z:    -0.0000     Total:     2.6991

*** Psi4 exiting successfully. Buy a developer a beer!
