                               Psi4 1.3.2 release

  ==> Input File <==

--------------------------------------------------------------------------
#psi4
#
memory 32 gb

molecule  {
0 1
  O        0.0000000     1.2846030    -0.0000340
  C       -1.2792230    -0.7623321    -0.0001740
  C        1.2933030    -0.7398820     0.0001460
  C        0.0000000     0.0555960    -0.0000230
  C       -2.5345840     0.1407430     0.0001160
  C        2.5345840     0.1407430    -0.0000420
  H       -1.2807360    -1.4061910     0.8728000
  H       -1.2807880    -1.4056370    -0.8735800
  H        1.2807720    -1.4061280    -0.8728800
  H        1.2807530    -1.4057000     0.8735000
  H       -3.4404540    -0.4711510     0.0003790
  H       -2.5493440     0.7863420     0.8803370
  H       -2.5498290     0.7862720    -0.8801480
  H        2.5497870     0.7862280     0.8802560
  H        2.5493860     0.7863860    -0.8802290
  H        3.4404540    -0.4711510    -0.0002890
units angstrom
no_reorient  #important for SAPT in psi4, default
symmetry c1  #important for SAPT in psi4, default
}

set PROPERTIES_ORIGIN ["COM"]
properties('MP2/aug-cc-pvtz', properties = ['dipole'])
--------------------------------------------------------------------------

    Molecular point group: c1
  Charge       = 0
  Multiplicity = 1
  Basis Set: AUG-CC-PVTZ
    Blend: AUG-CC-PVTZ
  Basis Set: (AUG-CC-PVTZ AUX)
    Blend: AUG-CC-PVTZ-JKFIT

    Orbital Energies [Eh]
    ---------------------

    Doubly Occupied:

       1A    -20.543801     2A    -11.328516     3A    -11.239158
       4A    -11.238678     5A    -11.217182     6A    -11.215836
       7A     -1.374343     8A     -1.069244     9A     -1.034186
      10A     -0.914733    11A     -0.843958    12A     -0.727574
      13A     -0.663683    14A     -0.647311    15A     -0.612710
      16A     -0.607260    17A     -0.557789    18A     -0.520763
      19A     -0.520583    20A     -0.509981    21A     -0.500356
      22A     -0.493709    23A     -0.481046    24A     -0.408527

  @DF-RHF Final Energy:  -270.13006085229478

   => Energetics <=

    Nuclear Repulsion Energy =            238.8086922991528809
    One-Electron Energy =                -839.3356505174124322
    Two-Electron Energy =                 330.3968973659647759
    Total Energy =                       -270.1300608522947755
  Basis Set: (AUG-CC-PVTZ AUX)
    Blend: AUG-CC-PVTZ-RI
    Molecular point group: c1

    Geometry (in Angstrom), charge = 0, multiplicity = 1:

       Center              X                  Y                   Z               Mass
    ------------   -----------------  -----------------  -----------------  -----------------
         O           -0.001962992855     1.248377623779    -0.000032597883    15.994914619570
         C           -1.281185992855    -0.798557476221    -0.000172597883    12.000000000000
         C            1.291340007145    -0.776107376221     0.000147402117    12.000000000000
         C           -0.001962992855     0.019370623779    -0.000021597883    12.000000000000
         C           -2.536546992855     0.104517623779     0.000117402117    12.000000000000
         C            2.532621007145     0.104517623779    -0.000040597883    12.000000000000
         H           -1.282698992855    -1.442416376221     0.872801402117     1.007825032230
         H           -1.282750992855    -1.441862376221    -0.873578597883     1.007825032230
         H            1.278809007145    -1.442353376221    -0.872878597883     1.007825032230
         H            1.278790007145    -1.441925376221     0.873501402117     1.007825032230
         H           -3.442416992855    -0.507376376221     0.000380402117     1.007825032230
         H           -2.551306992855     0.750116623779     0.880338402117     1.007825032230
         H           -2.551791992855     0.750046623779    -0.880146597883     1.007825032230
         H            2.547824007145     0.750002623779     0.880257402117     1.007825032230
         H            2.547423007145     0.750160623779    -0.880227597883     1.007825032230
         H            3.438491007145    -0.507376376221    -0.000287597883     1.007825032230

  Basis Set: AUG-CC-PVTZ
    Blend: AUG-CC-PVTZ
  Basis Set: (AUG-CC-PVTZ AUX)
    Blend: AUG-CC-PVTZ-JKFIT
	 Reference Energy          =    -270.1300608522947755 [Eh]
	 Singles Energy            =      -0.0000000000000000 [Eh]
	 Same-Spin Energy          =      -0.2726692880790775 [Eh]
	 Opposite-Spin Energy      =      -0.9464899666449289 [Eh]
	 Correlation Energy        =      -1.2191592547240064 [Eh]
	 Total Energy              =    -271.3492201070187662 [Eh]

	 ================> DF-SCS-MP2 Energies <==================
	-----------------------------------------------------------
	 SCS Same-Spin Scale       =       0.3333333333333333 [-]
	 SCS Opposite-Spin Scale   =       1.2000000000000000 [-]
	 SCS Same-Spin Energy      =      -0.0908897626930258 [Eh]
	 SCS Opposite-Spin Energy  =      -1.1357879599739147 [Eh]
	 SCS Correlation Energy    =      -1.2266777226669405 [Eh]
	 SCS Total Energy          =    -271.3567385749616960 [Eh]
	-----------------------------------------------------------

  Dipole Moment: [D]
     X:     0.0039      Y:    -2.6902      Z:     0.0000     Total:     2.6902

*** Psi4 exiting successfully. Buy a developer a beer!
