                               Psi4 1.4a3.dev225

  ==> Input File <==

--------------------------------------------------------------------------
#psi4
#
memory 32 gb

molecule  {
0 1
  O        0.0000000     1.2846080    -0.0000020
  C       -1.2933020    -0.7398800     0.0000010
  C        1.2933020    -0.7398800    -0.0000030
  C        0.0000000     0.0756000    -0.0000010
  C       -2.5345880     0.1407340     0.0000020
  C        2.5345890     0.1407340     0.0000030
  H       -1.2807520    -1.4059020     0.8731990
  H       -1.2807540    -1.4059020    -0.8731970
  H        1.2807540    -1.4058970    -0.8732050
  H        1.2807510    -1.4059060     0.8731910
  H       -3.4404600    -0.4711580     0.0000060
  H       -2.5496050     0.7863060     0.8802420
  H       -2.5496100     0.7863010    -0.8802430
  H        2.5496080     0.7862970     0.8802510
  H        2.5496070     0.7863100    -0.8802340
  H        3.4404600    -0.4711580    -0.0000010
units angstrom
no_reorient  #important for SAPT in psi4, default
symmetry c1  #important for SAPT in psi4, default
}

set PROPERTIES_ORIGIN ["COM"]
properties('MP2/aug-cc-pvtz', properties = ['dipole'])
--------------------------------------------------------------------------

    Molecular point group: c1
  Charge       = 0
  Multiplicity = 1
  Basis Set: AUG-CC-PVTZ
    Blend: AUG-CC-PVTZ
  Basis Set: (AUG-CC-PVTZ AUX)
    Blend: AUG-CC-PVTZ-JKFIT

    Orbital Energies [Eh]
    ---------------------

    Doubly Occupied:

       1A    -20.544706     2A    -11.326523     3A    -11.238728
       4A    -11.238706     5A    -11.215641     6A    -11.215640
       7A     -1.387888     8A     -1.067057     9A     -1.035196
      10A     -0.912659    11A     -0.841082    12A     -0.726968
      13A     -0.666052    14A     -0.645089    15A     -0.616561
      16A     -0.605711    17A     -0.559747    18A     -0.521842
      19A     -0.521557    20A     -0.510684    21A     -0.505147
      22A     -0.489825    23A     -0.485877    24A     -0.404575

  @DF-RHF Final Energy:  -270.13213246560628

   => Energetics <=

    Nuclear Repulsion Energy =            239.0998354457503297
    One-Electron Energy =                -839.8970151535509103
    Two-Electron Energy =                 330.6650472421942482
    Total Energy =                       -270.1321324656062757
  Basis Set: (AUG-CC-PVTZ AUX)
    Blend: AUG-CC-PVTZ-RI
    Molecular point group: c1

    Geometry (in Angstrom), charge = 0, multiplicity = 1:

       Center              X                  Y                   Z               Mass
    ------------   -----------------  -----------------  -----------------  -----------------
         O           -0.000000127707     1.242464608109    -0.000002012554    15.994914619570
         C           -1.293302127707    -0.782023391891     0.000000987446    12.000000000000
         C            1.293301872293    -0.782023391891    -0.000003012554    12.000000000000
         C           -0.000000127707     0.033456608109    -0.000001012554    12.000000000000
         C           -2.534588127707     0.098590608109     0.000001987446    12.000000000000
         C            2.534588872293     0.098590608109     0.000002987446    12.000000000000
         H           -1.280752127707    -1.448045391891     0.873198987446     1.007825032230
         H           -1.280754127707    -1.448045391891    -0.873197012554     1.007825032230
         H            1.280753872293    -1.448040391891    -0.873205012554     1.007825032230
         H            1.280750872293    -1.448049391891     0.873190987446     1.007825032230
         H           -3.440460127707    -0.513301391891     0.000005987446     1.007825032230
         H           -2.549605127707     0.744162608109     0.880241987446     1.007825032230
         H           -2.549610127707     0.744157608109    -0.880243012554     1.007825032230
         H            2.549607872293     0.744153608109     0.880250987446     1.007825032230
         H            2.549606872293     0.744166608109    -0.880234012554     1.007825032230
         H            3.440459872293    -0.513301391891    -0.000001012554     1.007825032230

  Basis Set: AUG-CC-PVTZ
    Blend: AUG-CC-PVTZ
  Basis Set: (AUG-CC-PVTZ AUX)
    Blend: AUG-CC-PVTZ-JKFIT
	 Reference Energy          =    -270.1321324656062757 [Eh]
	 Singles Energy            =      -0.0000000000000000 [Eh]
	 Same-Spin Energy          =      -0.2722169950323686 [Eh]
	 Opposite-Spin Energy      =      -0.9453900617830271 [Eh]
	 Correlation Energy        =      -1.2176070568153956 [Eh]
	 Total Energy              =    -271.3497395224216575 [Eh]

	 ================> DF-SCS-MP2 Energies <==================
	-----------------------------------------------------------
	 SCS Same-Spin Scale       =       0.3333333333333333 [-]
	 SCS Opposite-Spin Scale   =       1.2000000000000000 [-]
	 SCS Same-Spin Energy      =      -0.0907389983441229 [Eh]
	 SCS Opposite-Spin Energy  =      -1.1344680741396325 [Eh]
	 SCS Correlation Energy    =      -1.2252070724837554 [Eh]
	 SCS Total Energy          =    -271.3573395380900592 [Eh]
	-----------------------------------------------------------

  Dipole Moment: [D]
     X:    -0.0000      Y:    -2.6073      Z:     0.0000     Total:     2.6073

*** Psi4 exiting successfully. Buy a developer a beer!
