                               Psi4 1.3.2 release

  ==> Input File <==

--------------------------------------------------------------------------
#psi4
#
memory 32 gb

molecule  {
0 1
  O        0.0000000     1.2846030    -0.0000340
  C       -1.2933030    -0.7398820    -0.0001760
  C        1.2933030    -0.7398820     0.0001460
  C        0.0586402     0.1438745    -0.0000418
  C       -2.5345840     0.1407430     0.0001160
  C        2.5345840     0.1407430    -0.0000420
  H       -1.2807360    -1.4061910     0.8728000
  H       -1.2807880    -1.4056370    -0.8735800
  H        1.2807720    -1.4061280    -0.8728800
  H        1.2807530    -1.4057000     0.8735000
  H       -3.4404540    -0.4711510     0.0003790
  H       -2.5493440     0.7863420     0.8803370
  H       -2.5498290     0.7862720    -0.8801480
  H        2.5497870     0.7862280     0.8802560
  H        2.5493860     0.7863860    -0.8802290
  H        3.4404540    -0.4711510    -0.0002890
units angstrom
no_reorient  #important for SAPT in psi4, default
symmetry c1  #important for SAPT in psi4, default
}

set PROPERTIES_ORIGIN ["COM"]
properties('MP2/aug-cc-pvtz', properties = ['dipole'])
--------------------------------------------------------------------------

    Molecular point group: c1
  Charge       = 0
  Multiplicity = 1
  Basis Set: AUG-CC-PVTZ
    Blend: AUG-CC-PVTZ
  Basis Set: (AUG-CC-PVTZ AUX)
    Blend: AUG-CC-PVTZ-JKFIT

    Orbital Energies [Eh]
    ---------------------

    Doubly Occupied:

       1A    -20.551189     2A    -11.321643     3A    -11.237524
       4A    -11.231048     5A    -11.216366     6A    -11.211066
       7A     -1.438108     8A     -1.062445     9A     -1.027521
      10A     -0.904103    11A     -0.833189    12A     -0.731107
      13A     -0.675411    14A     -0.645446    15A     -0.630894
      16A     -0.601765    17A     -0.555369    18A     -0.538008
      19A     -0.526780    20A     -0.514627    21A     -0.503075
      22A     -0.499194    23A     -0.485806    24A     -0.384920

  @DF-RHF Final Energy:  -270.12275744643796

   => Energetics <=

    Nuclear Repulsion Energy =            239.6572026835458473
    One-Electron Energy =                -840.9067105041236800
    Two-Electron Energy =                 331.1267503741398741
    Total Energy =                       -270.1227574464379586
  Basis Set: (AUG-CC-PVTZ AUX)
    Blend: AUG-CC-PVTZ-RI
    Molecular point group: c1

    Geometry (in Angstrom), charge = 0, multiplicity = 1:

       Center              X                  Y                   Z               Mass
    ------------   -----------------  -----------------  -----------------  -----------------
         O           -0.008175409935     1.232940254874    -0.000029698025    15.994914619570
         C           -1.301478409935    -0.791544745126    -0.000171698025    12.000000000000
         C            1.285127590065    -0.791544745126     0.000150301975    12.000000000000
         C            0.050464790065     0.092211754874    -0.000037498025    12.000000000000
         C           -2.542759409935     0.089080254874     0.000120301975    12.000000000000
         C            2.526408590065     0.089080254874    -0.000037698025    12.000000000000
         H           -1.288911409935    -1.457853745126     0.872804301975     1.007825032230
         H           -1.288963409935    -1.457299745126    -0.873575698025     1.007825032230
         H            1.272596590065    -1.457790745126    -0.872875698025     1.007825032230
         H            1.272577590065    -1.457362745126     0.873504301975     1.007825032230
         H           -3.448629409935    -0.522813745126     0.000383301975     1.007825032230
         H           -2.557519409935     0.734679254874     0.880341301975     1.007825032230
         H           -2.558004409935     0.734609254874    -0.880143698025     1.007825032230
         H            2.541611590065     0.734565254874     0.880260301975     1.007825032230
         H            2.541210590065     0.734723254874    -0.880224698025     1.007825032230
         H            3.432278590065    -0.522813745126    -0.000284698025     1.007825032230

  Basis Set: AUG-CC-PVTZ
    Blend: AUG-CC-PVTZ
  Basis Set: (AUG-CC-PVTZ AUX)
    Blend: AUG-CC-PVTZ-JKFIT
	 Reference Energy          =    -270.1227574464379586 [Eh]
	 Singles Energy            =      -0.0000000000000000 [Eh]
	 Same-Spin Energy          =      -0.2707519788997835 [Eh]
	 Opposite-Spin Energy      =      -0.9423791895986500 [Eh]
	 Correlation Energy        =      -1.2131311684984334 [Eh]
	 Total Energy              =    -271.3358886149363798 [Eh]

	 ================> DF-SCS-MP2 Energies <==================
	-----------------------------------------------------------
	 SCS Same-Spin Scale       =       0.3333333333333333 [-]
	 SCS Opposite-Spin Scale   =       1.2000000000000000 [-]
	 SCS Same-Spin Energy      =      -0.0902506596332611 [Eh]
	 SCS Opposite-Spin Energy  =      -1.1308550275183800 [Eh]
	 SCS Correlation Energy    =      -1.2211056871516410 [Eh]
	 SCS Total Energy          =    -271.3438631335895934 [Eh]
	-----------------------------------------------------------

  Dipole Moment: [D]
     X:     0.3516      Y:    -2.2811      Z:     0.0000     Total:     2.3081

*** Psi4 exiting successfully. Buy a developer a beer!
