                               Psi4 1.3.2 release

  ==> Input File <==

--------------------------------------------------------------------------
#psi4
#
memory 32 gb

molecule  {
0 1
  O        0.0000000     1.2846030    -0.0000340
  C       -1.2933030    -0.7398820    -0.0001760
  C        1.2933030    -0.7398820     0.0001460
  C       -0.0136860     0.0329036    -0.0000182
  C       -2.5345840     0.1407430     0.0001160
  C        2.5345840     0.1407430    -0.0000420
  H       -1.2807360    -1.4061910     0.8728000
  H       -1.2807880    -1.4056370    -0.8735800
  H        1.2807720    -1.4061280    -0.8728800
  H        1.2807530    -1.4057000     0.8735000
  H       -3.4404540    -0.4711510     0.0003790
  H       -2.5493440     0.7863420     0.8803370
  H       -2.5498290     0.7862720    -0.8801480
  H        2.5497870     0.7862280     0.8802560
  H        2.5493860     0.7863860    -0.8802290
  H        3.4404540    -0.4711510    -0.0002890
units angstrom
no_reorient  #important for SAPT in psi4, default
symmetry c1  #important for SAPT in psi4, default
}

set PROPERTIES_ORIGIN ["COM"]
properties('MP2/aug-cc-pvtz', properties = ['dipole'])
--------------------------------------------------------------------------

    Molecular point group: c1
  Charge       = 0
  Multiplicity = 1
  Basis Set: AUG-CC-PVTZ
    Blend: AUG-CC-PVTZ
  Basis Set: (AUG-CC-PVTZ AUX)
    Blend: AUG-CC-PVTZ-JKFIT

    Orbital Energies [Eh]
    ---------------------

    Doubly Occupied:

       1A    -20.540906     2A    -11.330111     3A    -11.241293
       4A    -11.240851     5A    -11.217380     6A    -11.216369
       7A     -1.359171     8A     -1.072785     9A     -1.038247
      10A     -0.918389    11A     -0.845747    12A     -0.725818
      13A     -0.662505    14A     -0.646977    15A     -0.607683
      16A     -0.607605    17A     -0.561748    18A     -0.519987
      19A     -0.519265    20A     -0.507606    21A     -0.506016
      22A     -0.491529    23A     -0.471675    24A     -0.412357

  @DF-RHF Final Energy:  -270.12706815422882

   => Energetics <=

    Nuclear Repulsion Energy =            238.8121132082129918
    One-Electron Energy =                -839.3543207389005829
    Two-Electron Energy =                 330.4151393764587965
    Total Energy =                       -270.1270681542288230
  Basis Set: (AUG-CC-PVTZ AUX)
    Blend: AUG-CC-PVTZ-RI
    Molecular point group: c1

    Geometry (in Angstrom), charge = 0, multiplicity = 1:

       Center              X                  Y                   Z               Mass
    ------------   -----------------  -----------------  -----------------  -----------------
         O            0.001908039425     1.248411404342    -0.000032988249    15.994914619570
         C           -1.291394960575    -0.776073595658    -0.000174988249    12.000000000000
         C            1.295211039425    -0.776073595658     0.000147011751    12.000000000000
         C           -0.011777960575    -0.003287995658    -0.000017188249    12.000000000000
         C           -2.532675960575     0.104551404342     0.000117011751    12.000000000000
         C            2.536492039425     0.104551404342    -0.000040988249    12.000000000000
         H           -1.278827960575    -1.442382595658     0.872801011751     1.007825032230
         H           -1.278879960575    -1.441828595658    -0.873578988249     1.007825032230
         H            1.282680039425    -1.442319595658    -0.872878988249     1.007825032230
         H            1.282661039425    -1.441891595658     0.873501011751     1.007825032230
         H           -3.438545960575    -0.507342595658     0.000380011751     1.007825032230
         H           -2.547435960575     0.750150404342     0.880338011751     1.007825032230
         H           -2.547920960575     0.750080404342    -0.880146988249     1.007825032230
         H            2.551695039425     0.750036404342     0.880257011751     1.007825032230
         H            2.551294039425     0.750194404342    -0.880227988249     1.007825032230
         H            3.442362039425    -0.507342595658    -0.000287988249     1.007825032230

  Basis Set: AUG-CC-PVTZ
    Blend: AUG-CC-PVTZ
  Basis Set: (AUG-CC-PVTZ AUX)
    Blend: AUG-CC-PVTZ-JKFIT
	 Reference Energy          =    -270.1270681542288230 [Eh]
	 Singles Energy            =      -0.0000000000000000 [Eh]
	 Same-Spin Energy          =      -0.2734923631903732 [Eh]
	 Opposite-Spin Energy      =      -0.9479236255029622 [Eh]
	 Correlation Energy        =      -1.2214159886933353 [Eh]
	 Total Energy              =    -271.3484841429221319 [Eh]

	 ================> DF-SCS-MP2 Energies <==================
	-----------------------------------------------------------
	 SCS Same-Spin Scale       =       0.3333333333333333 [-]
	 SCS Opposite-Spin Scale   =       1.2000000000000000 [-]
	 SCS Same-Spin Energy      =      -0.0911641210634577 [Eh]
	 SCS Opposite-Spin Energy  =      -1.1375083506035546 [Eh]
	 SCS Correlation Energy    =      -1.2286724716670123 [Eh]
	 SCS Total Energy          =    -271.3557406258958622 [Eh]
	-----------------------------------------------------------

  Dipole Moment: [D]
     X:    -0.0681      Y:    -2.7781      Z:     0.0000     Total:     2.7789

*** Psi4 exiting successfully. Buy a developer a beer!
