                               Psi4 1.3.2 release

  ==> Input File <==

--------------------------------------------------------------------------
#psi4
#
memory 32 gb

molecule  {
0 1
  O        0.0000000     1.2846030    -0.0000340
  C       -1.3202769    -0.6942618    -0.0001798
  C        1.2933030    -0.7398820     0.0001460
  C        0.0000000     0.0555960    -0.0000230
  C       -2.5345840     0.1407430     0.0001160
  C        2.5345840     0.1407430    -0.0000420
  H       -1.2807360    -1.4061910     0.8728000
  H       -1.2807880    -1.4056370    -0.8735800
  H        1.2807720    -1.4061280    -0.8728800
  H        1.2807530    -1.4057000     0.8735000
  H       -3.4404540    -0.4711510     0.0003790
  H       -2.5493440     0.7863420     0.8803370
  H       -2.5498290     0.7862720    -0.8801480
  H        2.5497870     0.7862280     0.8802560
  H        2.5493860     0.7863860    -0.8802290
  H        3.4404540    -0.4711510    -0.0002890
units angstrom
no_reorient  #important for SAPT in psi4, default
symmetry c1  #important for SAPT in psi4, default
}

set PROPERTIES_ORIGIN ["COM"]
properties('MP2/aug-cc-pvtz', properties = ['dipole'])
--------------------------------------------------------------------------

    Molecular point group: c1
  Charge       = 0
  Multiplicity = 1
  Basis Set: AUG-CC-PVTZ
    Blend: AUG-CC-PVTZ
  Basis Set: (AUG-CC-PVTZ AUX)
    Blend: AUG-CC-PVTZ-JKFIT

    Orbital Energies [Eh]
    ---------------------

    Doubly Occupied:

       1A    -20.541225     2A    -11.327782     3A    -11.242723
       4A    -11.241276     5A    -11.216987     6A    -11.214291
       7A     -1.373848     8A     -1.071305     9A     -1.041955
      10A     -0.916518    11A     -0.841905    12A     -0.723879
      13A     -0.665373    14A     -0.643786    15A     -0.612060
      16A     -0.605948    17A     -0.568216    18A     -0.520526
      19A     -0.519601    20A     -0.514656    21A     -0.507092
      22A     -0.486696    23A     -0.472986    24A     -0.408332

  @DF-RHF Final Energy:  -270.12715461245170

   => Energetics <=

    Nuclear Repulsion Energy =            239.2812710057991410
    One-Electron Energy =                -840.2589254474511336
    Two-Electron Energy =                 330.8504998292003165
    Total Energy =                       -270.1271546124517045
  Basis Set: (AUG-CC-PVTZ AUX)
    Blend: AUG-CC-PVTZ-RI
    Molecular point group: c1

    Geometry (in Angstrom), charge = 0, multiplicity = 1:

       Center              X                  Y                   Z               Mass
    ------------   -----------------  -----------------  -----------------  -----------------
         O            0.003760588941     1.238887516142    -0.000031789269    15.994914619570
         C           -1.316516311059    -0.739977283858    -0.000177589269    12.000000000000
         C            1.297063588941    -0.785597483858     0.000148210731    12.000000000000
         C            0.003760588941     0.009880516142    -0.000020789269    12.000000000000
         C           -2.530823411059     0.095027516142     0.000118210731    12.000000000000
         C            2.538344588941     0.095027516142    -0.000039789269    12.000000000000
         H           -1.276975411059    -1.451906483858     0.872802210731     1.007825032230
         H           -1.277027411059    -1.451352483858    -0.873577789269     1.007825032230
         H            1.284532588941    -1.451843483858    -0.872877789269     1.007825032230
         H            1.284513588941    -1.451415483858     0.873502210731     1.007825032230
         H           -3.436693411059    -0.516866483858     0.000381210731     1.007825032230
         H           -2.545583411059     0.740626516142     0.880339210731     1.007825032230
         H           -2.546068411059     0.740556516142    -0.880145789269     1.007825032230
         H            2.553547588941     0.740512516142     0.880258210731     1.007825032230
         H            2.553146588941     0.740670516142    -0.880226789269     1.007825032230
         H            3.444214588941    -0.516866483858    -0.000286789269     1.007825032230

  Basis Set: AUG-CC-PVTZ
    Blend: AUG-CC-PVTZ
  Basis Set: (AUG-CC-PVTZ AUX)
    Blend: AUG-CC-PVTZ-JKFIT
	 Reference Energy          =    -270.1271546124517045 [Eh]
	 Singles Energy            =      -0.0000000000000000 [Eh]
	 Same-Spin Energy          =      -0.2731739457492433 [Eh]
	 Opposite-Spin Energy      =      -0.9469242719404304 [Eh]
	 Correlation Energy        =      -1.2200982176896735 [Eh]
	 Total Energy              =    -271.3472528301413718 [Eh]

	 ================> DF-SCS-MP2 Energies <==================
	-----------------------------------------------------------
	 SCS Same-Spin Scale       =       0.3333333333333333 [-]
	 SCS Opposite-Spin Scale   =       1.2000000000000000 [-]
	 SCS Same-Spin Energy      =      -0.0910579819164144 [Eh]
	 SCS Opposite-Spin Energy  =      -1.1363091263285163 [Eh]
	 SCS Correlation Energy    =      -1.2273671082449307 [Eh]
	 SCS Total Energy          =    -271.3545217206966527 [Eh]
	-----------------------------------------------------------

  Dipole Moment: [D]
     X:    -0.0116      Y:    -2.6844      Z:     0.0000     Total:     2.6844

*** Psi4 exiting successfully. Buy a developer a beer!
