                               Psi4 1.3.2 release

  ==> Input File <==

--------------------------------------------------------------------------
#psi4
#
memory 32 gb

molecule  {
0 1
  O        0.0857312     1.2816092    -0.0000232
  C       -1.2933030    -0.7398820    -0.0001760
  C        1.2933030    -0.7398820     0.0001460
  C        0.0000000     0.0555960    -0.0000230
  C       -2.5345840     0.1407430     0.0001160
  C        2.5345840     0.1407430    -0.0000420
  H       -1.2807360    -1.4061910     0.8728000
  H       -1.2807880    -1.4056370    -0.8735800
  H        1.2807720    -1.4061280    -0.8728800
  H        1.2807530    -1.4057000     0.8735000
  H       -3.4404540    -0.4711510     0.0003790
  H       -2.5493440     0.7863420     0.8803370
  H       -2.5498290     0.7862720    -0.8801480
  H        2.5497870     0.7862280     0.8802560
  H        2.5493860     0.7863860    -0.8802290
  H        3.4404540    -0.4711510    -0.0002890
units angstrom
no_reorient  #important for SAPT in psi4, default
symmetry c1  #important for SAPT in psi4, default
}

set PROPERTIES_ORIGIN ["COM"]
properties('MP2/aug-cc-pvtz', properties = ['dipole'])
--------------------------------------------------------------------------

    Molecular point group: c1
  Charge       = 0
  Multiplicity = 1
  Basis Set: AUG-CC-PVTZ
    Blend: AUG-CC-PVTZ
  Basis Set: (AUG-CC-PVTZ AUX)
    Blend: AUG-CC-PVTZ-JKFIT

    Orbital Energies [Eh]
    ---------------------

    Doubly Occupied:

       1A    -20.542788     2A    -11.328197     3A    -11.243936
       4A    -11.235740     5A    -11.219025     6A    -11.213280
       7A     -1.374362     8A     -1.069936     9A     -1.036169
      10A     -0.915460    11A     -0.843152    12A     -0.726286
      13A     -0.664329    14A     -0.646024    15A     -0.612461
      16A     -0.606531    17A     -0.561174    18A     -0.521260
      19A     -0.520232    20A     -0.508743    21A     -0.504799
      22A     -0.490536    23A     -0.479394    24A     -0.407986

  @DF-RHF Final Energy:  -270.12913218082400

   => Energetics <=

    Nuclear Repulsion Energy =            239.0123140796645487
    One-Electron Energy =                -839.7392926499137502
    Two-Electron Energy =                 330.5978463894252286
    Total Energy =                       -270.1291321808240014
  Basis Set: (AUG-CC-PVTZ AUX)
    Blend: AUG-CC-PVTZ-RI
    Molecular point group: c1

    Geometry (in Angstrom), charge = 0, multiplicity = 1:

       Center              X                  Y                   Z               Mass
    ------------   -----------------  -----------------  -----------------  -----------------
         O            0.069799820772     1.242810250183    -0.000023526007    15.994914619570
         C           -1.309234379228    -0.778680949817    -0.000176326007    12.000000000000
         C            1.277371620772    -0.778680949817     0.000145673993    12.000000000000
         C           -0.015931379228     0.016797050183    -0.000023326007    12.000000000000
         C           -2.550515379228     0.101944050183     0.000115673993    12.000000000000
         C            2.518652620772     0.101944050183    -0.000042326007    12.000000000000
         H           -1.296667379228    -1.444989949817     0.872799673993     1.007825032230
         H           -1.296719379228    -1.444435949817    -0.873580326007     1.007825032230
         H            1.264840620772    -1.444926949817    -0.872880326007     1.007825032230
         H            1.264821620772    -1.444498949817     0.873499673993     1.007825032230
         H           -3.456385379228    -0.509949949817     0.000378673993     1.007825032230
         H           -2.565275379228     0.747543050183     0.880336673993     1.007825032230
         H           -2.565760379228     0.747473050183    -0.880148326007     1.007825032230
         H            2.533855620772     0.747429050183     0.880255673993     1.007825032230
         H            2.533454620772     0.747587050183    -0.880229326007     1.007825032230
         H            3.424522620772    -0.509949949817    -0.000289326007     1.007825032230

  Basis Set: AUG-CC-PVTZ
    Blend: AUG-CC-PVTZ
  Basis Set: (AUG-CC-PVTZ AUX)
    Blend: AUG-CC-PVTZ-JKFIT
	 Reference Energy          =    -270.1291321808240014 [Eh]
	 Singles Energy            =      -0.0000000000000000 [Eh]
	 Same-Spin Energy          =      -0.2728507219546233 [Eh]
	 Opposite-Spin Energy      =      -0.9466568187641582 [Eh]
	 Correlation Energy        =      -1.2195075407187814 [Eh]
	 Total Energy              =    -271.3486397215427814 [Eh]

	 ================> DF-SCS-MP2 Energies <==================
	-----------------------------------------------------------
	 SCS Same-Spin Scale       =       0.3333333333333333 [-]
	 SCS Opposite-Spin Scale   =       1.2000000000000000 [-]
	 SCS Same-Spin Energy      =      -0.0909502406515411 [Eh]
	 SCS Opposite-Spin Energy  =      -1.1359881825169897 [Eh]
	 SCS Correlation Energy    =      -1.2269384231685307 [Eh]
	 SCS Total Energy          =    -271.3560706039925208 [Eh]
	-----------------------------------------------------------

  Dipole Moment: [D]
     X:    -0.2669      Y:    -2.6809      Z:    -0.0000     Total:     2.6942

*** Psi4 exiting successfully. Buy a developer a beer!
