                               Psi4 1.3.2 release

  ==> Input File <==

--------------------------------------------------------------------------
#psi4
#
memory 32 gb

molecule  {
0 1
  O        0.0000000     1.2846030    -0.0000340
  C       -1.2933030    -0.7398820    -0.0001760
  C        1.2933030    -0.7398820     0.0001460
  C       -0.0851776     0.1079866    -0.0000341
  C       -2.5345840     0.1407430     0.0001160
  C        2.5345840     0.1407430    -0.0000420
  H       -1.2807360    -1.4061910     0.8728000
  H       -1.2807880    -1.4056370    -0.8735800
  H        1.2807720    -1.4061280    -0.8728800
  H        1.2807530    -1.4057000     0.8735000
  H       -3.4404540    -0.4711510     0.0003790
  H       -2.5493440     0.7863420     0.8803370
  H       -2.5498290     0.7862720    -0.8801480
  H        2.5497870     0.7862280     0.8802560
  H        2.5493860     0.7863860    -0.8802290
  H        3.4404540    -0.4711510    -0.0002890
units angstrom
no_reorient  #important for SAPT in psi4, default
symmetry c1  #important for SAPT in psi4, default
}

set PROPERTIES_ORIGIN ["COM"]
properties('MP2/aug-cc-pvtz', properties = ['dipole'])
--------------------------------------------------------------------------

    Molecular point group: c1
  Charge       = 0
  Multiplicity = 1
  Basis Set: AUG-CC-PVTZ
    Blend: AUG-CC-PVTZ
  Basis Set: (AUG-CC-PVTZ AUX)
    Blend: AUG-CC-PVTZ-JKFIT

    Orbital Energies [Eh]
    ---------------------

    Doubly Occupied:

       1A    -20.548086     2A    -11.324980     3A    -11.239998
       4A    -11.233007     5A    -11.218370     6A    -11.211225
       7A     -1.409519     8A     -1.071004     9A     -1.027774
      10A     -0.910252    11A     -0.835860    12A     -0.730100
      13A     -0.669647    14A     -0.646620    15A     -0.623437
      16A     -0.602651    17A     -0.557902    18A     -0.527496
      19A     -0.525106    20A     -0.512812    21A     -0.503452
      22A     -0.495040    23A     -0.486199    24A     -0.392344

  @DF-RHF Final Energy:  -270.12477327393083

   => Energetics <=

    Nuclear Repulsion Energy =            239.3549619460112297
    One-Electron Energy =                -840.3537087311265168
    Two-Electron Energy =                 330.8739735111844311
    Total Energy =                       -270.1247732739308276
  Basis Set: (AUG-CC-PVTZ AUX)
    Blend: AUG-CC-PVTZ-RI
    Molecular point group: c1

    Geometry (in Angstrom), charge = 0, multiplicity = 1:

       Center              X                  Y                   Z               Mass
    ------------   -----------------  -----------------  -----------------  -----------------
         O            0.011875131963     1.237943612196    -0.000030771530    15.994914619570
         C           -1.281427868037    -0.786541387804    -0.000172771530    12.000000000000
         C            1.305178131963    -0.786541387804     0.000149228470    12.000000000000
         C           -0.073302468037     0.061327212196    -0.000030871530    12.000000000000
         C           -2.522708868037     0.094083612196     0.000119228470    12.000000000000
         C            2.546459131963     0.094083612196    -0.000038771530    12.000000000000
         H           -1.268860868037    -1.452850387804     0.872803228470     1.007825032230
         H           -1.268912868037    -1.452296387804    -0.873576771530     1.007825032230
         H            1.292647131963    -1.452787387804    -0.872876771530     1.007825032230
         H            1.292628131963    -1.452359387804     0.873503228470     1.007825032230
         H           -3.428578868037    -0.517810387804     0.000382228470     1.007825032230
         H           -2.537468868037     0.739682612196     0.880340228470     1.007825032230
         H           -2.537953868037     0.739612612196    -0.880144771530     1.007825032230
         H            2.561662131963     0.739568612196     0.880259228470     1.007825032230
         H            2.561261131963     0.739726612196    -0.880225771530     1.007825032230
         H            3.452329131963    -0.517810387804    -0.000285771530     1.007825032230

  Basis Set: AUG-CC-PVTZ
    Blend: AUG-CC-PVTZ
  Basis Set: (AUG-CC-PVTZ AUX)
    Blend: AUG-CC-PVTZ-JKFIT
	 Reference Energy          =    -270.1247732739308276 [Eh]
	 Singles Energy            =      -0.0000000000000000 [Eh]
	 Same-Spin Energy          =      -0.2717995575742492 [Eh]
	 Opposite-Spin Energy      =      -0.9444928408864846 [Eh]
	 Correlation Energy        =      -1.2162923984607337 [Eh]
	 Total Energy              =    -271.3410656723915508 [Eh]

	 ================> DF-SCS-MP2 Energies <==================
	-----------------------------------------------------------
	 SCS Same-Spin Scale       =       0.3333333333333333 [-]
	 SCS Opposite-Spin Scale   =       1.2000000000000000 [-]
	 SCS Same-Spin Energy      =      -0.0905998525247497 [Eh]
	 SCS Opposite-Spin Energy  =      -1.1333914090637813 [Eh]
	 SCS Correlation Energy    =      -1.2239912615885311 [Eh]
	 SCS Total Energy          =    -271.3487645355193649 [Eh]
	-----------------------------------------------------------

  Dipole Moment: [D]
     X:    -0.4776      Y:    -2.4595      Z:    -0.0001     Total:     2.5054

*** Psi4 exiting successfully. Buy a developer a beer!
