                               Psi4 1.3.2 release

  ==> Input File <==

--------------------------------------------------------------------------
#psi4
#
memory 32 gb

molecule  {
0 1
  O        0.0000000     1.2846030    -0.0000340
  C       -1.2647534    -0.7845330    -0.0001720
  C        1.2933030    -0.7398820     0.0001460
  C        0.0000000     0.0555960    -0.0000230
  C       -2.5345840     0.1407430     0.0001160
  C        2.5345840     0.1407430    -0.0000420
  H       -1.2807360    -1.4061910     0.8728000
  H       -1.2807880    -1.4056370    -0.8735800
  H        1.2807720    -1.4061280    -0.8728800
  H        1.2807530    -1.4057000     0.8735000
  H       -3.4404540    -0.4711510     0.0003790
  H       -2.5493440     0.7863420     0.8803370
  H       -2.5498290     0.7862720    -0.8801480
  H        2.5497870     0.7862280     0.8802560
  H        2.5493860     0.7863860    -0.8802290
  H        3.4404540    -0.4711510    -0.0002890
units angstrom
no_reorient  #important for SAPT in psi4, default
symmetry c1  #important for SAPT in psi4, default
}

set PROPERTIES_ORIGIN ["COM"]
properties('MP2/aug-cc-pvtz', properties = ['dipole'])
--------------------------------------------------------------------------

    Molecular point group: c1
  Charge       = 0
  Multiplicity = 1
  Basis Set: AUG-CC-PVTZ
    Blend: AUG-CC-PVTZ
  Basis Set: (AUG-CC-PVTZ AUX)
    Blend: AUG-CC-PVTZ-JKFIT

    Orbital Energies [Eh]
    ---------------------

    Doubly Occupied:

       1A    -20.544668     2A    -11.328912     3A    -11.238483
       4A    -11.237696     5A    -11.218140     6A    -11.215459
       7A     -1.374576     8A     -1.069075     9A     -1.031840
      10A     -0.914100    11A     -0.844667    12A     -0.728779
      13A     -0.663169    14A     -0.649086    15A     -0.613253
      16A     -0.608043    17A     -0.555264    18A     -0.521143
      19A     -0.520868    20A     -0.510548    21A     -0.496891
      22A     -0.494608    23A     -0.481888    24A     -0.408276

  @DF-RHF Final Energy:  -270.12811705070033

   => Energetics <=

    Nuclear Repulsion Energy =            238.6639555055276389
    One-Electron Energy =                -839.0452798564723480
    Two-Electron Energy =                 330.2532073002444122
    Total Energy =                       -270.1281170507003253
  Basis Set: (AUG-CC-PVTZ AUX)
    Blend: AUG-CC-PVTZ-RI
    Molecular point group: c1

    Geometry (in Angstrom), charge = 0, multiplicity = 1:

       Center              X                  Y                   Z               Mass
    ------------   -----------------  -----------------  -----------------  -----------------
         O           -0.003980290583     1.251472790550    -0.000032876716    15.994914619570
         C           -1.268733690583    -0.817663209450    -0.000170876716    12.000000000000
         C            1.289322709417    -0.773012209450     0.000147123284    12.000000000000
         C           -0.003980290583     0.022465790550    -0.000021876716    12.000000000000
         C           -2.538564290583     0.107612790550     0.000117123284    12.000000000000
         C            2.530603709417     0.107612790550    -0.000040876716    12.000000000000
         H           -1.284716290583    -1.439321209450     0.872801123284     1.007825032230
         H           -1.284768290583    -1.438767209450    -0.873578876716     1.007825032230
         H            1.276791709417    -1.439258209450    -0.872878876716     1.007825032230
         H            1.276772709417    -1.438830209450     0.873501123284     1.007825032230
         H           -3.444434290583    -0.504281209450     0.000380123284     1.007825032230
         H           -2.553324290583     0.753211790550     0.880338123284     1.007825032230
         H           -2.553809290583     0.753141790550    -0.880146876716     1.007825032230
         H            2.545806709417     0.753097790550     0.880257123284     1.007825032230
         H            2.545405709417     0.753255790550    -0.880227876716     1.007825032230
         H            3.436473709417    -0.504281209450    -0.000287876716     1.007825032230

  Basis Set: AUG-CC-PVTZ
    Blend: AUG-CC-PVTZ
  Basis Set: (AUG-CC-PVTZ AUX)
    Blend: AUG-CC-PVTZ-JKFIT
	 Reference Energy          =    -270.1281170507003253 [Eh]
	 Singles Energy            =      -0.0000000000000000 [Eh]
	 Same-Spin Energy          =      -0.2726000377882014 [Eh]
	 Opposite-Spin Energy      =      -0.9465553768205286 [Eh]
	 Correlation Energy        =      -1.2191554146087300 [Eh]
	 Total Energy              =    -271.3472724653090609 [Eh]

	 ================> DF-SCS-MP2 Energies <==================
	-----------------------------------------------------------
	 SCS Same-Spin Scale       =       0.3333333333333333 [-]
	 SCS Opposite-Spin Scale   =       1.2000000000000000 [-]
	 SCS Same-Spin Energy      =      -0.0908666792627338 [Eh]
	 SCS Opposite-Spin Energy  =      -1.1358664521846342 [Eh]
	 SCS Correlation Energy    =      -1.2267331314473680 [Eh]
	 SCS Total Energy          =    -271.3548501821476862 [Eh]
	-----------------------------------------------------------

  Dipole Moment: [D]
     X:     0.0066      Y:    -2.6883      Z:     0.0000     Total:     2.6883

*** Psi4 exiting successfully. Buy a developer a beer!
