                               Psi4 1.3.2 release

  ==> Input File <==

--------------------------------------------------------------------------
#psi4
#
memory 32 gb

molecule  {
0 1
  O        0.0428917     1.2838543    -0.0000286
  C       -1.2933030    -0.7398820    -0.0001760
  C        1.2933030    -0.7398820     0.0001460
  C        0.0000000     0.0555960    -0.0000230
  C       -2.5345840     0.1407430     0.0001160
  C        2.5345840     0.1407430    -0.0000420
  H       -1.2807360    -1.4061910     0.8728000
  H       -1.2807880    -1.4056370    -0.8735800
  H        1.2807720    -1.4061280    -0.8728800
  H        1.2807530    -1.4057000     0.8735000
  H       -3.4404540    -0.4711510     0.0003790
  H       -2.5493440     0.7863420     0.8803370
  H       -2.5498290     0.7862720    -0.8801480
  H        2.5497870     0.7862280     0.8802560
  H        2.5493860     0.7863860    -0.8802290
  H        3.4404540    -0.4711510    -0.0002890
units angstrom
no_reorient  #important for SAPT in psi4, default
symmetry c1  #important for SAPT in psi4, default
}

set PROPERTIES_ORIGIN ["COM"]
properties('MP2/aug-cc-pvtz', properties = ['dipole'])
--------------------------------------------------------------------------

    Molecular point group: c1
  Charge       = 0
  Multiplicity = 1
  Basis Set: AUG-CC-PVTZ
    Blend: AUG-CC-PVTZ
  Basis Set: (AUG-CC-PVTZ AUX)
    Blend: AUG-CC-PVTZ-JKFIT

    Orbital Energies [Eh]
    ---------------------

    Doubly Occupied:

       1A    -20.542900     2A    -11.328195     3A    -11.241897
       4A    -11.237795     5A    -11.217638     6A    -11.214763
       7A     -1.374197     8A     -1.069706     9A     -1.036555
      10A     -0.915380    11A     -0.843231    12A     -0.726334
      13A     -0.664248    14A     -0.645894    15A     -0.612350
      16A     -0.606597    17A     -0.560884    18A     -0.520813
      19A     -0.520170    20A     -0.509211    21A     -0.505339
      22A     -0.490617    23A     -0.479520    24A     -0.408458

  @DF-RHF Final Energy:  -270.13023427721879

   => Energetics <=

    Nuclear Repulsion Energy =            238.9728220174583555
    One-Electron Energy =                -839.6607288442390882
    Two-Electron Energy =                 330.5576725495619144
    Total Energy =                       -270.1302342772187899
  Basis Set: (AUG-CC-PVTZ AUX)
    Blend: AUG-CC-PVTZ-RI
    Molecular point group: c1

    Geometry (in Angstrom), charge = 0, multiplicity = 1:

       Center              X                  Y                   Z               Mass
    ------------   -----------------  -----------------  -----------------  -----------------
         O            0.034921154387     1.244638144857    -0.000027922529    15.994914619570
         C           -1.301273545613    -0.779098155143    -0.000175322529    12.000000000000
         C            1.285332454387    -0.779098155143     0.000146677471    12.000000000000
         C           -0.007970545613     0.016379844857    -0.000022322529    12.000000000000
         C           -2.542554545613     0.101526844857     0.000116677471    12.000000000000
         C            2.526613454387     0.101526844857    -0.000041322529    12.000000000000
         H           -1.288706545613    -1.445407155143     0.872800677471     1.007825032230
         H           -1.288758545613    -1.444853155143    -0.873579322529     1.007825032230
         H            1.272801454387    -1.445344155143    -0.872879322529     1.007825032230
         H            1.272782454387    -1.444916155143     0.873500677471     1.007825032230
         H           -3.448424545613    -0.510367155143     0.000379677471     1.007825032230
         H           -2.557314545613     0.747125844857     0.880337677471     1.007825032230
         H           -2.557799545613     0.747055844857    -0.880147322529     1.007825032230
         H            2.541816454387     0.747011844857     0.880256677471     1.007825032230
         H            2.541415454387     0.747169844857    -0.880228322529     1.007825032230
         H            3.432483454387    -0.510367155143    -0.000288322529     1.007825032230

  Basis Set: AUG-CC-PVTZ
    Blend: AUG-CC-PVTZ
  Basis Set: (AUG-CC-PVTZ AUX)
    Blend: AUG-CC-PVTZ-JKFIT
	 Reference Energy          =    -270.1302342772187899 [Eh]
	 Singles Energy            =      -0.0000000000000000 [Eh]
	 Same-Spin Energy          =      -0.2728034595206079 [Eh]
	 Opposite-Spin Energy      =      -0.9465618124154298 [Eh]
	 Correlation Energy        =      -1.2193652719360377 [Eh]
	 Total Energy              =    -271.3495995491548456 [Eh]

	 ================> DF-SCS-MP2 Energies <==================
	-----------------------------------------------------------
	 SCS Same-Spin Scale       =       0.3333333333333333 [-]
	 SCS Opposite-Spin Scale   =       1.2000000000000000 [-]
	 SCS Same-Spin Energy      =      -0.0909344865068693 [Eh]
	 SCS Opposite-Spin Energy  =      -1.1358741748985157 [Eh]
	 SCS Correlation Energy    =      -1.2268086614053850 [Eh]
	 SCS Total Energy          =    -271.3570429386241472 [Eh]
	-----------------------------------------------------------

  Dipole Moment: [D]
     X:    -0.1335      Y:    -2.6879      Z:    -0.0000     Total:     2.6912

*** Psi4 exiting successfully. Buy a developer a beer!
