                               Psi4 1.3.2 release

  ==> Input File <==

--------------------------------------------------------------------------
#psi4
#
memory 32 gb

molecule  {
0 1
  O        0.0000000     1.2846030    -0.0000340
  C       -1.2933030    -0.7398820    -0.0001760
  C        1.2933030    -0.7398820     0.0001460
  C       -0.0144602     0.0303114    -0.0442993
  C       -2.5345840     0.1407430     0.0001160
  C        2.5345840     0.1407430    -0.0000420
  H       -1.2807360    -1.4061910     0.8728000
  H       -1.2807880    -1.4056370    -0.8735800
  H        1.2807720    -1.4061280    -0.8728800
  H        1.2807530    -1.4057000     0.8735000
  H       -3.4404540    -0.4711510     0.0003790
  H       -2.5493440     0.7863420     0.8803370
  H       -2.5498290     0.7862720    -0.8801480
  H        2.5497870     0.7862280     0.8802560
  H        2.5493860     0.7863860    -0.8802290
  H        3.4404540    -0.4711510    -0.0002890
units angstrom
no_reorient  #important for SAPT in psi4, default
symmetry c1  #important for SAPT in psi4, default
}

set PROPERTIES_ORIGIN ["COM"]
properties('MP2/aug-cc-pvtz', properties = ['dipole'])
--------------------------------------------------------------------------

    Molecular point group: c1
  Charge       = 0
  Multiplicity = 1
  Basis Set: AUG-CC-PVTZ
    Blend: AUG-CC-PVTZ
  Basis Set: (AUG-CC-PVTZ AUX)
    Blend: AUG-CC-PVTZ-JKFIT

    Orbital Energies [Eh]
    ---------------------

    Doubly Occupied:

       1A    -20.540888     2A    -11.330565     3A    -11.241504
       4A    -11.241064     5A    -11.217467     6A    -11.216405
       7A     -1.357165     8A     -1.073017     9A     -1.038360
      10A     -0.918665    11A     -0.845962    12A     -0.725849
      13A     -0.662215    14A     -0.647044    15A     -0.607660
      16A     -0.606936    17A     -0.561820    18A     -0.519892
      19A     -0.519165    20A     -0.507425    21A     -0.506040
      22A     -0.491577    23A     -0.470415    24A     -0.412581

  @DF-RHF Final Energy:  -270.12544197362740

   => Energetics <=

    Nuclear Repulsion Energy =            238.7689578291960117
    One-Electron Energy =                -839.2694368959753319
    Two-Electron Energy =                 330.3750370931519456
    Total Energy =                       -270.1254419736274031
  Basis Set: (AUG-CC-PVTZ AUX)
    Blend: AUG-CC-PVTZ-RI
    Molecular point group: c1

    Geometry (in Angstrom), charge = 0, multiplicity = 1:

       Center              X                  Y                   Z               Mass
    ------------   -----------------  -----------------  -----------------  -----------------
         O            0.002015975505     1.248772799209     0.006140517749    15.994914619570
         C           -1.291287024495    -0.775712200791     0.005998517749    12.000000000000
         C            1.295318975505    -0.775712200791     0.006320517749    12.000000000000
         C           -0.012444224495    -0.005518800791    -0.038124782251    12.000000000000
         C           -2.532568024495     0.104912799209     0.006290517749    12.000000000000
         C            2.536599975505     0.104912799209     0.006132517749    12.000000000000
         H           -1.278720024495    -1.442021200791     0.878974517749     1.007825032230
         H           -1.278772024495    -1.441467200791    -0.867405482251     1.007825032230
         H            1.282787975505    -1.441958200791    -0.866705482251     1.007825032230
         H            1.282768975505    -1.441530200791     0.879674517749     1.007825032230
         H           -3.438438024495    -0.506981200791     0.006553517749     1.007825032230
         H           -2.547328024495     0.750511799209     0.886511517749     1.007825032230
         H           -2.547813024495     0.750441799209    -0.873973482251     1.007825032230
         H            2.551802975505     0.750397799209     0.886430517749     1.007825032230
         H            2.551401975505     0.750555799209    -0.874054482251     1.007825032230
         H            3.442469975505    -0.506981200791     0.005885517749     1.007825032230

  Basis Set: AUG-CC-PVTZ
    Blend: AUG-CC-PVTZ
  Basis Set: (AUG-CC-PVTZ AUX)
    Blend: AUG-CC-PVTZ-JKFIT
	 Reference Energy          =    -270.1254419736274031 [Eh]
	 Singles Energy            =      -0.0000000000000000 [Eh]
	 Same-Spin Energy          =      -0.2736309608468963 [Eh]
	 Opposite-Spin Energy      =      -0.9482637733451106 [Eh]
	 Correlation Energy        =      -1.2218947341920070 [Eh]
	 Total Energy              =    -271.3473367078194087 [Eh]

	 ================> DF-SCS-MP2 Energies <==================
	-----------------------------------------------------------
	 SCS Same-Spin Scale       =       0.3333333333333333 [-]
	 SCS Opposite-Spin Scale   =       1.2000000000000000 [-]
	 SCS Same-Spin Energy      =      -0.0912103202822988 [Eh]
	 SCS Opposite-Spin Energy  =      -1.1379165280141326 [Eh]
	 SCS Correlation Energy    =      -1.2291268482964313 [Eh]
	 SCS Total Energy          =    -271.3545688219238627 [Eh]
	-----------------------------------------------------------

  Dipole Moment: [D]
     X:    -0.0715      Y:    -2.7841      Z:    -0.0112     Total:     2.7850

*** Psi4 exiting successfully. Buy a developer a beer!
