                               Psi4 1.3.2 release

  ==> Input File <==

--------------------------------------------------------------------------
#psi4
#
memory 32 gb

molecule  {
0 1
  O        0.0000000     1.2846030    -0.0000340
  C       -1.2933030    -0.7398820    -0.0001760
  C        1.2933030    -0.7398820     0.0001460
  C        0.0078222     0.0678767     0.0221186
  C       -2.5345840     0.1407430     0.0001160
  C        2.5345840     0.1407430    -0.0000420
  H       -1.2807360    -1.4061910     0.8728000
  H       -1.2807880    -1.4056370    -0.8735800
  H        1.2807720    -1.4061280    -0.8728800
  H        1.2807530    -1.4057000     0.8735000
  H       -3.4404540    -0.4711510     0.0003790
  H       -2.5493440     0.7863420     0.8803370
  H       -2.5498290     0.7862720    -0.8801480
  H        2.5497870     0.7862280     0.8802560
  H        2.5493860     0.7863860    -0.8802290
  H        3.4404540    -0.4711510    -0.0002890
units angstrom
no_reorient  #important for SAPT in psi4, default
symmetry c1  #important for SAPT in psi4, default
}

set PROPERTIES_ORIGIN ["COM"]
properties('MP2/aug-cc-pvtz', properties = ['dipole'])
--------------------------------------------------------------------------

    Molecular point group: c1
  Charge       = 0
  Multiplicity = 1
  Basis Set: AUG-CC-PVTZ
    Blend: AUG-CC-PVTZ
  Basis Set: (AUG-CC-PVTZ AUX)
    Blend: AUG-CC-PVTZ-JKFIT

    Orbital Energies [Eh]
    ---------------------

    Doubly Occupied:

       1A    -20.544079     2A    -11.327235     3A    -11.239387
       4A    -11.238969     5A    -11.216163     6A    -11.215557
       7A     -1.382403     8A     -1.068099     9A     -1.035700
      10A     -0.913707    11A     -0.841882    12A     -0.726754
      13A     -0.665265    14A     -0.645370    15A     -0.614844
      16A     -0.606038    17A     -0.560162    18A     -0.521191
      19A     -0.521048    20A     -0.510218    21A     -0.505272
      22A     -0.490134    23A     -0.483428    24A     -0.406118

  @DF-RHF Final Energy:  -270.13137112297642

   => Energetics <=

    Nuclear Repulsion Energy =            239.0379080107513516
    One-Electron Energy =                -839.7805141461923313
    Two-Electron Energy =                 330.6112350124645332
    Total Energy =                       -270.1313711229764181
  Basis Set: (AUG-CC-PVTZ AUX)
    Blend: AUG-CC-PVTZ-RI
    Molecular point group: c1

    Geometry (in Angstrom), charge = 0, multiplicity = 1:

       Center              X                  Y                   Z               Mass
    ------------   -----------------  -----------------  -----------------  -----------------
         O           -0.001090553692     1.243535585029    -0.003119218436    15.994914619570
         C           -1.294393553692    -0.780949414971    -0.003261218436    12.000000000000
         C            1.292212446308    -0.780949414971    -0.002939218436    12.000000000000
         C            0.006731646308     0.026809285029     0.019033381564    12.000000000000
         C           -2.535674553692     0.099675585029    -0.002969218436    12.000000000000
         C            2.533493446308     0.099675585029    -0.003127218436    12.000000000000
         H           -1.281826553692    -1.447258414971     0.869714781564     1.007825032230
         H           -1.281878553692    -1.446704414971    -0.876665218436     1.007825032230
         H            1.279681446308    -1.447195414971    -0.875965218436     1.007825032230
         H            1.279662446308    -1.446767414971     0.870414781564     1.007825032230
         H           -3.441544553692    -0.512218414971    -0.002706218436     1.007825032230
         H           -2.550434553692     0.745274585029     0.877251781564     1.007825032230
         H           -2.550919553692     0.745204585029    -0.883233218436     1.007825032230
         H            2.548696446308     0.745160585029     0.877170781564     1.007825032230
         H            2.548295446308     0.745318585029    -0.883314218436     1.007825032230
         H            3.439363446308    -0.512218414971    -0.003374218436     1.007825032230

  Basis Set: AUG-CC-PVTZ
    Blend: AUG-CC-PVTZ
  Basis Set: (AUG-CC-PVTZ AUX)
    Blend: AUG-CC-PVTZ-JKFIT
	 Reference Energy          =    -270.1313711229764181 [Eh]
	 Singles Energy            =      -0.0000000000000000 [Eh]
	 Same-Spin Energy          =      -0.2724501756883734 [Eh]
	 Opposite-Spin Energy      =      -0.9458723974112205 [Eh]
	 Correlation Energy        =      -1.2183225730995939 [Eh]
	 Total Energy              =    -271.3496936960760308 [Eh]

	 ================> DF-SCS-MP2 Energies <==================
	-----------------------------------------------------------
	 SCS Same-Spin Scale       =       0.3333333333333333 [-]
	 SCS Opposite-Spin Scale   =       1.2000000000000000 [-]
	 SCS Same-Spin Energy      =      -0.0908167252294578 [Eh]
	 SCS Opposite-Spin Energy  =      -1.1350468768934645 [Eh]
	 SCS Correlation Energy    =      -1.2258636021229223 [Eh]
	 SCS Total Energy          =    -271.3572347250993175 [Eh]
	-----------------------------------------------------------

  Dipole Moment: [D]
     X:     0.0409      Y:    -2.6392      Z:     0.0074     Total:     2.6396

*** Psi4 exiting successfully. Buy a developer a beer!
