                               Psi4 1.3.2 release

  ==> Input File <==

--------------------------------------------------------------------------
#psi4
#
memory 32 gb

molecule  {
0 1
  O        0.0000000     1.2846030    -0.0000340
  C       -1.2933030    -0.7398820    -0.0001760
  C        1.2933030    -0.7398820     0.0001460
  C       -0.0523393    -0.0365580    -0.0000034
  C       -2.5345840     0.1407430     0.0001160
  C        2.5345840     0.1407430    -0.0000420
  H       -1.2807360    -1.4061910     0.8728000
  H       -1.2807880    -1.4056370    -0.8735800
  H        1.2807720    -1.4061280    -0.8728800
  H        1.2807530    -1.4057000     0.8735000
  H       -3.4404540    -0.4711510     0.0003790
  H       -2.5493440     0.7863420     0.8803370
  H       -2.5498290     0.7862720    -0.8801480
  H        2.5497870     0.7862280     0.8802560
  H        2.5493860     0.7863860    -0.8802290
  H        3.4404540    -0.4711510    -0.0002890
units angstrom
no_reorient  #important for SAPT in psi4, default
symmetry c1  #important for SAPT in psi4, default
}

set PROPERTIES_ORIGIN ["COM"]
properties('MP2/aug-cc-pvtz', properties = ['dipole'])
--------------------------------------------------------------------------

    Molecular point group: c1
  Charge       = 0
  Multiplicity = 1
  Basis Set: AUG-CC-PVTZ
    Blend: AUG-CC-PVTZ
  Basis Set: (AUG-CC-PVTZ AUX)
    Blend: AUG-CC-PVTZ-JKFIT

    Orbital Energies [Eh]
    ---------------------

    Doubly Occupied:

       1A    -20.534137     2A    -11.335881     3A    -11.244544
       4A    -11.244445     5A    -11.220752     6A    -11.217076
       7A     -1.317337     8A     -1.084861     9A     -1.041684
      10A     -0.927672    11A     -0.853241    12A     -0.725248
      13A     -0.658847    14A     -0.652092    15A     -0.610217
      16A     -0.596594    17A     -0.562446    18A     -0.520019
      19A     -0.519730    20A     -0.510912    21A     -0.497588
      22A     -0.493826    23A     -0.446341    24A     -0.417493

  @DF-RHF Final Energy:  -270.10473832557653

   => Energetics <=

    Nuclear Repulsion Energy =            238.4364147127519402
    One-Electron Energy =                -838.6163372106263978
    Two-Electron Energy =                 330.0751841722979520
    Total Energy =                       -270.1047383255765340
  Basis Set: (AUG-CC-PVTZ AUX)
    Blend: AUG-CC-PVTZ-RI
    Molecular point group: c1

    Geometry (in Angstrom), charge = 0, multiplicity = 1:

       Center              X                  Y                   Z               Mass
    ------------   -----------------  -----------------  -----------------  -----------------
         O            0.007296938513     1.258095481843    -0.000035051609    15.994914619570
         C           -1.286006061487    -0.766389518157    -0.000177051609    12.000000000000
         C            1.300599938513    -0.766389518157     0.000144948391    12.000000000000
         C           -0.045042361487    -0.063065518157    -0.000004451609    12.000000000000
         C           -2.527287061487     0.114235481843     0.000114948391    12.000000000000
         C            2.541880938513     0.114235481843    -0.000043051609    12.000000000000
         H           -1.273439061487    -1.432698518157     0.872798948391     1.007825032230
         H           -1.273491061487    -1.432144518157    -0.873581051609     1.007825032230
         H            1.288068938513    -1.432635518157    -0.872881051609     1.007825032230
         H            1.288049938513    -1.432207518157     0.873498948391     1.007825032230
         H           -3.433157061487    -0.497658518157     0.000377948391     1.007825032230
         H           -2.542047061487     0.759834481843     0.880335948391     1.007825032230
         H           -2.542532061487     0.759764481843    -0.880149051609     1.007825032230
         H            2.557083938513     0.759720481843     0.880254948391     1.007825032230
         H            2.556682938513     0.759878481843    -0.880230051609     1.007825032230
         H            3.447750938513    -0.497658518157    -0.000290051609     1.007825032230

  Basis Set: AUG-CC-PVTZ
    Blend: AUG-CC-PVTZ
  Basis Set: (AUG-CC-PVTZ AUX)
    Blend: AUG-CC-PVTZ-JKFIT
	 Reference Energy          =    -270.1047383255765340 [Eh]
	 Singles Energy            =      -0.0000000000000000 [Eh]
	 Same-Spin Energy          =      -0.2760520376721818 [Eh]
	 Opposite-Spin Energy      =      -0.9528693660556271 [Eh]
	 Correlation Energy        =      -1.2289214037278089 [Eh]
	 Total Energy              =    -271.3336597293043155 [Eh]

	 ================> DF-SCS-MP2 Energies <==================
	-----------------------------------------------------------
	 SCS Same-Spin Scale       =       0.3333333333333333 [-]
	 SCS Opposite-Spin Scale   =       1.2000000000000000 [-]
	 SCS Same-Spin Energy      =      -0.0920173458907273 [Eh]
	 SCS Opposite-Spin Energy  =      -1.1434432392667524 [Eh]
	 SCS Correlation Energy    =      -1.2354605851574796 [Eh]
	 SCS Total Energy          =    -271.3401989107339887 [Eh]
	-----------------------------------------------------------

  Dipole Moment: [D]
     X:    -0.2429      Y:    -3.0102      Z:    -0.0000     Total:     3.0200

*** Psi4 exiting successfully. Buy a developer a beer!
