                               Psi4 1.4a3.dev225

  ==> Input File <==

--------------------------------------------------------------------------
#psi4
#
memory 32 gb

molecule  {
0 1
  O        0.0000000     1.2846080    -0.0000020
  C       -1.2933020    -0.7398800     0.0000010
  C        1.2933020    -0.7398800    -0.0000030
  C        0.0000000     0.0356000    -0.0000010
  C       -2.5345880     0.1407340     0.0000020
  C        2.5345890     0.1407340     0.0000030
  H       -1.2807520    -1.4059020     0.8731990
  H       -1.2807540    -1.4059020    -0.8731970
  H        1.2807540    -1.4058970    -0.8732050
  H        1.2807510    -1.4059060     0.8731910
  H       -3.4404600    -0.4711580     0.0000060
  H       -2.5496050     0.7863060     0.8802420
  H       -2.5496100     0.7863010    -0.8802430
  H        2.5496080     0.7862970     0.8802510
  H        2.5496070     0.7863100    -0.8802340
  H        3.4404600    -0.4711580    -0.0000010
units angstrom
no_reorient  #important for SAPT in psi4, default
symmetry c1  #important for SAPT in psi4, default
}

set PROPERTIES_ORIGIN ["COM"]
properties('MP2/aug-cc-pvtz', properties = ['dipole'])
--------------------------------------------------------------------------

    Molecular point group: c1
  Charge       = 0
  Multiplicity = 1
  Basis Set: AUG-CC-PVTZ
    Blend: AUG-CC-PVTZ
  Basis Set: (AUG-CC-PVTZ AUX)
    Blend: AUG-CC-PVTZ-JKFIT

    Orbital Energies [Eh]
    ---------------------

    Doubly Occupied:

       1A    -20.541146     2A    -11.329871     3A    -11.240947
       4A    -11.240926     5A    -11.216795     6A    -11.216795
       7A     -1.360948     8A     -1.072193     9A     -1.038201
      10A     -0.917988    11A     -0.845492    12A     -0.725828
      13A     -0.662707    14A     -0.646779    15A     -0.608209
      16A     -0.607525    17A     -0.561650    18A     -0.519991
      19A     -0.519302    20A     -0.507778    21A     -0.506049
      22A     -0.491451    23A     -0.472655    24A     -0.412059

  @DF-RHF Final Energy:  -270.12775485849738

   => Energetics <=

    Nuclear Repulsion Energy =            238.8282793927001819
    One-Electron Energy =                -839.3854961846006972
    Two-Electron Energy =                 330.4294619334031040
    Total Energy =                       -270.1277548584973829
  Basis Set: (AUG-CC-PVTZ AUX)
    Blend: AUG-CC-PVTZ-RI
    Molecular point group: c1

    Geometry (in Angstrom), charge = 0, multiplicity = 1:

       Center              X                  Y                   Z               Mass
    ------------   -----------------  -----------------  -----------------  -----------------
         O           -0.000000127707     1.248041259093    -0.000002012554    15.994914619570
         C           -1.293302127707    -0.776446740907     0.000000987446    12.000000000000
         C            1.293301872293    -0.776446740907    -0.000003012554    12.000000000000
         C           -0.000000127707    -0.000966740907    -0.000001012554    12.000000000000
         C           -2.534588127707     0.104167259093     0.000001987446    12.000000000000
         C            2.534588872293     0.104167259093     0.000002987446    12.000000000000
         H           -1.280752127707    -1.442468740907     0.873198987446     1.007825032230
         H           -1.280754127707    -1.442468740907    -0.873197012554     1.007825032230
         H            1.280753872293    -1.442463740907    -0.873205012554     1.007825032230
         H            1.280750872293    -1.442472740907     0.873190987446     1.007825032230
         H           -3.440460127707    -0.507724740907     0.000005987446     1.007825032230
         H           -2.549605127707     0.749739259093     0.880241987446     1.007825032230
         H           -2.549610127707     0.749734259093    -0.880243012554     1.007825032230
         H            2.549607872293     0.749730259093     0.880250987446     1.007825032230
         H            2.549606872293     0.749743259093    -0.880234012554     1.007825032230
         H            3.440459872293    -0.507724740907    -0.000001012554     1.007825032230

  Basis Set: AUG-CC-PVTZ
    Blend: AUG-CC-PVTZ
  Basis Set: (AUG-CC-PVTZ AUX)
    Blend: AUG-CC-PVTZ-JKFIT
	 Reference Energy          =    -270.1277548584973829 [Eh]
	 Singles Energy            =      -0.0000000000000000 [Eh]
	 Same-Spin Energy          =      -0.2733963184489658 [Eh]
	 Opposite-Spin Energy      =      -0.9477355482830235 [Eh]
	 Correlation Energy        =      -1.2211318667319895 [Eh]
	 Total Energy              =    -271.3488867252293630 [Eh]

	 ================> DF-SCS-MP2 Energies <==================
	-----------------------------------------------------------
	 SCS Same-Spin Scale       =       0.3333333333333333 [-]
	 SCS Opposite-Spin Scale   =       1.2000000000000000 [-]
	 SCS Same-Spin Energy      =      -0.0911321061496553 [Eh]
	 SCS Opposite-Spin Energy  =      -1.1372826579396282 [Eh]
	 SCS Correlation Energy    =      -1.2284147640892835 [Eh]
	 SCS Total Energy          =    -271.3561696225866626 [Eh]
	-----------------------------------------------------------

  Dipole Moment: [D]
     X:     0.0000      Y:    -2.7679      Z:     0.0000     Total:     2.7679

*** Psi4 exiting successfully. Buy a developer a beer!
