                               Psi4 1.3.2 release

  ==> Input File <==

--------------------------------------------------------------------------
#psi4
#
memory 32 gb

molecule  {
0 1
  O        0.0000000     1.2846030    -0.0000340
  C       -1.3693682    -0.6003373    -0.0001869
  C        1.2933030    -0.7398820     0.0001460
  C        0.0000000     0.0555960    -0.0000230
  C       -2.5345840     0.1407430     0.0001160
  C        2.5345840     0.1407430    -0.0000420
  H       -1.2807360    -1.4061910     0.8728000
  H       -1.2807880    -1.4056370    -0.8735800
  H        1.2807720    -1.4061280    -0.8728800
  H        1.2807530    -1.4057000     0.8735000
  H       -3.4404540    -0.4711510     0.0003790
  H       -2.5493440     0.7863420     0.8803370
  H       -2.5498290     0.7862720    -0.8801480
  H        2.5497870     0.7862280     0.8802560
  H        2.5493860     0.7863860    -0.8802290
  H        3.4404540    -0.4711510    -0.0002890
units angstrom
no_reorient  #important for SAPT in psi4, default
symmetry c1  #important for SAPT in psi4, default
}

set PROPERTIES_ORIGIN ["COM"]
properties('MP2/aug-cc-pvtz', properties = ['dipole'])
--------------------------------------------------------------------------

    Molecular point group: c1
  Charge       = 0
  Multiplicity = 1
  Basis Set: AUG-CC-PVTZ
    Blend: AUG-CC-PVTZ
  Basis Set: (AUG-CC-PVTZ AUX)
    Blend: AUG-CC-PVTZ-JKFIT

    Orbital Energies [Eh]
    ---------------------

    Doubly Occupied:

       1A    -20.537897     2A    -11.327962     3A    -11.250392
       4A    -11.244250     5A    -11.218544     6A    -11.210750
       7A     -1.373757     8A     -1.081140     9A     -1.051097
      10A     -0.918362    11A     -0.839532    12A     -0.719196
      13A     -0.668107    14A     -0.642394    15A     -0.614854
      16A     -0.607726    17A     -0.586353    18A     -0.526471
      19A     -0.519924    20A     -0.519402    21A     -0.500890
      22A     -0.484929    23A     -0.449396    24A     -0.405913

  @DF-RHF Final Energy:  -270.10036388663070

   => Energetics <=

    Nuclear Repulsion Energy =            240.0070391253407536
    One-Electron Energy =                -841.6163252244980413
    Two-Electron Energy =                 331.5089222125266133
    Total Energy =                       -270.1003638866307028
  Basis Set: (AUG-CC-PVTZ AUX)
    Blend: AUG-CC-PVTZ-RI
    Molecular point group: c1

    Geometry (in Angstrom), charge = 0, multiplicity = 1:

       Center              X                  Y                   Z               Mass
    ------------   -----------------  -----------------  -----------------  -----------------
         O            0.010604715102     1.225792912257    -0.000030799413    15.994914619570
         C           -1.358763484898    -0.659147387743    -0.000183699413    12.000000000000
         C            1.303907715102    -0.798692087743     0.000149200587    12.000000000000
         C            0.010604715102    -0.003214087743    -0.000019799413    12.000000000000
         C           -2.523979284898     0.081932912257     0.000119200587    12.000000000000
         C            2.545188715102     0.081932912257    -0.000038799413    12.000000000000
         H           -1.270131284898    -1.465001087743     0.872803200587     1.007825032230
         H           -1.270183284898    -1.464447087743    -0.873576799413     1.007825032230
         H            1.291376715102    -1.464938087743    -0.872876799413     1.007825032230
         H            1.291357715102    -1.464510087743     0.873503200587     1.007825032230
         H           -3.429849284898    -0.529961087743     0.000382200587     1.007825032230
         H           -2.538739284898     0.727531912257     0.880340200587     1.007825032230
         H           -2.539224284898     0.727461912257    -0.880144799413     1.007825032230
         H            2.560391715102     0.727417912257     0.880259200587     1.007825032230
         H            2.559990715102     0.727575912257    -0.880225799413     1.007825032230
         H            3.451058715102    -0.529961087743    -0.000285799413     1.007825032230

  Basis Set: AUG-CC-PVTZ
    Blend: AUG-CC-PVTZ
  Basis Set: (AUG-CC-PVTZ AUX)
    Blend: AUG-CC-PVTZ-JKFIT
	 Reference Energy          =    -270.1003638866307028 [Eh]
	 Singles Energy            =      -0.0000000000000000 [Eh]
	 Same-Spin Energy          =      -0.2745511295549672 [Eh]
	 Opposite-Spin Energy      =      -0.9489102093453734 [Eh]
	 Correlation Energy        =      -1.2234613389003406 [Eh]
	 Total Energy              =    -271.3238252255310385 [Eh]

	 ================> DF-SCS-MP2 Energies <==================
	-----------------------------------------------------------
	 SCS Same-Spin Scale       =       0.3333333333333333 [-]
	 SCS Opposite-Spin Scale   =       1.2000000000000000 [-]
	 SCS Same-Spin Energy      =      -0.0915170431849891 [Eh]
	 SCS Opposite-Spin Energy  =      -1.1386922512144479 [Eh]
	 SCS Correlation Energy    =      -1.2302092943994369 [Eh]
	 SCS Total Energy          =    -271.3305731810301609 [Eh]
	-----------------------------------------------------------

  Dipole Moment: [D]
     X:    -0.0543      Y:    -2.6412      Z:    -0.0000     Total:     2.6417

*** Psi4 exiting successfully. Buy a developer a beer!
