                               Psi4 1.4a3.dev225

  ==> Input File <==

--------------------------------------------------------------------------
#psi4
#
memory 32 gb

molecule  {
0 1
  O        0.0000000     1.2846080    -0.0000020
  C       -1.2933020    -0.7398800     0.0000010
  C        1.2933020    -0.7398800    -0.0000030
  C        0.0425888     0.0294046    -0.0000011
  C       -2.5345880     0.1407340     0.0000020
  C        2.5345890     0.1407340     0.0000030
  H       -1.2807520    -1.4059020     0.8731990
  H       -1.2807540    -1.4059020    -0.8731970
  H        1.2807540    -1.4058970    -0.8732050
  H        1.2807510    -1.4059060     0.8731910
  H       -3.4404600    -0.4711580     0.0000060
  H       -2.5496050     0.7863060     0.8802420
  H       -2.5496100     0.7863010    -0.8802430
  H        2.5496080     0.7862970     0.8802510
  H        2.5496070     0.7863100    -0.8802340
  H        3.4404600    -0.4711580    -0.0000010
units angstrom
no_reorient  #important for SAPT in psi4, default
symmetry c1  #important for SAPT in psi4, default
}

set PROPERTIES_ORIGIN ["COM"]
properties('MP2/aug-cc-pvtz', properties = ['dipole'])
--------------------------------------------------------------------------

    Molecular point group: c1
  Charge       = 0
  Multiplicity = 1
  Basis Set: AUG-CC-PVTZ
    Blend: AUG-CC-PVTZ
  Basis Set: (AUG-CC-PVTZ AUX)
    Blend: AUG-CC-PVTZ-JKFIT

    Orbital Energies [Eh]
    ---------------------

    Doubly Occupied:

       1A    -20.540604     2A    -11.330523     3A    -11.241848
       4A    -11.240550     5A    -11.218566     6A    -11.215426
       7A     -1.356550     8A     -1.075301     9A     -1.037215
      10A     -0.919287    11A     -0.845709    12A     -0.726192
      13A     -0.662062    14A     -0.647717    15A     -0.607424
      16A     -0.607076    17A     -0.561857    18A     -0.520471
      19A     -0.519457    20A     -0.507804    21A     -0.505164
      22A     -0.491411    23A     -0.470216    24A     -0.411860

  @DF-RHF Final Energy:  -270.12457292830169

   => Energetics <=

    Nuclear Repulsion Energy =            238.7954955573106872
    One-Electron Energy =                -839.3195538350496463
    Two-Electron Energy =                 330.3994853494372705
    Total Energy =                       -270.1245729283016885
  Basis Set: (AUG-CC-PVTZ AUX)
    Blend: AUG-CC-PVTZ-RI
    Molecular point group: c1

    Geometry (in Angstrom), charge = 0, multiplicity = 1:

       Center              X                  Y                   Z               Mass
    ------------   -----------------  -----------------  -----------------  -----------------
         O           -0.005937699543     1.248904998681    -0.000001998613    15.994914619570
         C           -1.299239699543    -0.775583001319     0.000001001387    12.000000000000
         C            1.287364300457    -0.775583001319    -0.000002998613    12.000000000000
         C            0.036651100457    -0.006298401319    -0.000001098613    12.000000000000
         C           -2.540525699543     0.105030998681     0.000002001387    12.000000000000
         C            2.528651300457     0.105030998681     0.000003001387    12.000000000000
         H           -1.286689699543    -1.441605001319     0.873199001387     1.007825032230
         H           -1.286691699543    -1.441605001319    -0.873196998613     1.007825032230
         H            1.274816300457    -1.441600001319    -0.873204998613     1.007825032230
         H            1.274813300457    -1.441609001319     0.873191001387     1.007825032230
         H           -3.446397699543    -0.506861001319     0.000006001387     1.007825032230
         H           -2.555542699543     0.750602998681     0.880242001387     1.007825032230
         H           -2.555547699543     0.750597998681    -0.880242998613     1.007825032230
         H            2.543670300457     0.750593998681     0.880251001387     1.007825032230
         H            2.543669300457     0.750606998681    -0.880233998613     1.007825032230
         H            3.434522300457    -0.506861001319    -0.000000998613     1.007825032230

  Basis Set: AUG-CC-PVTZ
    Blend: AUG-CC-PVTZ
  Basis Set: (AUG-CC-PVTZ AUX)
    Blend: AUG-CC-PVTZ-JKFIT
	 Reference Energy          =    -270.1245729283016885 [Eh]
	 Singles Energy            =      -0.0000000000000000 [Eh]
	 Same-Spin Energy          =      -0.2737014416666267 [Eh]
	 Opposite-Spin Energy      =      -0.9483254140198573 [Eh]
	 Correlation Energy        =      -1.2220268556864839 [Eh]
	 Total Energy              =    -271.3465997839881538 [Eh]

	 ================> DF-SCS-MP2 Energies <==================
	-----------------------------------------------------------
	 SCS Same-Spin Scale       =       0.3333333333333333 [-]
	 SCS Opposite-Spin Scale   =       1.2000000000000000 [-]
	 SCS Same-Spin Energy      =      -0.0912338138888756 [Eh]
	 SCS Opposite-Spin Energy  =      -1.1379904968238286 [Eh]
	 SCS Correlation Energy    =      -1.2292243107127041 [Eh]
	 SCS Total Energy          =    -271.3537972390143977 [Eh]
	-----------------------------------------------------------

  Dipole Moment: [D]
     X:     0.2112      Y:    -2.7917      Z:     0.0000     Total:     2.7997

*** Psi4 exiting successfully. Buy a developer a beer!
