                               Psi4 1.3.2 release

  ==> Input File <==

--------------------------------------------------------------------------
#psi4
#
memory 32 gb

molecule  {
0 1
  O        0.0000000     1.2846030    -0.0000340
  C       -1.2933030    -0.7398820    -0.0001760
  C        1.2933030    -0.7398820     0.0001460
  C        0.0000000     0.0555960    -0.0000230
  C       -2.5345840     0.1407430     0.0001160
  C        2.5345840     0.1407430    -0.0000420
  H       -1.2807360    -1.4061910     0.8728000
  H       -1.2807880    -1.4056370    -0.8735800
  H        1.2807720    -1.4061280    -0.8728800
  H        1.2807530    -1.4057000     0.8735000
  H       -3.4404540    -0.4711510     0.0003790
  H       -2.5493440     0.7863420     0.8803370
  H       -2.5498290     0.7862720    -0.8801480
  H        2.5497870     0.7862280     0.8802560
  H        2.5493860     0.7863860    -0.8802290
  H        3.4404540    -0.4711510    -0.0002890
units angstrom
no_reorient  #important for SAPT in psi4, default
symmetry c1  #important for SAPT in psi4, default
}

set PROPERTIES_ORIGIN ["COM"]
properties('MP2/aug-cc-pvtz', properties = ['dipole'])
--------------------------------------------------------------------------

    Molecular point group: c1
  Charge       = 0
  Multiplicity = 1
  Basis Set: AUG-CC-PVTZ
    Blend: AUG-CC-PVTZ
  Basis Set: (AUG-CC-PVTZ AUX)
    Blend: AUG-CC-PVTZ-JKFIT

    Orbital Energies [Eh]
    ---------------------

    Doubly Occupied:

       1A    -20.542938     2A    -11.328194     3A    -11.239860
       4A    -11.239838     5A    -11.216217     6A    -11.216216
       7A     -1.374142     8A     -1.069628     9A     -1.036685
      10A     -0.915353    11A     -0.843258    12A     -0.726350
      13A     -0.664220    14A     -0.645851    15A     -0.612314
      16A     -0.606620    17A     -0.560786    18A     -0.520659
      19A     -0.520150    20A     -0.509364    21A     -0.505529
      22A     -0.490644    23A     -0.479562    24A     -0.408615

  @DF-RHF Final Energy:  -270.13060050140274

   => Energetics <=

    Nuclear Repulsion Energy =            238.9596645275080391
    One-Electron Energy =                -839.6345484737157676
    Two-Electron Energy =                 330.5442834448049894
    Total Energy =                       -270.1306005014027392
  Basis Set: (AUG-CC-PVTZ AUX)
    Blend: AUG-CC-PVTZ-RI
    Molecular point group: c1

    Geometry (in Angstrom), charge = 0, multiplicity = 1:

       Center              X                  Y                   Z               Mass
    ------------   -----------------  -----------------  -----------------  -----------------
         O           -0.000000011709     1.245247714472    -0.000032319051    15.994914619570
         C           -1.293303011709    -0.779237285528    -0.000174319051    12.000000000000
         C            1.293302988291    -0.779237285528     0.000147680949    12.000000000000
         C           -0.000000011709     0.016240714472    -0.000021319051    12.000000000000
         C           -2.534584011709     0.101387714472     0.000117680949    12.000000000000
         C            2.534583988291     0.101387714472    -0.000040319051    12.000000000000
         H           -1.280736011709    -1.445546285528     0.872801680949     1.007825032230
         H           -1.280788011709    -1.444992285528    -0.873578319051     1.007825032230
         H            1.280771988291    -1.445483285528    -0.872878319051     1.007825032230
         H            1.280752988291    -1.445055285528     0.873501680949     1.007825032230
         H           -3.440454011709    -0.510506285528     0.000380680949     1.007825032230
         H           -2.549344011709     0.746986714472     0.880338680949     1.007825032230
         H           -2.549829011709     0.746916714472    -0.880146319051     1.007825032230
         H            2.549786988291     0.746872714472     0.880257680949     1.007825032230
         H            2.549385988291     0.747030714472    -0.880227319051     1.007825032230
         H            3.440453988291    -0.510506285528    -0.000287319051     1.007825032230

  Basis Set: AUG-CC-PVTZ
    Blend: AUG-CC-PVTZ
  Basis Set: (AUG-CC-PVTZ AUX)
    Blend: AUG-CC-PVTZ-JKFIT
	 Reference Energy          =    -270.1306005014027392 [Eh]
	 Singles Energy            =      -0.0000000000000000 [Eh]
	 Same-Spin Energy          =      -0.2727877577288559 [Eh]
	 Opposite-Spin Energy      =      -0.9465300660705371 [Eh]
	 Correlation Energy        =      -1.2193178237993929 [Eh]
	 Total Energy              =    -271.3499183252021112 [Eh]

	 ================> DF-SCS-MP2 Energies <==================
	-----------------------------------------------------------
	 SCS Same-Spin Scale       =       0.3333333333333333 [-]
	 SCS Opposite-Spin Scale   =       1.2000000000000000 [-]
	 SCS Same-Spin Energy      =      -0.0909292525762853 [Eh]
	 SCS Opposite-Spin Energy  =      -1.1358360792846445 [Eh]
	 SCS Correlation Energy    =      -1.2267653318609297 [Eh]
	 SCS Total Energy          =    -271.3573658332636569 [Eh]
	-----------------------------------------------------------

  Dipole Moment: [D]
     X:    -0.0000      Y:    -2.6902      Z:     0.0000     Total:     2.6902

*** Psi4 exiting successfully. Buy a developer a beer!
