                               Psi4 1.3.2 release

  ==> Input File <==

--------------------------------------------------------------------------
#psi4
#
memory 32 gb

molecule  {
0 1
  O        0.0000000     1.2846030    -0.0000340
  C       -1.2933030    -0.7398820    -0.0001760
  C        1.2933030    -0.7398820     0.0001460
  C       -0.0760652    -0.0839487     0.0000067
  C       -2.5345840     0.1407430     0.0001160
  C        2.5345840     0.1407430    -0.0000420
  H       -1.2807360    -1.4061910     0.8728000
  H       -1.2807880    -1.4056370    -0.8735800
  H        1.2807720    -1.4061280    -0.8728800
  H        1.2807530    -1.4057000     0.8735000
  H       -3.4404540    -0.4711510     0.0003790
  H       -2.5493440     0.7863420     0.8803370
  H       -2.5498290     0.7862720    -0.8801480
  H        2.5497870     0.7862280     0.8802560
  H        2.5493860     0.7863860    -0.8802290
  H        3.4404540    -0.4711510    -0.0002890
units angstrom
no_reorient  #important for SAPT in psi4, default
symmetry c1  #important for SAPT in psi4, default
}

set PROPERTIES_ORIGIN ["COM"]
properties('MP2/aug-cc-pvtz', properties = ['dipole'])
--------------------------------------------------------------------------

    Molecular point group: c1
  Charge       = 0
  Multiplicity = 1
  Basis Set: AUG-CC-PVTZ
    Blend: AUG-CC-PVTZ
  Basis Set: (AUG-CC-PVTZ AUX)
    Blend: AUG-CC-PVTZ-JKFIT

    Orbital Energies [Eh]
    ---------------------

    Doubly Occupied:

       1A    -20.528695     2A    -11.339417     3A    -11.247439
       4A    -11.245933     5A    -11.222976     6A    -11.217659
       7A     -1.292411     8A     -1.094339     9A     -1.043321
      10A     -0.933820    11A     -0.858257    12A     -0.725459
      13A     -0.657201    14A     -0.656750    15A     -0.611772
      16A     -0.593241    17A     -0.560438    18A     -0.521868
      19A     -0.520075    20A     -0.516103    21A     -0.495149
      22A     -0.487604    23A     -0.429689    24A     -0.416183

  @DF-RHF Final Energy:  -270.08095877611134

   => Energetics <=

    Nuclear Repulsion Energy =            238.2401842219693719
    One-Electron Energy =                -838.2106834368796626
    Two-Electron Energy =                 329.8895404387989743
    Total Energy =                       -270.0809587761113448
  Basis Set: (AUG-CC-PVTZ AUX)
    Blend: AUG-CC-PVTZ-RI
    Molecular point group: c1

    Geometry (in Angstrom), charge = 0, multiplicity = 1:

       Center              X                  Y                   Z               Mass
    ------------   -----------------  -----------------  -----------------  -----------------
         O            0.010604715102     1.264702516688    -0.000036459714    15.994914619570
         C           -1.282698284898    -0.759782483312    -0.000178459714    12.000000000000
         C            1.303907715102    -0.759782483312     0.000143540286    12.000000000000
         C           -0.065460484898    -0.103849183312     0.000004240286    12.000000000000
         C           -2.523979284898     0.120842516688     0.000113540286    12.000000000000
         C            2.545188715102     0.120842516688    -0.000044459714    12.000000000000
         H           -1.270131284898    -1.426091483312     0.872797540286     1.007825032230
         H           -1.270183284898    -1.425537483312    -0.873582459714     1.007825032230
         H            1.291376715102    -1.426028483312    -0.872882459714     1.007825032230
         H            1.291357715102    -1.425600483312     0.873497540286     1.007825032230
         H           -3.429849284898    -0.491051483312     0.000376540286     1.007825032230
         H           -2.538739284898     0.766441516688     0.880334540286     1.007825032230
         H           -2.539224284898     0.766371516688    -0.880150459714     1.007825032230
         H            2.560391715102     0.766327516688     0.880253540286     1.007825032230
         H            2.559990715102     0.766485516688    -0.880231459714     1.007825032230
         H            3.451058715102    -0.491051483312    -0.000291459714     1.007825032230

  Basis Set: AUG-CC-PVTZ
    Blend: AUG-CC-PVTZ
  Basis Set: (AUG-CC-PVTZ AUX)
    Blend: AUG-CC-PVTZ-JKFIT
	 Reference Energy          =    -270.0809587761113448 [Eh]
	 Singles Energy            =      -0.0000000000000000 [Eh]
	 Same-Spin Energy          =      -0.2780807749671271 [Eh]
	 Opposite-Spin Energy      =      -0.9566717505447666 [Eh]
	 Correlation Energy        =      -1.2347525255118939 [Eh]
	 Total Energy              =    -271.3157113016232529 [Eh]

	 ================> DF-SCS-MP2 Energies <==================
	-----------------------------------------------------------
	 SCS Same-Spin Scale       =       0.3333333333333333 [-]
	 SCS Opposite-Spin Scale   =       1.2000000000000000 [-]
	 SCS Same-Spin Energy      =      -0.0926935916557090 [Eh]
	 SCS Opposite-Spin Energy  =      -1.1480061006537199 [Eh]
	 SCS Correlation Energy    =      -1.2406996923094289 [Eh]
	 SCS Total Energy          =    -271.3216584684207646 [Eh]
	-----------------------------------------------------------

  Dipole Moment: [D]
     X:    -0.3436      Y:    -3.1424      Z:    -0.0000     Total:     3.1611

*** Psi4 exiting successfully. Buy a developer a beer!
