                               Psi4 1.3.2 release

  ==> Input File <==

--------------------------------------------------------------------------
#psi4
#
memory 32 gb

molecule  {
0 1
  O       -1.9983450    -0.7282080     0.0003470
  C        0.7345737    -0.5207682    -0.0006296
  C       -0.0915640     0.7578760     0.0000330
  C        2.2978970    -0.0745110     0.0003180
  C       -1.5581360     0.4144240    -0.0001330
  H        0.5909330    -1.0784560     0.8725540
  H        0.5917080    -1.0769800    -0.8750200
  H        0.1002270     1.3980580     0.8739280
  H        0.1003310     1.3991950    -0.8729740
  H        2.5495760     0.5185710     0.8851420
  H        2.9367550    -0.9620450    -0.0002290
  H        2.5502710     0.5201590    -0.8832390
  H       -2.2527500     1.2805740    -0.0006430
units angstrom
no_reorient  #important for SAPT in psi4, default
symmetry c1  #important for SAPT in psi4, default
}

set PROPERTIES_ORIGIN ["COM"]
properties('MP2/aug-cc-pvtz', properties = ['dipole'])
--------------------------------------------------------------------------

    Molecular point group: c1
  Charge       = 0
  Multiplicity = 1
  Basis Set: AUG-CC-PVTZ
    Blend: AUG-CC-PVTZ
  Basis Set: (AUG-CC-PVTZ AUX)
    Blend: AUG-CC-PVTZ-JKFIT

    Orbital Energies [Eh]
    ---------------------

    Doubly Occupied:

       1A    -20.557689     2A    -11.333554     3A    -11.245349
       4A    -11.224528     5A    -11.221958     6A     -1.382869
       7A     -1.076405     8A     -0.965174     9A     -0.853798
      10A     -0.773807    11A     -0.670457    12A     -0.655642
      13A     -0.627950    14A     -0.566178    15A     -0.565303
      16A     -0.509253    17A     -0.504303    18A     -0.493412
      19A     -0.476170    20A     -0.417860

  @DF-RHF Final Energy:  -231.06143837767030

   => Energetics <=

    Nuclear Repulsion Energy =            171.7069494533156160
    One-Electron Energy =                -653.2934581619088021
    Two-Electron Energy =                 250.5250703309229152
    Total Energy =                       -231.0614383776702994
  Basis Set: (AUG-CC-PVTZ AUX)
    Blend: AUG-CC-PVTZ-RI
    Molecular point group: c1

    Geometry (in Angstrom), charge = 0, multiplicity = 1:

       Center              X                  Y                   Z               Mass
    ------------   -----------------  -----------------  -----------------  -----------------
         O           -1.885282873666    -0.690617800619     0.000345247629    15.994914619570
         C            0.847635826334    -0.483178000619    -0.000631352371    12.000000000000
         C            0.021498126334     0.795466199381     0.000031247629    12.000000000000
         C            2.410959126334    -0.036920800619     0.000316247629    12.000000000000
         C           -1.445073873666     0.452014199381    -0.000134752371    12.000000000000
         H            0.703995126334    -1.040865800619     0.872552247629     1.007825032230
         H            0.704770126334    -1.039389800619    -0.875021752371     1.007825032230
         H            0.213289126334     1.435648199381     0.873926247629     1.007825032230
         H            0.213393126334     1.436785199381    -0.872975752371     1.007825032230
         H            2.662638126334     0.556161199381     0.885140247629     1.007825032230
         H            3.049817126334    -0.924454800619    -0.000230752371     1.007825032230
         H            2.663333126334     0.557749199381    -0.883240752371     1.007825032230
         H           -2.139687873666     1.318164199381    -0.000644752371     1.007825032230

  Basis Set: AUG-CC-PVTZ
    Blend: AUG-CC-PVTZ
  Basis Set: (AUG-CC-PVTZ AUX)
    Blend: AUG-CC-PVTZ-JKFIT
	 Reference Energy          =    -231.0614383776702994 [Eh]
	 Singles Energy            =      -0.0000000000000000 [Eh]
	 Same-Spin Energy          =      -0.2292178215630817 [Eh]
	 Opposite-Spin Energy      =      -0.7933598671993969 [Eh]
	 Correlation Energy        =      -1.0225776887624787 [Eh]
	 Total Energy              =    -232.0840160664327811 [Eh]

	 ================> DF-SCS-MP2 Energies <==================
	-----------------------------------------------------------
	 SCS Same-Spin Scale       =       0.3333333333333333 [-]
	 SCS Opposite-Spin Scale   =       1.2000000000000000 [-]
	 SCS Same-Spin Energy      =      -0.0764059405210272 [Eh]
	 SCS Opposite-Spin Energy  =      -0.9520318406392763 [Eh]
	 SCS Correlation Energy    =      -1.0284377811603036 [Eh]
	 SCS Total Energy          =    -232.0898761588306058 [Eh]
	-----------------------------------------------------------

  Dipole Moment: [D]
     X:     1.4798      Y:     2.1312      Z:    -0.0008     Total:     2.5946

*** Psi4 exiting successfully. Buy a developer a beer!
