                               Psi4 1.3.2 release

  ==> Input File <==

--------------------------------------------------------------------------
#psi4
#
memory 32 gb

molecule  {
0 1
  O       -1.9983450    -0.7282080     0.0003470
  C        0.8217550    -0.4600250    -0.0005990
  C       -0.1044437     0.8088494     0.0000089
  C        2.2978970    -0.0745110     0.0003180
  C       -1.5581360     0.4144240    -0.0001330
  H        0.5909330    -1.0784560     0.8725540
  H        0.5917080    -1.0769800    -0.8750200
  H        0.1002270     1.3980580     0.8739280
  H        0.1003310     1.3991950    -0.8729740
  H        2.5495760     0.5185710     0.8851420
  H        2.9367550    -0.9620450    -0.0002290
  H        2.5502710     0.5201590    -0.8832390
  H       -2.2527500     1.2805740    -0.0006430
units angstrom
no_reorient  #important for SAPT in psi4, default
symmetry c1  #important for SAPT in psi4, default
}

set PROPERTIES_ORIGIN ["COM"]
properties('MP2/aug-cc-pvtz', properties = ['dipole'])
--------------------------------------------------------------------------

    Molecular point group: c1
  Charge       = 0
  Multiplicity = 1
  Basis Set: AUG-CC-PVTZ
    Blend: AUG-CC-PVTZ
  Basis Set: (AUG-CC-PVTZ AUX)
    Blend: AUG-CC-PVTZ-JKFIT

    Orbital Energies [Eh]
    ---------------------

    Doubly Occupied:

       1A    -20.559817     2A    -11.335848     3A    -11.242251
       4A    -11.229221     5A    -11.219489     6A     -1.383266
       7A     -1.076088     8A     -0.978575     9A     -0.843488
      10A     -0.774235    11A     -0.669640    12A     -0.651527
      13A     -0.630965    14A     -0.572300    15A     -0.569231
      16A     -0.507797    17A     -0.502120    18A     -0.484903
      19A     -0.483886    20A     -0.420246

  @DF-RHF Final Energy:  -231.06874289256865

   => Energetics <=

    Nuclear Repulsion Energy =            171.4227570624202883
    One-Electron Energy =                -652.7132100716140712
    Two-Electron Energy =                 250.2217101166251609
    Total Energy =                       -231.0687428925686504
  Basis Set: (AUG-CC-PVTZ AUX)
    Blend: AUG-CC-PVTZ-RI
    Molecular point group: c1

    Geometry (in Angstrom), charge = 0, multiplicity = 1:

       Center              X                  Y                   Z               Mass
    ------------   -----------------  -----------------  -----------------  -----------------
         O           -1.897656589323    -0.709222372290     0.000344165160    15.994914619570
         C            0.922443410677    -0.441039372290    -0.000601834840    12.000000000000
         C           -0.003755289323     0.827835027710     0.000006065160    12.000000000000
         C            2.398585410677    -0.055525372290     0.000315165160    12.000000000000
         C           -1.457447589323     0.433409627710    -0.000135834840    12.000000000000
         H            0.691621410677    -1.059470372290     0.872551165160     1.007825032230
         H            0.692396410677    -1.057994372290    -0.875022834840     1.007825032230
         H            0.200915410677     1.417043627710     0.873925165160     1.007825032230
         H            0.201019410677     1.418180627710    -0.872976834840     1.007825032230
         H            2.650264410677     0.537556627710     0.885139165160     1.007825032230
         H            3.037443410677    -0.943059372290    -0.000231834840     1.007825032230
         H            2.650959410677     0.539144627710    -0.883241834840     1.007825032230
         H           -2.152061589323     1.299559627710    -0.000645834840     1.007825032230

  Basis Set: AUG-CC-PVTZ
    Blend: AUG-CC-PVTZ
  Basis Set: (AUG-CC-PVTZ AUX)
    Blend: AUG-CC-PVTZ-JKFIT
	 Reference Energy          =    -231.0687428925686504 [Eh]
	 Singles Energy            =      -0.0000000000000000 [Eh]
	 Same-Spin Energy          =      -0.2291059887097408 [Eh]
	 Opposite-Spin Energy      =      -0.7931234191365542 [Eh]
	 Correlation Energy        =      -1.0222294078462950 [Eh]
	 Total Energy              =    -232.0909723004149328 [Eh]

	 ================> DF-SCS-MP2 Energies <==================
	-----------------------------------------------------------
	 SCS Same-Spin Scale       =       0.3333333333333333 [-]
	 SCS Opposite-Spin Scale   =       1.2000000000000000 [-]
	 SCS Same-Spin Energy      =      -0.0763686629032469 [Eh]
	 SCS Opposite-Spin Energy  =      -0.9517481029638649 [Eh]
	 SCS Correlation Energy    =      -1.0281167658671118 [Eh]
	 SCS Total Energy          =    -232.0968596584357613 [Eh]
	-----------------------------------------------------------

  Dipole Moment: [D]
     X:     1.5090      Y:     2.1334      Z:    -0.0007     Total:     2.6131

*** Psi4 exiting successfully. Buy a developer a beer!
