                               Psi4 1.3.2 release

  ==> Input File <==

--------------------------------------------------------------------------
#psi4
#
memory 32 gb

molecule  {
0 1
  O       -1.9983450    -0.7282080     0.0003470
  C        0.8217550    -0.4600250    -0.0005990
  C       -0.0915640     0.7578760     0.0000330
  C        2.2978970    -0.0745110     0.0003180
  C       -1.3634046     0.4600275    -0.0001110
  H        0.5909330    -1.0784560     0.8725540
  H        0.5917080    -1.0769800    -0.8750200
  H        0.1002270     1.3980580     0.8739280
  H        0.1003310     1.3991950    -0.8729740
  H        2.5495760     0.5185710     0.8851420
  H        2.9367550    -0.9620450    -0.0002290
  H        2.5502710     0.5201590    -0.8832390
  H       -2.2527500     1.2805740    -0.0006430
units angstrom
no_reorient  #important for SAPT in psi4, default
symmetry c1  #important for SAPT in psi4, default
}

set PROPERTIES_ORIGIN ["COM"]
properties('MP2/aug-cc-pvtz', properties = ['dipole'])
--------------------------------------------------------------------------

    Molecular point group: c1
  Charge       = 0
  Multiplicity = 1
  Basis Set: AUG-CC-PVTZ
    Blend: AUG-CC-PVTZ
  Basis Set: (AUG-CC-PVTZ AUX)
    Blend: AUG-CC-PVTZ-JKFIT

    Orbital Energies [Eh]
    ---------------------

    Doubly Occupied:

       1A    -20.546280     2A    -11.346992     3A    -11.247538
       4A    -11.236101     5A    -11.226586     6A     -1.309222
       7A     -1.125632     8A     -1.012783     9A     -0.856495
      10A     -0.758447    11A     -0.674939    12A     -0.670850
      13A     -0.619484    14A     -0.581111    15A     -0.554109
      16A     -0.513987    17A     -0.495027    18A     -0.492968
      19A     -0.447025    20A     -0.420369

  @DF-RHF Final Energy:  -231.00072995608940

   => Energetics <=

    Nuclear Repulsion Energy =            172.9673505761425929
    One-Electron Energy =                -655.6642732081180611
    Two-Electron Energy =                 251.6961926758860386
    Total Energy =                       -231.0007299560894012
  Basis Set: (AUG-CC-PVTZ AUX)
    Blend: AUG-CC-PVTZ-RI
    Molecular point group: c1

    Geometry (in Angstrom), charge = 0, multiplicity = 1:

       Center              X                  Y                   Z               Mass
    ------------   -----------------  -----------------  -----------------  -----------------
         O           -1.932230820813    -0.708328103315     0.000336487959    15.994914619570
         C            0.887869179187    -0.440145103315    -0.000609512041    12.000000000000
         C           -0.025449820813     0.777755896685     0.000022487959    12.000000000000
         C            2.364011179187    -0.054631103315     0.000307487959    12.000000000000
         C           -1.297290420813     0.479907396685    -0.000121512041    12.000000000000
         H            0.657047179187    -1.058576103315     0.872543487959     1.007825032230
         H            0.657822179187    -1.057100103315    -0.875030512041     1.007825032230
         H            0.166341179187     1.417937896685     0.873917487959     1.007825032230
         H            0.166445179187     1.419074896685    -0.872984512041     1.007825032230
         H            2.615690179187     0.538450896685     0.885131487959     1.007825032230
         H            3.002869179187    -0.942165103315    -0.000239512041     1.007825032230
         H            2.616385179187     0.540038896685    -0.883249512041     1.007825032230
         H           -2.186635820813     1.300453896685    -0.000653512041     1.007825032230

  Basis Set: AUG-CC-PVTZ
    Blend: AUG-CC-PVTZ
  Basis Set: (AUG-CC-PVTZ AUX)
    Blend: AUG-CC-PVTZ-JKFIT
	 Reference Energy          =    -231.0007299560894012 [Eh]
	 Singles Energy            =      -0.0000000000000000 [Eh]
	 Same-Spin Energy          =      -0.2359176130511327 [Eh]
	 Opposite-Spin Energy      =      -0.8044683836620949 [Eh]
	 Correlation Energy        =      -1.0403859967132276 [Eh]
	 Total Energy              =    -232.0411159528026417 [Eh]

	 ================> DF-SCS-MP2 Energies <==================
	-----------------------------------------------------------
	 SCS Same-Spin Scale       =       0.3333333333333333 [-]
	 SCS Opposite-Spin Scale   =       1.2000000000000000 [-]
	 SCS Same-Spin Energy      =      -0.0786392043503776 [Eh]
	 SCS Opposite-Spin Energy  =      -0.9653620603945139 [Eh]
	 SCS Correlation Energy    =      -1.0440012647448915 [Eh]
	 SCS Total Energy          =    -232.0447312208342794 [Eh]
	-----------------------------------------------------------

  Dipole Moment: [D]
     X:     2.4438      Y:     2.4043      Z:    -0.0006     Total:     3.4283

*** Psi4 exiting successfully. Buy a developer a beer!
