                               Psi4 1.3.2 release

  ==> Input File <==

--------------------------------------------------------------------------
#psi4
#
memory 32 gb

molecule  {
0 1
  O       -1.9983450    -0.7282080     0.0003470
  C        0.8217550    -0.4600250    -0.0005990
  C       -0.0915640     0.7578760     0.0000330
  C        2.2978970    -0.0745110     0.0003180
  C       -1.5612281     0.4286229     0.0217742
  H        0.5909330    -1.0784560     0.8725540
  H        0.5917080    -1.0769800    -0.8750200
  H        0.1002270     1.3980580     0.8739280
  H        0.1003310     1.3991950    -0.8729740
  H        2.5495760     0.5185710     0.8851420
  H        2.9367550    -0.9620450    -0.0002290
  H        2.5502710     0.5201590    -0.8832390
  H       -2.2527500     1.2805740    -0.0006430
units angstrom
no_reorient  #important for SAPT in psi4, default
symmetry c1  #important for SAPT in psi4, default
}

set PROPERTIES_ORIGIN ["COM"]
properties('MP2/aug-cc-pvtz', properties = ['dipole'])
--------------------------------------------------------------------------

    Molecular point group: c1
  Charge       = 0
  Multiplicity = 1
  Basis Set: AUG-CC-PVTZ
    Blend: AUG-CC-PVTZ
  Basis Set: (AUG-CC-PVTZ AUX)
    Blend: AUG-CC-PVTZ-JKFIT

    Orbital Energies [Eh]
    ---------------------

    Doubly Occupied:

       1A    -20.557805     2A    -11.336290     3A    -11.245268
       4A    -11.227218     5A    -11.220325     6A     -1.374813
       7A     -1.081435     8A     -0.977086     9A     -0.849237
      10A     -0.772815    11A     -0.670890    12A     -0.648813
      13A     -0.628303    14A     -0.568603    15A     -0.566393
      16A     -0.511582    17A     -0.496344    18A     -0.490678
      19A     -0.478682    20A     -0.424013

  @DF-RHF Final Energy:  -231.06925943938822

   => Energetics <=

    Nuclear Repulsion Energy =            171.7112029512250615
    One-Electron Energy =                -653.3077399055957812
    Two-Electron Energy =                 250.5272775149825009
    Total Energy =                       -231.0692594393882189
  Basis Set: (AUG-CC-PVTZ AUX)
    Blend: AUG-CC-PVTZ-RI
    Molecular point group: c1

    Geometry (in Angstrom), charge = 0, multiplicity = 1:

       Center              X                  Y                   Z               Mass
    ------------   -----------------  -----------------  -----------------  -----------------
         O           -1.899286553945    -0.703098181069    -0.003308133985    15.994914619570
         C            0.920813446055    -0.434915181069    -0.004254133985    12.000000000000
         C            0.007494446055     0.782985818931    -0.003622133985    12.000000000000
         C            2.396955446055    -0.049401181069    -0.003337133985    12.000000000000
         C           -1.462169653945     0.453732718931     0.018119066015    12.000000000000
         H            0.689991446055    -1.053346181069     0.868898866015     1.007825032230
         H            0.690766446055    -1.051870181069    -0.878675133985     1.007825032230
         H            0.199285446055     1.423167818931     0.870272866015     1.007825032230
         H            0.199389446055     1.424304818931    -0.876629133985     1.007825032230
         H            2.648634446055     0.543680818931     0.881486866015     1.007825032230
         H            3.035813446055    -0.936935181069    -0.003884133985     1.007825032230
         H            2.649329446055     0.545268818931    -0.886894133985     1.007825032230
         H           -2.153691553945     1.305683818931    -0.004298133985     1.007825032230

  Basis Set: AUG-CC-PVTZ
    Blend: AUG-CC-PVTZ
  Basis Set: (AUG-CC-PVTZ AUX)
    Blend: AUG-CC-PVTZ-JKFIT
	 Reference Energy          =    -231.0692594393882189 [Eh]
	 Singles Energy            =      -0.0000000000000000 [Eh]
	 Same-Spin Energy          =      -0.2297091939970741 [Eh]
	 Opposite-Spin Energy      =      -0.7939609794705360 [Eh]
	 Correlation Energy        =      -1.0236701734676101 [Eh]
	 Total Energy              =    -232.0929296128558406 [Eh]

	 ================> DF-SCS-MP2 Energies <==================
	-----------------------------------------------------------
	 SCS Same-Spin Scale       =       0.3333333333333333 [-]
	 SCS Opposite-Spin Scale   =       1.2000000000000000 [-]
	 SCS Same-Spin Energy      =      -0.0765697313323580 [Eh]
	 SCS Opposite-Spin Energy  =      -0.9527531753646432 [Eh]
	 SCS Correlation Energy    =      -1.0293229066970013 [Eh]
	 SCS Total Energy          =    -232.0985823460852089 [Eh]
	-----------------------------------------------------------

  Dipole Moment: [D]
     X:     1.5155      Y:     2.1917      Z:     0.0088     Total:     2.6647

*** Psi4 exiting successfully. Buy a developer a beer!
