                               Psi4 1.4a3.dev225

  ==> Input File <==

--------------------------------------------------------------------------
#psi4
#
memory 32 gb

molecule  {
0 1
  O       -1.9982100    -0.7282460     0.0000030
  C        0.8216780    -0.4600500    -0.0000060
  C       -0.0915260     0.7579800    -0.0000030
  C        2.2978280    -0.0745400     0.0000050
  C       -1.6068001     0.4030200     0.0000011
  H        0.5911990    -1.0776950     0.8737850
  H        0.5912090    -1.0776840    -0.8738080
  H        0.1003680     1.3986970     0.8734520
  H        0.1003630     1.3986980    -0.8734580
  H        2.5498060     0.5193220     0.8842150
  H        2.9366580    -0.9620860    -0.0000120
  H        2.5498110     0.5193580    -0.8841810
  H       -2.2529000     1.2804800     0.0000040
units angstrom
no_reorient  #important for SAPT in psi4, default
symmetry c1  #important for SAPT in psi4, default
}

set PROPERTIES_ORIGIN ["COM"]
properties('MP2/aug-cc-pvtz', properties = ['dipole'])
--------------------------------------------------------------------------

    Molecular point group: c1
  Charge       = 0
  Multiplicity = 1
  Basis Set: AUG-CC-PVTZ
    Blend: AUG-CC-PVTZ
  Basis Set: (AUG-CC-PVTZ AUX)
    Blend: AUG-CC-PVTZ-JKFIT

    Orbital Energies [Eh]
    ---------------------

    Doubly Occupied:

       1A    -20.560710     2A    -11.333052     3A    -11.242404
       4A    -11.224991     5A    -11.218693     6A     -1.402375
       7A     -1.074518     8A     -0.967209     9A     -0.846527
      10A     -0.773781    11A     -0.674796    12A     -0.644923
      13A     -0.635473    14A     -0.570088    15A     -0.565783
      16A     -0.511996    17A     -0.510242    18A     -0.488578
      19A     -0.477847    20A     -0.415340

  @DF-RHF Final Energy:  -231.07162188390021

   => Energetics <=

    Nuclear Repulsion Energy =            171.7530682375048627
    One-Electron Energy =                -653.3707274342137907
    Two-Electron Energy =                 250.5460373128087213
    Total Energy =                       -231.0716218839002067
  Basis Set: (AUG-CC-PVTZ AUX)
    Blend: AUG-CC-PVTZ-RI
    Molecular point group: c1

    Geometry (in Angstrom), charge = 0, multiplicity = 1:

       Center              X                  Y                   Z               Mass
    ------------   -----------------  -----------------  -----------------  -----------------
         O           -1.891566753254    -0.698872524493     0.000002858984    15.994914619570
         C            0.928321246746    -0.430676524493    -0.000006141016    12.000000000000
         C            0.015117246746     0.787353475507    -0.000003141016    12.000000000000
         C            2.404471246746    -0.045166524493     0.000004858984    12.000000000000
         C           -1.500156853254     0.432393475507     0.000000958984    12.000000000000
         H            0.697842246746    -1.048321524493     0.873784858984     1.007825032230
         H            0.697852246746    -1.048310524493    -0.873808141016     1.007825032230
         H            0.207011246746     1.428070475507     0.873451858984     1.007825032230
         H            0.207006246746     1.428071475507    -0.873458141016     1.007825032230
         H            2.656449246746     0.548695475507     0.884214858984     1.007825032230
         H            3.043301246746    -0.932712524493    -0.000012141016     1.007825032230
         H            2.656454246746     0.548731475507    -0.884181141016     1.007825032230
         H           -2.146256753254     1.309853475507     0.000003858984     1.007825032230

  Basis Set: AUG-CC-PVTZ
    Blend: AUG-CC-PVTZ
  Basis Set: (AUG-CC-PVTZ AUX)
    Blend: AUG-CC-PVTZ-JKFIT
	 Reference Energy          =    -231.0716218839002067 [Eh]
	 Singles Energy            =      -0.0000000000000000 [Eh]
	 Same-Spin Energy          =      -0.2284514804567488 [Eh]
	 Opposite-Spin Energy      =      -0.7914868829880966 [Eh]
	 Correlation Energy        =      -1.0199383634448453 [Eh]
	 Total Energy              =    -232.0915602473450576 [Eh]

	 ================> DF-SCS-MP2 Energies <==================
	-----------------------------------------------------------
	 SCS Same-Spin Scale       =       0.3333333333333333 [-]
	 SCS Opposite-Spin Scale   =       1.2000000000000000 [-]
	 SCS Same-Spin Energy      =      -0.0761504934855829 [Eh]
	 SCS Opposite-Spin Energy  =      -0.9497842595857158 [Eh]
	 SCS Correlation Energy    =      -1.0259347530712988 [Eh]
	 SCS Total Energy          =    -232.0975566369715182 [Eh]
	-----------------------------------------------------------

  Dipole Moment: [D]
     X:     1.2688      Y:     2.0573      Z:    -0.0000     Total:     2.4171

*** Psi4 exiting successfully. Buy a developer a beer!
