                               Psi4 1.4a3.dev225

  ==> Input File <==

--------------------------------------------------------------------------
#psi4
#
memory 32 gb

molecule  {
0 1
  O       -1.9982100    -0.7282460     0.0000030
  C        0.8216780    -0.4600500    -0.0000060
  C       -0.0915260     0.7579800    -0.0000030
  C        2.2978280    -0.0745400     0.0000050
  C       -1.5509298     0.4330876     0.0000010
  H        0.5911990    -1.0776950     0.8737850
  H        0.5912090    -1.0776840    -0.8738080
  H        0.1003680     1.3986970     0.8734520
  H        0.1003630     1.3986980    -0.8734580
  H        2.5498060     0.5193220     0.8842150
  H        2.9366580    -0.9620860    -0.0000120
  H        2.5498110     0.5193580    -0.8841810
  H       -2.2529000     1.2804800     0.0000040
units angstrom
no_reorient  #important for SAPT in psi4, default
symmetry c1  #important for SAPT in psi4, default
}

set PROPERTIES_ORIGIN ["COM"]
properties('MP2/aug-cc-pvtz', properties = ['dipole'])
--------------------------------------------------------------------------

    Molecular point group: c1
  Charge       = 0
  Multiplicity = 1
  Basis Set: AUG-CC-PVTZ
    Blend: AUG-CC-PVTZ
  Basis Set: (AUG-CC-PVTZ AUX)
    Blend: AUG-CC-PVTZ-JKFIT

    Orbital Energies [Eh]
    ---------------------

    Doubly Occupied:

       1A    -20.557135     2A    -11.336923     3A    -11.245704
       4A    -11.227687     5A    -11.220662     6A     -1.369719
       7A     -1.083121     8A     -0.979240     9A     -0.849701
      10A     -0.772385    11A     -0.670627    12A     -0.649775
      13A     -0.627035    14A     -0.568110    15A     -0.566895
      16A     -0.511564    17A     -0.493960    18A     -0.491132
      19A     -0.478474    20A     -0.425336

  @DF-RHF Final Energy:  -231.06821807470135

   => Energetics <=

    Nuclear Repulsion Energy =            171.7336444921179179
    One-Electron Energy =                -653.3533565888088788
    Two-Electron Energy =                 250.5514940219895834
    Total Energy =                       -231.0682180747013490
  Basis Set: (AUG-CC-PVTZ AUX)
    Blend: AUG-CC-PVTZ-RI
    Molecular point group: c1

    Geometry (in Angstrom), charge = 0, multiplicity = 1:

       Center              X                  Y                   Z               Mass
    ------------   -----------------  -----------------  -----------------  -----------------
         O           -1.900871037494    -0.703879791266     0.000002875637    15.994914619570
         C            0.919016962506    -0.435683791266    -0.000006124363    12.000000000000
         C            0.005812962506     0.782346208734    -0.000003124363    12.000000000000
         C            2.395166962506    -0.050173791266     0.000004875637    12.000000000000
         C           -1.453590837494     0.457453808734     0.000000875637    12.000000000000
         H            0.688537962506    -1.053328791266     0.873784875637     1.007825032230
         H            0.688547962506    -1.053317791266    -0.873808124363     1.007825032230
         H            0.197706962506     1.423063208734     0.873451875637     1.007825032230
         H            0.197701962506     1.423064208734    -0.873458124363     1.007825032230
         H            2.647144962506     0.543688208734     0.884214875637     1.007825032230
         H            3.033996962506    -0.937719791266    -0.000012124363     1.007825032230
         H            2.647149962506     0.543724208734    -0.884181124363     1.007825032230
         H           -2.155561037494     1.304846208734     0.000003875637     1.007825032230

  Basis Set: AUG-CC-PVTZ
    Blend: AUG-CC-PVTZ
  Basis Set: (AUG-CC-PVTZ AUX)
    Blend: AUG-CC-PVTZ-JKFIT
	 Reference Energy          =    -231.0682180747013490 [Eh]
	 Singles Energy            =      -0.0000000000000000 [Eh]
	 Same-Spin Energy          =      -0.2299854683778338 [Eh]
	 Opposite-Spin Energy      =      -0.7944611592454247 [Eh]
	 Correlation Energy        =      -1.0244466276232584 [Eh]
	 Total Energy              =    -232.0926647023246119 [Eh]

	 ================> DF-SCS-MP2 Energies <==================
	-----------------------------------------------------------
	 SCS Same-Spin Scale       =       0.3333333333333333 [-]
	 SCS Opposite-Spin Scale   =       1.2000000000000000 [-]
	 SCS Same-Spin Energy      =      -0.0766618227926113 [Eh]
	 SCS Opposite-Spin Energy  =      -0.9533533910945096 [Eh]
	 SCS Correlation Energy    =      -1.0300152138871208 [Eh]
	 SCS Total Energy          =    -232.0982332885884603 [Eh]
	-----------------------------------------------------------

  Dipole Moment: [D]
     X:     1.5672      Y:     2.2159      Z:    -0.0000     Total:     2.7141

*** Psi4 exiting successfully. Buy a developer a beer!
