                               Psi4 1.4a3.dev225

  ==> Input File <==

--------------------------------------------------------------------------
#psi4
#
memory 32 gb

molecule  {
0 1
  O       -1.9982100    -0.7282460     0.0000030
  C        0.8216780    -0.4600500    -0.0000060
  C       -0.0915260     0.7579800    -0.0000030
  C        2.2978280    -0.0745400     0.0000050
  C       -1.5653062     0.3957604     0.0000010
  H        0.5911990    -1.0776950     0.8737850
  H        0.5912090    -1.0776840    -0.8738080
  H        0.1003680     1.3986970     0.8734520
  H        0.1003630     1.3986980    -0.8734580
  H        2.5498060     0.5193220     0.8842150
  H        2.9366580    -0.9620860    -0.0000120
  H        2.5498110     0.5193580    -0.8841810
  H       -2.2529000     1.2804800     0.0000040
units angstrom
no_reorient  #important for SAPT in psi4, default
symmetry c1  #important for SAPT in psi4, default
}

set PROPERTIES_ORIGIN ["COM"]
properties('MP2/aug-cc-pvtz', properties = ['dipole'])
--------------------------------------------------------------------------

    Molecular point group: c1
  Charge       = 0
  Multiplicity = 1
  Basis Set: AUG-CC-PVTZ
    Blend: AUG-CC-PVTZ
  Basis Set: (AUG-CC-PVTZ AUX)
    Blend: AUG-CC-PVTZ-JKFIT

    Orbital Energies [Eh]
    ---------------------

    Doubly Occupied:

       1A    -20.559392     2A    -11.334083     3A    -11.243775
       4A    -11.226500     5A    -11.219811     6A     -1.396846
       7A     -1.080002     8A     -0.973651     9A     -0.845554
      10A     -0.769017    11A     -0.673148    12A     -0.648356
      13A     -0.635760    14A     -0.570222    15A     -0.567789
      16A     -0.512242    17A     -0.507011    18A     -0.490807
      19A     -0.479594    20A     -0.417903

  @DF-RHF Final Energy:  -231.07268458112506

   => Energetics <=

    Nuclear Repulsion Energy =            172.1179386382247003
    One-Electron Energy =                -654.0783217831225329
    Two-Electron Energy =                 250.8876985637727728
    Total Energy =                       -231.0726845811250598
  Basis Set: (AUG-CC-PVTZ AUX)
    Blend: AUG-CC-PVTZ-RI
    Molecular point group: c1

    Geometry (in Angstrom), charge = 0, multiplicity = 1:

       Center              X                  Y                   Z               Mass
    ------------   -----------------  -----------------  -----------------  -----------------
         O           -1.898476883320    -0.697663556904     0.000002875637    15.994914619570
         C            0.921411116680    -0.429467556904    -0.000006124363    12.000000000000
         C            0.008207116680     0.788562443096    -0.000003124363    12.000000000000
         C            2.397561116680    -0.043957556904     0.000004875637    12.000000000000
         C           -1.465573083320     0.426342843096     0.000000875637    12.000000000000
         H            0.690932116680    -1.047112556904     0.873784875637     1.007825032230
         H            0.690942116680    -1.047101556904    -0.873808124363     1.007825032230
         H            0.200101116680     1.429279443096     0.873451875637     1.007825032230
         H            0.200096116680     1.429280443096    -0.873458124363     1.007825032230
         H            2.649539116680     0.549904443096     0.884214875637     1.007825032230
         H            3.036391116680    -0.931503556904    -0.000012124363     1.007825032230
         H            2.649544116680     0.549940443096    -0.884181124363     1.007825032230
         H           -2.153166883320     1.311062443096     0.000003875637     1.007825032230

  Basis Set: AUG-CC-PVTZ
    Blend: AUG-CC-PVTZ
  Basis Set: (AUG-CC-PVTZ AUX)
    Blend: AUG-CC-PVTZ-JKFIT
	 Reference Energy          =    -231.0726845811250598 [Eh]
	 Singles Energy            =      -0.0000000000000000 [Eh]
	 Same-Spin Energy          =      -0.2288682365058995 [Eh]
	 Opposite-Spin Energy      =      -0.7919768446746793 [Eh]
	 Correlation Energy        =      -1.0208450811805789 [Eh]
	 Total Energy              =    -232.0935296623056274 [Eh]

	 ================> DF-SCS-MP2 Energies <==================
	-----------------------------------------------------------
	 SCS Same-Spin Scale       =       0.3333333333333333 [-]
	 SCS Opposite-Spin Scale   =       1.2000000000000000 [-]
	 SCS Same-Spin Energy      =      -0.0762894121686332 [Eh]
	 SCS Opposite-Spin Energy  =      -0.9503722136096151 [Eh]
	 SCS Correlation Energy    =      -1.0266616257782484 [Eh]
	 SCS Total Energy          =    -232.0993462069033058 [Eh]
	-----------------------------------------------------------

  Dipole Moment: [D]
     X:     1.4755      Y:     2.0528      Z:    -0.0000     Total:     2.5280

*** Psi4 exiting successfully. Buy a developer a beer!
