                               Psi4 1.3.2 release

  ==> Input File <==

--------------------------------------------------------------------------
#psi4
#
memory 32 gb

molecule  {
0 1
  O       -1.9983450    -0.7282080     0.0003470
  C        0.8217550    -0.4600250    -0.0005990
  C       -0.0915640     0.7578760     0.0000330
  C        2.2978970    -0.0745110     0.0003180
  C       -1.4607703     0.4372258    -0.0001220
  H        0.5909330    -1.0784560     0.8725540
  H        0.5917080    -1.0769800    -0.8750200
  H        0.1002270     1.3980580     0.8739280
  H        0.1003310     1.3991950    -0.8729740
  H        2.5495760     0.5185710     0.8851420
  H        2.9367550    -0.9620450    -0.0002290
  H        2.5502710     0.5201590    -0.8832390
  H       -2.2527500     1.2805740    -0.0006430
units angstrom
no_reorient  #important for SAPT in psi4, default
symmetry c1  #important for SAPT in psi4, default
}

set PROPERTIES_ORIGIN ["COM"]
properties('MP2/aug-cc-pvtz', properties = ['dipole'])
--------------------------------------------------------------------------

    Molecular point group: c1
  Charge       = 0
  Multiplicity = 1
  Basis Set: AUG-CC-PVTZ
    Blend: AUG-CC-PVTZ
  Basis Set: (AUG-CC-PVTZ AUX)
    Blend: AUG-CC-PVTZ-JKFIT

    Orbital Energies [Eh]
    ---------------------

    Doubly Occupied:

       1A    -20.553216     2A    -11.341518     3A    -11.247185
       4A    -11.231347     5A    -11.223274     6A     -1.345119
       7A     -1.099913     8A     -0.995345     9A     -0.851364
      10A     -0.763891    11A     -0.671738    12A     -0.658547
      13A     -0.622981    14A     -0.572957    15A     -0.564072
      16A     -0.512304    17A     -0.495056    18A     -0.489479
      19A     -0.470583    20A     -0.426312

  @DF-RHF Final Energy:  -231.05078780246649

   => Energetics <=

    Nuclear Repulsion Energy =            172.3541283644838416
    One-Electron Energy =                -654.5374313342684900
    Two-Electron Energy =                 251.1325151673181892
    Total Energy =                       -231.0507878024664876
  Basis Set: (AUG-CC-PVTZ AUX)
    Blend: AUG-CC-PVTZ-RI
    Molecular point group: c1

    Geometry (in Angstrom), charge = 0, multiplicity = 1:

       Center              X                  Y                   Z               Mass
    ------------   -----------------  -----------------  -----------------  -----------------
         O           -1.916016156708    -0.704530853292     0.000338319829    15.994914619570
         C            0.904083843292    -0.436347853292    -0.000607680171    12.000000000000
         C           -0.009235156708     0.781553146708     0.000024319829    12.000000000000
         C            2.380225843292    -0.050833853292     0.000309319829    12.000000000000
         C           -1.378441456708     0.460902946708    -0.000130680171    12.000000000000
         H            0.673261843292    -1.054778853292     0.872545319829     1.007825032230
         H            0.674036843292    -1.053302853292    -0.875028680171     1.007825032230
         H            0.182555843292     1.421735146708     0.873919319829     1.007825032230
         H            0.182659843292     1.422872146708    -0.872982680171     1.007825032230
         H            2.631904843292     0.542248146708     0.885133319829     1.007825032230
         H            3.019083843292    -0.938367853292    -0.000237680171     1.007825032230
         H            2.632599843292     0.543836146708    -0.883247680171     1.007825032230
         H           -2.170421156708     1.304251146708    -0.000651680171     1.007825032230

  Basis Set: AUG-CC-PVTZ
    Blend: AUG-CC-PVTZ
  Basis Set: (AUG-CC-PVTZ AUX)
    Blend: AUG-CC-PVTZ-JKFIT
	 Reference Energy          =    -231.0507878024664876 [Eh]
	 Singles Energy            =      -0.0000000000000000 [Eh]
	 Same-Spin Energy          =      -0.2321412475410749 [Eh]
	 Opposite-Spin Energy      =      -0.7979908723674721 [Eh]
	 Correlation Energy        =      -1.0301321199085471 [Eh]
	 Total Energy              =    -232.0809199223750454 [Eh]

	 ================> DF-SCS-MP2 Energies <==================
	-----------------------------------------------------------
	 SCS Same-Spin Scale       =       0.3333333333333333 [-]
	 SCS Opposite-Spin Scale   =       1.2000000000000000 [-]
	 SCS Same-Spin Energy      =      -0.0773804158470250 [Eh]
	 SCS Opposite-Spin Energy  =      -0.9575890468409665 [Eh]
	 SCS Correlation Energy    =      -1.0349694626879915 [Eh]
	 SCS Total Energy          =    -232.0857572651544842 [Eh]
	-----------------------------------------------------------

  Dipole Moment: [D]
     X:     1.9895      Y:     2.2800      Z:    -0.0007     Total:     3.0260

*** Psi4 exiting successfully. Buy a developer a beer!
