                               Psi4 1.3.2 release

  ==> Input File <==

--------------------------------------------------------------------------
#psi4
#
memory 32 gb

molecule  {
0 1
  O       -1.9983450    -0.7282080     0.0003470
  C        0.8217550    -0.4600250    -0.0005990
  C       -0.0915640     0.7578760     0.0000330
  C        2.2978970    -0.0745110     0.0003180
  C       -1.5581360     0.4144240    -0.0001330
  H        0.5909330    -1.0784560     0.8725540
  H        0.5917080    -1.0769800    -0.8750200
  H        0.1002270     1.3980580     0.8739280
  H        0.1003310     1.3991950    -0.8729740
  H        2.5495760     0.5185710     0.8851420
  H        2.9367550    -0.9620450    -0.0002290
  H        2.5502710     0.5201590    -0.8832390
  H       -2.3153125     1.3585864    -0.0006889
units angstrom
no_reorient  #important for SAPT in psi4, default
symmetry c1  #important for SAPT in psi4, default
}

set PROPERTIES_ORIGIN ["COM"]
properties('MP2/aug-cc-pvtz', properties = ['dipole'])
--------------------------------------------------------------------------

    Molecular point group: c1
  Charge       = 0
  Multiplicity = 1
  Basis Set: AUG-CC-PVTZ
    Blend: AUG-CC-PVTZ
  Basis Set: (AUG-CC-PVTZ AUX)
    Blend: AUG-CC-PVTZ-JKFIT

    Orbital Energies [Eh]
    ---------------------

    Doubly Occupied:

       1A    -20.561380     2A    -11.346958     3A    -11.247125
       4A    -11.228310     5A    -11.221162     6A     -1.385111
       7A     -1.082657     8A     -0.975868     9A     -0.842865
      10A     -0.760507    11A     -0.663086    12A     -0.650218
      13A     -0.632097    14A     -0.568809    15A     -0.568273
      16A     -0.512867    17A     -0.502265    18A     -0.492022
      19A     -0.480533    20A     -0.418023

  @DF-RHF Final Energy:  -231.06427995104846

   => Energetics <=

    Nuclear Repulsion Energy =            171.4932980643322082
    One-Electron Energy =                -652.8348822351047147
    Two-Electron Energy =                 250.2773042197240727
    Total Energy =                       -231.0642799510484622
  Basis Set: (AUG-CC-PVTZ AUX)
    Blend: AUG-CC-PVTZ-RI
    Molecular point group: c1

    Geometry (in Angstrom), charge = 0, multiplicity = 1:

       Center              X                  Y                   Z               Mass
    ------------   -----------------  -----------------  -----------------  -----------------
         O           -1.898926468621    -0.701824699038     0.000340793675    15.994914619570
         C            0.921173531379    -0.433641699038    -0.000605206325    12.000000000000
         C            0.007854531379     0.784259300962     0.000026793675    12.000000000000
         C            2.397315531379    -0.048127699038     0.000311793675    12.000000000000
         C           -1.458717468621     0.440807300962    -0.000139206325    12.000000000000
         H            0.690351531379    -1.052072699038     0.872547793675     1.007825032230
         H            0.691126531379    -1.050596699038    -0.875026206325     1.007825032230
         H            0.199645531379     1.424441300962     0.873921793675     1.007825032230
         H            0.199749531379     1.425578300962    -0.872980206325     1.007825032230
         H            2.648994531379     0.544954300962     0.885135793675     1.007825032230
         H            3.036173531379    -0.935661699038    -0.000235206325     1.007825032230
         H            2.649689531379     0.546542300962    -0.883245206325     1.007825032230
         H           -2.215893968621     1.384969700962    -0.000695106325     1.007825032230

  Basis Set: AUG-CC-PVTZ
    Blend: AUG-CC-PVTZ
  Basis Set: (AUG-CC-PVTZ AUX)
    Blend: AUG-CC-PVTZ-JKFIT
	 Reference Energy          =    -231.0642799510484622 [Eh]
	 Singles Energy            =      -0.0000000000000000 [Eh]
	 Same-Spin Energy          =      -0.2298163704951917 [Eh]
	 Opposite-Spin Energy      =      -0.7941985817358164 [Eh]
	 Correlation Energy        =      -1.0240149522310080 [Eh]
	 Total Energy              =    -232.0882949032794613 [Eh]

	 ================> DF-SCS-MP2 Energies <==================
	-----------------------------------------------------------
	 SCS Same-Spin Scale       =       0.3333333333333333 [-]
	 SCS Opposite-Spin Scale   =       1.2000000000000000 [-]
	 SCS Same-Spin Energy      =      -0.0766054568317305 [Eh]
	 SCS Opposite-Spin Energy  =      -0.9530382980829796 [Eh]
	 SCS Correlation Energy    =      -1.0296437549147102 [Eh]
	 SCS Total Energy          =    -232.0939237059631637 [Eh]
	-----------------------------------------------------------

  Dipole Moment: [D]
     X:     1.6269      Y:     2.0112      Z:    -0.0007     Total:     2.5868

*** Psi4 exiting successfully. Buy a developer a beer!
