                               Psi4 1.3.2 release

  ==> Input File <==

--------------------------------------------------------------------------
#psi4
#
memory 32 gb

molecule  {
0 1
  O       -2.0182196    -0.7203513     0.0003384
  C        0.8217550    -0.4600250    -0.0005990
  C       -0.0915640     0.7578760     0.0000330
  C        2.2978970    -0.0745110     0.0003180
  C       -1.5581360     0.4144240    -0.0001330
  H        0.5909330    -1.0784560     0.8725540
  H        0.5917080    -1.0769800    -0.8750200
  H        0.1002270     1.3980580     0.8739280
  H        0.1003310     1.3991950    -0.8729740
  H        2.5495760     0.5185710     0.8851420
  H        2.9367550    -0.9620450    -0.0002290
  H        2.5502710     0.5201590    -0.8832390
  H       -2.2527500     1.2805740    -0.0006430
units angstrom
no_reorient  #important for SAPT in psi4, default
symmetry c1  #important for SAPT in psi4, default
}

set PROPERTIES_ORIGIN ["COM"]
properties('MP2/aug-cc-pvtz', properties = ['dipole'])
--------------------------------------------------------------------------

    Molecular point group: c1
  Charge       = 0
  Multiplicity = 1
  Basis Set: AUG-CC-PVTZ
    Blend: AUG-CC-PVTZ
  Basis Set: (AUG-CC-PVTZ AUX)
    Blend: AUG-CC-PVTZ-JKFIT

    Orbital Energies [Eh]
    ---------------------

    Doubly Occupied:

       1A    -20.558234     2A    -11.335349     3A    -11.245576
       4A    -11.227639     5A    -11.220643     6A     -1.382787
       7A     -1.082243     8A     -0.976911     9A     -0.847677
      10A     -0.770795    11A     -0.671331    12A     -0.649450
      13A     -0.631356    14A     -0.569593    15A     -0.567437
      16A     -0.512617    17A     -0.500466    18A     -0.491596
      19A     -0.479777    20A     -0.421489

  @DF-RHF Final Energy:  -231.07114146783630

   => Energetics <=

    Nuclear Repulsion Energy =            171.7595520094192523
    One-Electron Energy =                -653.3754526800454414
    Two-Electron Energy =                 250.5447592027898622
    Total Energy =                       -231.0711414678362985
  Basis Set: (AUG-CC-PVTZ AUX)
    Blend: AUG-CC-PVTZ-RI
    Molecular point group: c1

    Geometry (in Angstrom), charge = 0, multiplicity = 1:

       Center              X                  Y                   Z               Mass
    ------------   -----------------  -----------------  -----------------  -----------------
         O           -1.915264442677    -0.694620871902     0.000333460678    15.994914619570
         C            0.924710157323    -0.434294571902    -0.000603939322    12.000000000000
         C            0.011391157323     0.783606428098     0.000028060678    12.000000000000
         C            2.400852157323    -0.048780571902     0.000313060678    12.000000000000
         C           -1.455180842677     0.440154428098    -0.000137939322    12.000000000000
         H            0.693888157323    -1.052725571902     0.872549060678     1.007825032230
         H            0.694663157323    -1.051249571902    -0.875024939322     1.007825032230
         H            0.203182157323     1.423788428098     0.873923060678     1.007825032230
         H            0.203286157323     1.424925428098    -0.872978939322     1.007825032230
         H            2.652531157323     0.544301428098     0.885137060678     1.007825032230
         H            3.039710157323    -0.936314571902    -0.000233939322     1.007825032230
         H            2.653226157323     0.545889428098    -0.883243939322     1.007825032230
         H           -2.149794842677     1.306304428098    -0.000647939322     1.007825032230

  Basis Set: AUG-CC-PVTZ
    Blend: AUG-CC-PVTZ
  Basis Set: (AUG-CC-PVTZ AUX)
    Blend: AUG-CC-PVTZ-JKFIT
	 Reference Energy          =    -231.0711414678362985 [Eh]
	 Singles Energy            =      -0.0000000000000000 [Eh]
	 Same-Spin Energy          =      -0.2293677127513195 [Eh]
	 Opposite-Spin Energy      =      -0.7931470009158829 [Eh]
	 Correlation Energy        =      -1.0225147136672024 [Eh]
	 Total Energy              =    -232.0936561815034906 [Eh]

	 ================> DF-SCS-MP2 Energies <==================
	-----------------------------------------------------------
	 SCS Same-Spin Scale       =       0.3333333333333333 [-]
	 SCS Opposite-Spin Scale   =       1.2000000000000000 [-]
	 SCS Same-Spin Energy      =      -0.0764559042504398 [Eh]
	 SCS Opposite-Spin Energy  =      -0.9517764010990594 [Eh]
	 SCS Correlation Energy    =      -1.0282323053494993 [Eh]
	 SCS Total Energy          =    -232.0993737731857891 [Eh]
	-----------------------------------------------------------

  Dipole Moment: [D]
     X:     1.5761      Y:     2.1246      Z:    -0.0007     Total:     2.6453

*** Psi4 exiting successfully. Buy a developer a beer!
