                               Psi4 1.4a3.dev225

  ==> Input File <==

--------------------------------------------------------------------------
#psi4
#
memory 32 gb

molecule  {
0 1
  O       -1.9982100    -0.7282460     0.0000030
  C        0.8216780    -0.4600500    -0.0000060
  C       -0.0915260     0.7579800    -0.0000030
  C        2.2978280    -0.0745400     0.0000050
  C       -1.5581180     0.4144240     0.0000010
  H        0.5911990    -1.0776950     0.8737850
  H        0.5912090    -1.0776840    -0.8738080
  H        0.1003680     1.3986970     0.8734520
  H        0.1003630     1.3986980    -0.8734580
  H        2.5498060     0.5193220     0.8842150
  H        2.9366580    -0.9620860    -0.0000120
  H        2.5498110     0.5193580    -0.8841810
  H       -2.2841879     1.3194808     0.0000041
units angstrom
no_reorient  #important for SAPT in psi4, default
symmetry c1  #important for SAPT in psi4, default
}

set PROPERTIES_ORIGIN ["COM"]
properties('MP2/aug-cc-pvtz', properties = ['dipole'])
--------------------------------------------------------------------------

    Molecular point group: c1
  Charge       = 0
  Multiplicity = 1
  Basis Set: AUG-CC-PVTZ
    Blend: AUG-CC-PVTZ
  Basis Set: (AUG-CC-PVTZ AUX)
    Blend: AUG-CC-PVTZ-JKFIT

    Orbital Energies [Eh]
    ---------------------

    Doubly Occupied:

       1A    -20.559709     2A    -11.341321     3A    -11.245884
       4A    -11.227657     5A    -11.220671     6A     -1.383962
       7A     -1.082042     8A     -0.976013     9A     -0.844806
      10A     -0.765175    11A     -0.667480    12A     -0.649585
      13A     -0.631708    14A     -0.569084    15A     -0.567649
      16A     -0.512302    17A     -0.501156    18A     -0.491477
      19A     -0.479938    20A     -0.420051

  @DF-RHF Final Energy:  -231.06874523857877

   => Energetics <=

    Nuclear Repulsion Energy =            171.7013207983327732
    One-Electron Energy =                -653.2647863901385108
    Two-Electron Energy =                 250.4947203532269953
    Total Energy =                       -231.0687452385787708
  Basis Set: (AUG-CC-PVTZ AUX)
    Blend: AUG-CC-PVTZ-RI
    Molecular point group: c1

    Geometry (in Angstrom), charge = 0, multiplicity = 1:

       Center              X                  Y                   Z               Mass
    ------------   -----------------  -----------------  -----------------  -----------------
         O           -1.899236355406    -0.701317154769     0.000002874239    15.994914619570
         C            0.920651644594    -0.433121154769    -0.000006125761    12.000000000000
         C            0.007447644594     0.784908845231    -0.000003125761    12.000000000000
         C            2.396801644594    -0.047611154769     0.000004874239    12.000000000000
         C           -1.459144355406     0.441352845231     0.000000874239    12.000000000000
         H            0.690172644594    -1.050766154769     0.873784874239     1.007825032230
         H            0.690182644594    -1.050755154769    -0.873808125761     1.007825032230
         H            0.199341644594     1.425625845231     0.873451874239     1.007825032230
         H            0.199336644594     1.425626845231    -0.873458125761     1.007825032230
         H            2.648779644594     0.546250845231     0.884214874239     1.007825032230
         H            3.035631644594    -0.935157154769    -0.000012125761     1.007825032230
         H            2.648784644594     0.546286845231    -0.884181125761     1.007825032230
         H           -2.185214255406     1.346409645231     0.000003974239     1.007825032230

  Basis Set: AUG-CC-PVTZ
    Blend: AUG-CC-PVTZ
  Basis Set: (AUG-CC-PVTZ AUX)
    Blend: AUG-CC-PVTZ-JKFIT
	 Reference Energy          =    -231.0687452385787708 [Eh]
	 Singles Energy            =      -0.0000000000000000 [Eh]
	 Same-Spin Energy          =      -0.2295996290525651 [Eh]
	 Opposite-Spin Energy      =      -0.7936390992975711 [Eh]
	 Correlation Energy        =      -1.0232387283501363 [Eh]
	 Total Energy              =    -232.0919839669288933 [Eh]

	 ================> DF-SCS-MP2 Energies <==================
	-----------------------------------------------------------
	 SCS Same-Spin Scale       =       0.3333333333333333 [-]
	 SCS Opposite-Spin Scale   =       1.2000000000000000 [-]
	 SCS Same-Spin Energy      =      -0.0765332096841884 [Eh]
	 SCS Opposite-Spin Energy  =      -0.9523669191570854 [Eh]
	 SCS Correlation Energy    =      -1.0289001288412738 [Eh]
	 SCS Total Energy          =    -232.0976453674200570 [Eh]
	-----------------------------------------------------------

  Dipole Moment: [D]
     X:     1.5707      Y:     2.0784      Z:    -0.0000     Total:     2.6052

*** Psi4 exiting successfully. Buy a developer a beer!
