                               Psi4 1.3.2 release

  ==> Input File <==

--------------------------------------------------------------------------
#psi4
#
memory 32 gb

molecule  {
0 1
  O       -1.9983450    -0.7282080     0.0003470
  C        0.8217550    -0.4600250    -0.0005990
  C       -0.0915640     0.7578760     0.0000330
  C        2.2978970    -0.0745110     0.0003180
  C       -1.5638725     0.4429221     0.0436748
  H        0.5909330    -1.0784560     0.8725540
  H        0.5917080    -1.0769800    -0.8750200
  H        0.1002270     1.3980580     0.8739280
  H        0.1003310     1.3991950    -0.8729740
  H        2.5495760     0.5185710     0.8851420
  H        2.9367550    -0.9620450    -0.0002290
  H        2.5502710     0.5201590    -0.8832390
  H       -2.2527500     1.2805740    -0.0006430
units angstrom
no_reorient  #important for SAPT in psi4, default
symmetry c1  #important for SAPT in psi4, default
}

set PROPERTIES_ORIGIN ["COM"]
properties('MP2/aug-cc-pvtz', properties = ['dipole'])
--------------------------------------------------------------------------

    Molecular point group: c1
  Charge       = 0
  Multiplicity = 1
  Basis Set: AUG-CC-PVTZ
    Blend: AUG-CC-PVTZ
  Basis Set: (AUG-CC-PVTZ AUX)
    Blend: AUG-CC-PVTZ-JKFIT

    Orbital Energies [Eh]
    ---------------------

    Doubly Occupied:

       1A    -20.557512     2A    -11.337273     3A    -11.245886
       4A    -11.227377     5A    -11.220429     6A     -1.366518
       7A     -1.081372     8A     -0.977770     9A     -0.850897
      10A     -0.774997    11A     -0.670177    12A     -0.648611
      13A     -0.625268    14A     -0.567792    15A     -0.565764
      16A     -0.511360    17A     -0.492817    18A     -0.490322
      19A     -0.477591    20A     -0.425911

  @DF-RHF Final Energy:  -231.06624028074481

   => Energetics <=

    Nuclear Repulsion Energy =            171.4964805809466952
    One-Electron Energy =                -652.8941595581496813
    Two-Electron Energy =                 250.3314386964581786
    Total Energy =                       -231.0662402807448075
  Basis Set: (AUG-CC-PVTZ AUX)
    Blend: AUG-CC-PVTZ-RI
    Molecular point group: c1

    Geometry (in Angstrom), charge = 0, multiplicity = 1:

       Center              X                  Y                   Z               Mass
    ------------   -----------------  -----------------  -----------------  -----------------
         O           -1.898846172396    -0.705479478847    -0.006955320548    15.994914619570
         C            0.921253827604    -0.437296478847    -0.007901320548    12.000000000000
         C            0.007934827604     0.780604521153    -0.007269320548    12.000000000000
         C            2.397395827604    -0.051782478847    -0.006984320548    12.000000000000
         C           -1.464373672396     0.465650621153     0.036372479452    12.000000000000
         H            0.690431827604    -1.055727478847     0.865251679452     1.007825032230
         H            0.691206827604    -1.054251478847    -0.882322320548     1.007825032230
         H            0.199725827604     1.420786521153     0.866625679452     1.007825032230
         H            0.199829827604     1.421923521153    -0.880276320548     1.007825032230
         H            2.649074827604     0.541299521153     0.877839679452     1.007825032230
         H            3.036253827604    -0.939316478847    -0.007531320548     1.007825032230
         H            2.649769827604     0.542887521153    -0.890541320548     1.007825032230
         H           -2.153251172396     1.303302521153    -0.007945320548     1.007825032230

  Basis Set: AUG-CC-PVTZ
    Blend: AUG-CC-PVTZ
  Basis Set: (AUG-CC-PVTZ AUX)
    Blend: AUG-CC-PVTZ-JKFIT
	 Reference Energy          =    -231.0662402807448075 [Eh]
	 Singles Energy            =      -0.0000000000000000 [Eh]
	 Same-Spin Energy          =      -0.2300572816307820 [Eh]
	 Opposite-Spin Energy      =      -0.7948648314106463 [Eh]
	 Correlation Energy        =      -1.0249221130414283 [Eh]
	 Total Energy              =    -232.0911623937862487 [Eh]

	 ================> DF-SCS-MP2 Energies <==================
	-----------------------------------------------------------
	 SCS Same-Spin Scale       =       0.3333333333333333 [-]
	 SCS Opposite-Spin Scale   =       1.2000000000000000 [-]
	 SCS Same-Spin Energy      =      -0.0766857605435940 [Eh]
	 SCS Opposite-Spin Energy  =      -0.9538377976927755 [Eh]
	 SCS Correlation Energy    =      -1.0305235582363697 [Eh]
	 SCS Total Energy          =    -232.0967638389811896 [Eh]
	-----------------------------------------------------------

  Dipole Moment: [D]
     X:     1.5115      Y:     2.2407      Z:     0.0176     Total:     2.7030

*** Psi4 exiting successfully. Buy a developer a beer!
