                               Psi4 1.3.2 release

  ==> Input File <==

--------------------------------------------------------------------------
#psi4
#
memory 32 gb

molecule  {
0 1
  O       -1.9983450    -0.7282080     0.0003470
  C        0.8217550    -0.4600250    -0.0005990
  C       -0.0915640     0.7578760     0.0000330
  C        2.2978970    -0.0745110     0.0003180
  C       -1.5506128     0.3863443    -0.0439406
  H        0.5909330    -1.0784560     0.8725540
  H        0.5917080    -1.0769800    -0.8750200
  H        0.1002270     1.3980580     0.8739280
  H        0.1003310     1.3991950    -0.8729740
  H        2.5495760     0.5185710     0.8851420
  H        2.9367550    -0.9620450    -0.0002290
  H        2.5502710     0.5201590    -0.8832390
  H       -2.2527500     1.2805740    -0.0006430
units angstrom
no_reorient  #important for SAPT in psi4, default
symmetry c1  #important for SAPT in psi4, default
}

set PROPERTIES_ORIGIN ["COM"]
properties('MP2/aug-cc-pvtz', properties = ['dipole'])
--------------------------------------------------------------------------

    Molecular point group: c1
  Charge       = 0
  Multiplicity = 1
  Basis Set: AUG-CC-PVTZ
    Blend: AUG-CC-PVTZ
  Basis Set: (AUG-CC-PVTZ AUX)
    Blend: AUG-CC-PVTZ-JKFIT

    Orbital Energies [Eh]
    ---------------------

    Doubly Occupied:

       1A    -20.559587     2A    -11.334482     3A    -11.244048
       4A    -11.226947     5A    -11.220137     6A     -1.398816
       7A     -1.081928     8A     -0.975387     9A     -0.844749
      10A     -0.766576    11A     -0.673007    12A     -0.649602
      13A     -0.637016    14A     -0.570501    15A     -0.568902
      16A     -0.512561    17A     -0.507668    18A     -0.491694
      19A     -0.480245    20A     -0.416865

  @DF-RHF Final Energy:  -231.07137903697205

   => Energetics <=

    Nuclear Repulsion Energy =            172.3127762367651030
    One-Electron Energy =                -654.4468725816084316
    Two-Electron Energy =                 251.0627173078712815
    Total Energy =                       -231.0713790369720471
  Basis Set: (AUG-CC-PVTZ AUX)
    Blend: AUG-CC-PVTZ-RI
    Molecular point group: c1

    Geometry (in Angstrom), charge = 0, multiplicity = 1:

       Center              X                  Y                   Z               Mass
    ------------   -----------------  -----------------  -----------------  -----------------
         O           -1.901054358458    -0.696057372059     0.007635590640    15.994914619570
         C            0.919045641542    -0.427874372059     0.006689590640    12.000000000000
         C            0.005726641542     0.790026627941     0.007321590640    12.000000000000
         C            2.395187641542    -0.042360372059     0.007606590640    12.000000000000
         C           -1.453322158458     0.418494927941    -0.036652009360    12.000000000000
         H            0.688223641542    -1.046305372059     0.879842590640     1.007825032230
         H            0.688998641542    -1.044829372059    -0.867731409360     1.007825032230
         H            0.197517641542     1.430208627941     0.881216590640     1.007825032230
         H            0.197621641542     1.431345627941    -0.865685409360     1.007825032230
         H            2.646866641542     0.550721627941     0.892430590640     1.007825032230
         H            3.034045641542    -0.929894372059     0.007059590640     1.007825032230
         H            2.647561641542     0.552309627941    -0.875950409360     1.007825032230
         H           -2.155459358458     1.312724627941     0.006645590640     1.007825032230

  Basis Set: AUG-CC-PVTZ
    Blend: AUG-CC-PVTZ
  Basis Set: (AUG-CC-PVTZ AUX)
    Blend: AUG-CC-PVTZ-JKFIT
	 Reference Energy          =    -231.0713790369720471 [Eh]
	 Singles Energy            =      -0.0000000000000000 [Eh]
	 Same-Spin Energy          =      -0.2289576626515101 [Eh]
	 Opposite-Spin Energy      =      -0.7920289796407832 [Eh]
	 Correlation Energy        =      -1.0209866422922933 [Eh]
	 Total Energy              =    -232.0923656792643328 [Eh]

	 ================> DF-SCS-MP2 Energies <==================
	-----------------------------------------------------------
	 SCS Same-Spin Scale       =       0.3333333333333333 [-]
	 SCS Opposite-Spin Scale   =       1.2000000000000000 [-]
	 SCS Same-Spin Energy      =      -0.0763192208838367 [Eh]
	 SCS Opposite-Spin Energy  =      -0.9504347755689398 [Eh]
	 SCS Correlation Energy    =      -1.0267539964527765 [Eh]
	 SCS Total Energy          =    -232.0981330334248298 [Eh]
	-----------------------------------------------------------

  Dipole Moment: [D]
     X:     1.5445      Y:     2.0159      Z:    -0.0213     Total:     2.5397

*** Psi4 exiting successfully. Buy a developer a beer!
