                               Psi4 1.3.2 release

  ==> Input File <==

--------------------------------------------------------------------------
#psi4
#
memory 32 gb

molecule  {
0 1
  O       -1.9983450    -0.7282080     0.0003470
  C        0.8217550    -0.4600250    -0.0005990
  C       -0.0915640     0.7578760     0.0000330
  C        2.2978970    -0.0745110     0.0003180
  C       -1.6300364     0.2277952    -0.0000546
  H        0.5909330    -1.0784560     0.8725540
  H        0.5917080    -1.0769800    -0.8750200
  H        0.1002270     1.3980580     0.8739280
  H        0.1003310     1.3991950    -0.8729740
  H        2.5495760     0.5185710     0.8851420
  H        2.9367550    -0.9620450    -0.0002290
  H        2.5502710     0.5201590    -0.8832390
  H       -2.2527500     1.2805740    -0.0006430
units angstrom
no_reorient  #important for SAPT in psi4, default
symmetry c1  #important for SAPT in psi4, default
}

set PROPERTIES_ORIGIN ["COM"]
properties('MP2/aug-cc-pvtz', properties = ['dipole'])
--------------------------------------------------------------------------

    Molecular point group: c1
  Charge       = 0
  Multiplicity = 1
  Basis Set: AUG-CC-PVTZ
    Blend: AUG-CC-PVTZ
  Basis Set: (AUG-CC-PVTZ AUX)
    Blend: AUG-CC-PVTZ-JKFIT

    Orbital Energies [Eh]
    ---------------------

    Doubly Occupied:

       1A    -20.574787     2A    -11.323712     3A    -11.233424
       4A    -11.222147     5A    -11.216213     6A     -1.545992
       7A     -1.068314     8A     -0.950061     9A     -0.827186
      10A     -0.763281    11A     -0.715196    12A     -0.676037
      13A     -0.659728    14A     -0.617036    15A     -0.571044
      16A     -0.537633    17A     -0.517985    18A     -0.487664
      19A     -0.476575    20A     -0.365851

  @DF-RHF Final Energy:  -230.99828309766377

   => Energetics <=

    Nuclear Repulsion Energy =            174.4731250516765044
    One-Electron Energy =                -658.2430841476523256
    Two-Electron Energy =                 252.7716759983120483
    Total Energy =                       -230.9982830976637729
  Basis Set: (AUG-CC-PVTZ AUX)
    Blend: AUG-CC-PVTZ-RI
    Molecular point group: c1

    Geometry (in Angstrom), charge = 0, multiplicity = 1:

       Center              X                  Y                   Z               Mass
    ------------   -----------------  -----------------  -----------------  -----------------
         O           -1.887827657514    -0.669653613850     0.000327095462    15.994914619570
         C            0.932272342486    -0.401470613850    -0.000618904538    12.000000000000
         C            0.018953342486     0.816430386150     0.000013095462    12.000000000000
         C            2.408414342486    -0.015956613850     0.000298095462    12.000000000000
         C           -1.519519057514     0.286349586150    -0.000074504538    12.000000000000
         H            0.701450342486    -1.019901613850     0.872534095462     1.007825032230
         H            0.702225342486    -1.018425613850    -0.875039904538     1.007825032230
         H            0.210744342486     1.456612386150     0.873908095462     1.007825032230
         H            0.210848342486     1.457749386150    -0.872993904538     1.007825032230
         H            2.660093342486     0.577125386150     0.885122095462     1.007825032230
         H            3.047272342486    -0.903490613850    -0.000248904538     1.007825032230
         H            2.660788342486     0.578713386150    -0.883258904538     1.007825032230
         H           -2.142232657514     1.339128386150    -0.000662904538     1.007825032230

  Basis Set: AUG-CC-PVTZ
    Blend: AUG-CC-PVTZ
  Basis Set: (AUG-CC-PVTZ AUX)
    Blend: AUG-CC-PVTZ-JKFIT
	 Reference Energy          =    -230.9982830976637729 [Eh]
	 Singles Energy            =      -0.0000000000000000 [Eh]
	 Same-Spin Energy          =      -0.2251863464076166 [Eh]
	 Opposite-Spin Energy      =      -0.7834311308334109 [Eh]
	 Correlation Energy        =      -1.0086174772410275 [Eh]
	 Total Energy              =    -232.0069005749047903 [Eh]

	 ================> DF-SCS-MP2 Energies <==================
	-----------------------------------------------------------
	 SCS Same-Spin Scale       =       0.3333333333333333 [-]
	 SCS Opposite-Spin Scale   =       1.2000000000000000 [-]
	 SCS Same-Spin Energy      =      -0.0750621154692055 [Eh]
	 SCS Opposite-Spin Energy  =      -0.9401173570000930 [Eh]
	 SCS Correlation Energy    =      -1.0151794724692986 [Eh]
	 SCS Total Energy          =    -232.0134625701330719 [Eh]
	-----------------------------------------------------------

  Dipole Moment: [D]
     X:     1.0409      Y:     0.9752      Z:    -0.0003     Total:     1.4264

*** Psi4 exiting successfully. Buy a developer a beer!
