                               Psi4 1.3.2 release

  ==> Input File <==

--------------------------------------------------------------------------
#psi4
#
memory 32 gb

molecule  {
0 1
  O       -1.9983450    -0.7282080     0.0003470
  C        0.8217550    -0.4600250    -0.0005990
  C       -0.0915640     0.7578760     0.0000330
  C        2.2978970    -0.0745110     0.0003180
  C       -1.5221858     0.5077384    -0.0001722
  H        0.5909330    -1.0784560     0.8725540
  H        0.5917080    -1.0769800    -0.8750200
  H        0.1002270     1.3980580     0.8739280
  H        0.1003310     1.3991950    -0.8729740
  H        2.5495760     0.5185710     0.8851420
  H        2.9367550    -0.9620450    -0.0002290
  H        2.5502710     0.5201590    -0.8832390
  H       -2.2527500     1.2805740    -0.0006430
units angstrom
no_reorient  #important for SAPT in psi4, default
symmetry c1  #important for SAPT in psi4, default
}

set PROPERTIES_ORIGIN ["COM"]
properties('MP2/aug-cc-pvtz', properties = ['dipole'])
--------------------------------------------------------------------------

    Molecular point group: c1
  Charge       = 0
  Multiplicity = 1
  Basis Set: AUG-CC-PVTZ
    Blend: AUG-CC-PVTZ
  Basis Set: (AUG-CC-PVTZ AUX)
    Blend: AUG-CC-PVTZ-JKFIT

    Orbital Energies [Eh]
    ---------------------

    Doubly Occupied:

       1A    -20.552634     2A    -11.342826     3A    -11.249415
       4A    -11.230267     5A    -11.222430     6A     -1.322120
       7A     -1.089935     8A     -0.990351     9A     -0.857729
      10A     -0.779962    11A     -0.671241    12A     -0.653427
      13A     -0.613303    14A     -0.568618    15A     -0.559085
      16A     -0.512505    17A     -0.490928    18A     -0.486309
      19A     -0.458744    20A     -0.433856

  @DF-RHF Final Energy:  -231.04552435600891

   => Energetics <=

    Nuclear Repulsion Energy =            171.0734128000816270
    One-Electron Energy =                -652.0665060955403760
    Two-Electron Energy =                 249.9475689394498090
    Total Energy =                       -231.0455243560089116
  Basis Set: (AUG-CC-PVTZ AUX)
    Blend: AUG-CC-PVTZ-RI
    Molecular point group: c1

    Geometry (in Angstrom), charge = 0, multiplicity = 1:

       Center              X                  Y                   Z               Mass
    ------------   -----------------  -----------------  -----------------  -----------------
         O           -1.905788410146    -0.716273572999     0.000346679818    15.994914619570
         C            0.914311589854    -0.448090572999    -0.000599320182    12.000000000000
         C            0.000992589854     0.769810427001     0.000032679818    12.000000000000
         C            2.390453589854    -0.062576572999     0.000317679818    12.000000000000
         C           -1.429629210146     0.519672827001    -0.000172520182    12.000000000000
         H            0.683489589854    -1.066521572999     0.872553679818     1.007825032230
         H            0.684264589854    -1.065045572999    -0.875020320182     1.007825032230
         H            0.192783589854     1.409992427001     0.873927679818     1.007825032230
         H            0.192887589854     1.411129427001    -0.872974320182     1.007825032230
         H            2.642132589854     0.530505427001     0.885141679818     1.007825032230
         H            3.029311589854    -0.950110572999    -0.000229320182     1.007825032230
         H            2.642827589854     0.532093427001    -0.883239320182     1.007825032230
         H           -2.160193410146     1.292508427001    -0.000643320182     1.007825032230

  Basis Set: AUG-CC-PVTZ
    Blend: AUG-CC-PVTZ
  Basis Set: (AUG-CC-PVTZ AUX)
    Blend: AUG-CC-PVTZ-JKFIT
	 Reference Energy          =    -231.0455243560089116 [Eh]
	 Singles Energy            =      -0.0000000000000000 [Eh]
	 Same-Spin Energy          =      -0.2326227659461202 [Eh]
	 Opposite-Spin Energy      =      -0.8001448071916406 [Eh]
	 Correlation Energy        =      -1.0327675731377608 [Eh]
	 Total Energy              =    -232.0782919291466726 [Eh]

	 ================> DF-SCS-MP2 Energies <==================
	-----------------------------------------------------------
	 SCS Same-Spin Scale       =       0.3333333333333333 [-]
	 SCS Opposite-Spin Scale   =       1.2000000000000000 [-]
	 SCS Same-Spin Energy      =      -0.0775409219820401 [Eh]
	 SCS Opposite-Spin Energy  =      -0.9601737686299687 [Eh]
	 SCS Correlation Energy    =      -1.0377146906120087 [Eh]
	 SCS Total Energy          =    -232.0832390466209176 [Eh]
	-----------------------------------------------------------

  Dipole Moment: [D]
     X:     1.7418      Y:     2.4638      Z:    -0.0008     Total:     3.0173

*** Psi4 exiting successfully. Buy a developer a beer!
