                               Psi4 1.3.2 release

  ==> Input File <==

--------------------------------------------------------------------------
#psi4
#
memory 32 gb

molecule  {
0 1
  O       -1.9983450    -0.7282080     0.0003470
  C        0.8217550    -0.4600250    -0.0005990
  C       -0.1354985     0.9092930    -0.0000398
  C        2.2978970    -0.0745110     0.0003180
  C       -1.5581360     0.4144240    -0.0001330
  H        0.5909330    -1.0784560     0.8725540
  H        0.5917080    -1.0769800    -0.8750200
  H        0.1002270     1.3980580     0.8739280
  H        0.1003310     1.3991950    -0.8729740
  H        2.5495760     0.5185710     0.8851420
  H        2.9367550    -0.9620450    -0.0002290
  H        2.5502710     0.5201590    -0.8832390
  H       -2.2527500     1.2805740    -0.0006430
units angstrom
no_reorient  #important for SAPT in psi4, default
symmetry c1  #important for SAPT in psi4, default
}

set PROPERTIES_ORIGIN ["COM"]
properties('MP2/aug-cc-pvtz', properties = ['dipole'])
--------------------------------------------------------------------------

    Molecular point group: c1
  Charge       = 0
  Multiplicity = 1
  Basis Set: AUG-CC-PVTZ
    Blend: AUG-CC-PVTZ
  Basis Set: (AUG-CC-PVTZ AUX)
    Blend: AUG-CC-PVTZ-JKFIT

    Orbital Energies [Eh]
    ---------------------

    Doubly Occupied:

       1A    -20.562847     2A    -11.337342     3A    -11.239489
       4A    -11.233501     5A    -11.218622     6A     -1.384043
       7A     -1.067987     8A     -0.982865     9A     -0.836986
      10A     -0.781112    11A     -0.665812    12A     -0.660892
      13A     -0.632446    14A     -0.582086    15A     -0.568449
      16A     -0.507972    17A     -0.505675    18A     -0.487233
      19A     -0.467244    20A     -0.412859

  @DF-RHF Final Energy:  -231.04930721687347

   => Energetics <=

    Nuclear Repulsion Energy =            170.4592024086359459
    One-Electron Energy =                -650.7460968374898584
    Two-Electron Energy =                 249.2375872119804114
    Total Energy =                       -231.0493072168734727
  Basis Set: (AUG-CC-PVTZ AUX)
    Blend: AUG-CC-PVTZ-RI
    Molecular point group: c1

    Geometry (in Angstrom), charge = 0, multiplicity = 1:

       Center              X                  Y                   Z               Mass
    ------------   -----------------  -----------------  -----------------  -----------------
         O           -1.892484920543    -0.725949610276     0.000352275348    15.994914619570
         C            0.927615079457    -0.457766610276    -0.000593724652    12.000000000000
         C           -0.029638420543     0.911551389724    -0.000034524652    12.000000000000
         C            2.403757079457    -0.072252610276     0.000323275348    12.000000000000
         C           -1.452275920543     0.416682389724    -0.000127724652    12.000000000000
         H            0.696793079457    -1.076197610276     0.872559275348     1.007825032230
         H            0.697568079457    -1.074721610276    -0.875014724652     1.007825032230
         H            0.206087079457     1.400316389724     0.873933275348     1.007825032230
         H            0.206191079457     1.401453389724    -0.872968724652     1.007825032230
         H            2.655436079457     0.520829389724     0.885147275348     1.007825032230
         H            3.042615079457    -0.959786610276    -0.000223724652     1.007825032230
         H            2.656131079457     0.522417389724    -0.883233724652     1.007825032230
         H           -2.146889920543     1.282832389724    -0.000637724652     1.007825032230

  Basis Set: AUG-CC-PVTZ
    Blend: AUG-CC-PVTZ
  Basis Set: (AUG-CC-PVTZ AUX)
    Blend: AUG-CC-PVTZ-JKFIT
	 Reference Energy          =    -231.0493072168734727 [Eh]
	 Singles Energy            =      -0.0000000000000000 [Eh]
	 Same-Spin Energy          =      -0.2290757849486009 [Eh]
	 Opposite-Spin Energy      =      -0.7941421107095998 [Eh]
	 Correlation Energy        =      -1.0232178956582008 [Eh]
	 Total Energy              =    -232.0725251125316788 [Eh]

	 ================> DF-SCS-MP2 Energies <==================
	-----------------------------------------------------------
	 SCS Same-Spin Scale       =       0.3333333333333333 [-]
	 SCS Opposite-Spin Scale   =       1.2000000000000000 [-]
	 SCS Same-Spin Energy      =      -0.0763585949828670 [Eh]
	 SCS Opposite-Spin Energy  =      -0.9529705328515198 [Eh]
	 SCS Correlation Energy    =      -1.0293291278343868 [Eh]
	 SCS Total Energy          =    -232.0786363447078600 [Eh]
	-----------------------------------------------------------

  Dipole Moment: [D]
     X:     1.5056      Y:     2.0965      Z:    -0.0008     Total:     2.5811

*** Psi4 exiting successfully. Buy a developer a beer!
