                               Psi4 1.3.2 release

  ==> Input File <==

--------------------------------------------------------------------------
#psi4
#
memory 32 gb

molecule  {
0 1
  O       -1.9983450    -0.7282080     0.0003470
  C        0.8217550    -0.4600250    -0.0005990
  C       -0.0977814     0.7834189     0.0000210
  C        2.2978970    -0.0745110     0.0003180
  C       -1.5581360     0.4144240    -0.0001330
  H        0.5909330    -1.0784560     0.8725540
  H        0.5917080    -1.0769800    -0.8750200
  H        0.1002270     1.3980580     0.8739280
  H        0.1003310     1.3991950    -0.8729740
  H        2.5495760     0.5185710     0.8851420
  H        2.9367550    -0.9620450    -0.0002290
  H        2.5502710     0.5201590    -0.8832390
  H       -2.2527500     1.2805740    -0.0006430
units angstrom
no_reorient  #important for SAPT in psi4, default
symmetry c1  #important for SAPT in psi4, default
}

set PROPERTIES_ORIGIN ["COM"]
properties('MP2/aug-cc-pvtz', properties = ['dipole'])
--------------------------------------------------------------------------

    Molecular point group: c1
  Charge       = 0
  Multiplicity = 1
  Basis Set: AUG-CC-PVTZ
    Blend: AUG-CC-PVTZ
  Basis Set: (AUG-CC-PVTZ AUX)
    Blend: AUG-CC-PVTZ-JKFIT

    Orbital Energies [Eh]
    ---------------------

    Doubly Occupied:

       1A    -20.559035     2A    -11.335633     3A    -11.243412
       4A    -11.228153     5A    -11.219837     6A     -1.383117
       7A     -1.078687     8A     -0.977509     9A     -0.845496
      10A     -0.772450    11A     -0.670614    12A     -0.650082
      13A     -0.631036    14A     -0.569679    15A     -0.569304
      16A     -0.509449    17A     -0.500990    18A     -0.488378
      19A     -0.481965    20A     -0.421200

  @DF-RHF Final Energy:  -231.07061499416926

   => Energetics <=

    Nuclear Repulsion Energy =            171.6696335310084010
    One-Electron Energy =                -653.2084468441796616
    Two-Electron Energy =                 250.4681983190019992
    Total Energy =                       -231.0706149941692615
  Basis Set: (AUG-CC-PVTZ AUX)
    Blend: AUG-CC-PVTZ-RI
    Molecular point group: c1

    Geometry (in Angstrom), charge = 0, multiplicity = 1:

       Center              X                  Y                   Z               Mass
    ------------   -----------------  -----------------  -----------------  -----------------
         O           -1.898766086370    -0.704987338644     0.000342150103    15.994914619570
         C            0.921333913630    -0.436804338644    -0.000603849897    12.000000000000
         C            0.001797513630     0.806639561356     0.000016150103    12.000000000000
         C            2.397475913630    -0.051290338644     0.000313150103    12.000000000000
         C           -1.458557086370     0.437644661356    -0.000137849897    12.000000000000
         H            0.690511913630    -1.055235338644     0.872549150103     1.007825032230
         H            0.691286913630    -1.053759338644    -0.875024849897     1.007825032230
         H            0.199805913630     1.421278661356     0.873923150103     1.007825032230
         H            0.199909913630     1.422415661356    -0.872978849897     1.007825032230
         H            2.649154913630     0.541791661356     0.885137150103     1.007825032230
         H            3.036333913630    -0.938824338644    -0.000233849897     1.007825032230
         H            2.649849913630     0.543379661356    -0.883243849897     1.007825032230
         H           -2.153171086370     1.303794661356    -0.000647849897     1.007825032230

  Basis Set: AUG-CC-PVTZ
    Blend: AUG-CC-PVTZ
  Basis Set: (AUG-CC-PVTZ AUX)
    Blend: AUG-CC-PVTZ-JKFIT
	 Reference Energy          =    -231.0706149941692615 [Eh]
	 Singles Energy            =      -0.0000000000000000 [Eh]
	 Same-Spin Energy          =      -0.2292336758616961 [Eh]
	 Opposite-Spin Energy      =      -0.7931071608160295 [Eh]
	 Correlation Energy        =      -1.0223408366777256 [Eh]
	 Total Energy              =    -232.0929558308469893 [Eh]

	 ================> DF-SCS-MP2 Energies <==================
	-----------------------------------------------------------
	 SCS Same-Spin Scale       =       0.3333333333333333 [-]
	 SCS Opposite-Spin Scale   =       1.2000000000000000 [-]
	 SCS Same-Spin Energy      =      -0.0764112252872320 [Eh]
	 SCS Opposite-Spin Energy  =      -0.9517285929792354 [Eh]
	 SCS Correlation Energy    =      -1.0281398182664674 [Eh]
	 SCS Total Energy          =    -232.0987548124357431 [Eh]
	-----------------------------------------------------------

  Dipole Moment: [D]
     X:     1.5146      Y:     2.1369      Z:    -0.0007     Total:     2.6192

*** Psi4 exiting successfully. Buy a developer a beer!
