                               Psi4 1.3.2 release

  ==> Input File <==

--------------------------------------------------------------------------
#psi4
#
memory 32 gb

molecule  {
0 1
  O       -1.9983450    -0.7282080     0.0003470
  C        0.8217550    -0.4600250    -0.0005990
  C       -0.0915640     0.7578760     0.0000330
  C        2.2978970    -0.0745110     0.0003180
  C       -1.7528674     0.3688205    -0.0001550
  H        0.5909330    -1.0784560     0.8725540
  H        0.5917080    -1.0769800    -0.8750200
  H        0.1002270     1.3980580     0.8739280
  H        0.1003310     1.3991950    -0.8729740
  H        2.5495760     0.5185710     0.8851420
  H        2.9367550    -0.9620450    -0.0002290
  H        2.5502710     0.5201590    -0.8832390
  H       -2.2527500     1.2805740    -0.0006430
units angstrom
no_reorient  #important for SAPT in psi4, default
symmetry c1  #important for SAPT in psi4, default
}

set PROPERTIES_ORIGIN ["COM"]
properties('MP2/aug-cc-pvtz', properties = ['dipole'])
--------------------------------------------------------------------------

    Molecular point group: c1
  Charge       = 0
  Multiplicity = 1
  Basis Set: AUG-CC-PVTZ
    Blend: AUG-CC-PVTZ
  Basis Set: (AUG-CC-PVTZ AUX)
    Blend: AUG-CC-PVTZ-JKFIT

    Orbital Energies [Eh]
    ---------------------

    Doubly Occupied:

       1A    -20.571222     2A    -11.331646     3A    -11.229407
       4A    -11.218155     5A    -11.213339     6A     -1.461742
       7A     -1.058005     8A     -0.942534     9A     -0.847799
      10A     -0.779204    11A     -0.697349    12A     -0.647907
      13A     -0.634452    14A     -0.578629    15A     -0.568162
      16A     -0.526498    17A     -0.512292    18A     -0.480133
      19A     -0.470128    20A     -0.381058

  @DF-RHF Final Energy:  -231.04081097065949

   => Energetics <=

    Nuclear Repulsion Energy =            171.3611504124772864
    One-Electron Energy =                -652.5046043740022697
    Two-Electron Energy =                 250.1026429908654904
    Total Energy =                       -231.0408109706594928
  Basis Set: (AUG-CC-PVTZ AUX)
    Blend: AUG-CC-PVTZ-RI
    Molecular point group: c1

    Geometry (in Angstrom), charge = 0, multiplicity = 1:

       Center              X                  Y                   Z               Mass
    ------------   -----------------  -----------------  -----------------  -----------------
         O           -1.867372164392    -0.693139069917     0.000343815439    15.994914619570
         C            0.952727835608    -0.424956069917    -0.000602184561    12.000000000000
         C            0.039408835608     0.792944930083     0.000029815439    12.000000000000
         C            2.428869835608    -0.039442069917     0.000314815439    12.000000000000
         C           -1.621894564392     0.403889430083    -0.000158184561    12.000000000000
         H            0.721905835608    -1.043387069917     0.872550815439     1.007825032230
         H            0.722680835608    -1.041911069917    -0.875023184561     1.007825032230
         H            0.231199835608     1.433126930083     0.873924815439     1.007825032230
         H            0.231303835608     1.434263930083    -0.872977184561     1.007825032230
         H            2.680548835608     0.553639930083     0.885138815439     1.007825032230
         H            3.067727835608    -0.926976069917    -0.000232184561     1.007825032230
         H            2.681243835608     0.555227930083    -0.883242184561     1.007825032230
         H           -2.121777164392     1.315642930083    -0.000646184561     1.007825032230

  Basis Set: AUG-CC-PVTZ
    Blend: AUG-CC-PVTZ
  Basis Set: (AUG-CC-PVTZ AUX)
    Blend: AUG-CC-PVTZ-JKFIT
	 Reference Energy          =    -231.0408109706594928 [Eh]
	 Singles Energy            =      -0.0000000000000000 [Eh]
	 Same-Spin Energy          =      -0.2271103629543861 [Eh]
	 Opposite-Spin Energy      =      -0.7890609833605875 [Eh]
	 Correlation Energy        =      -1.0161713463149735 [Eh]
	 Total Energy              =    -232.0569823169744552 [Eh]

	 ================> DF-SCS-MP2 Energies <==================
	-----------------------------------------------------------
	 SCS Same-Spin Scale       =       0.3333333333333333 [-]
	 SCS Opposite-Spin Scale   =       1.2000000000000000 [-]
	 SCS Same-Spin Energy      =      -0.0757034543181287 [Eh]
	 SCS Opposite-Spin Energy  =      -0.9468731800327049 [Eh]
	 SCS Correlation Energy    =      -1.0225766343508336 [Eh]
	 SCS Total Energy          =    -232.0633876050103197 [Eh]
	-----------------------------------------------------------

  Dipole Moment: [D]
     X:     0.3702      Y:     1.7654      Z:    -0.0008     Total:     1.8038

*** Psi4 exiting successfully. Buy a developer a beer!
