                               Psi4 1.4a3.dev225

  ==> Input File <==

--------------------------------------------------------------------------
#psi4
#
memory 32 gb

molecule  {
0 1
  O       -1.9982100    -0.7282460     0.0000030
  C        0.8216780    -0.4600500    -0.0000060
  C       -0.0915260     0.7579800    -0.0000030
  C        2.2978280    -0.0745400     0.0000050
  C       -1.5775908     0.4098624     0.0000011
  H        0.5911990    -1.0776950     0.8737850
  H        0.5912090    -1.0776840    -0.8738080
  H        0.1003680     1.3986970     0.8734520
  H        0.1003630     1.3986980    -0.8734580
  H        2.5498060     0.5193220     0.8842150
  H        2.9366580    -0.9620860    -0.0000120
  H        2.5498110     0.5193580    -0.8841810
  H       -2.2529000     1.2804800     0.0000040
units angstrom
no_reorient  #important for SAPT in psi4, default
symmetry c1  #important for SAPT in psi4, default
}

set PROPERTIES_ORIGIN ["COM"]
properties('MP2/aug-cc-pvtz', properties = ['dipole'])
--------------------------------------------------------------------------

    Molecular point group: c1
  Charge       = 0
  Multiplicity = 1
  Basis Set: AUG-CC-PVTZ
    Blend: AUG-CC-PVTZ
  Basis Set: (AUG-CC-PVTZ AUX)
    Blend: AUG-CC-PVTZ-JKFIT

    Orbital Energies [Eh]
    ---------------------

    Doubly Occupied:

       1A    -20.559209     2A    -11.334438     3A    -11.243915
       4A    -11.226250     5A    -11.219625     6A     -1.390719
       7A     -1.078592     8A     -0.972707     9A     -0.847120
      10A     -0.771954    11A     -0.672573    12A     -0.647342
      13A     -0.633031    14A     -0.569746    15A     -0.566390
      16A     -0.511870    17A     -0.504231    18A     -0.490046
      19A     -0.478909    20A     -0.419599

  @DF-RHF Final Energy:  -231.07204275131809

   => Energetics <=

    Nuclear Repulsion Energy =            171.8503470064542853
    One-Electron Energy =                -653.5682506113229238
    Two-Electron Energy =                 250.6458608535505448
    Total Energy =                       -231.0720427513180937
  Basis Set: (AUG-CC-PVTZ AUX)
    Blend: AUG-CC-PVTZ-RI
    Molecular point group: c1

    Geometry (in Angstrom), charge = 0, multiplicity = 1:

       Center              X                  Y                   Z               Mass
    ------------   -----------------  -----------------  -----------------  -----------------
         O           -1.896431084207    -0.700012014248     0.000002858984    15.994914619570
         C            0.923456915793    -0.431816014248    -0.000006141016    12.000000000000
         C            0.010252915793     0.786213985752    -0.000003141016    12.000000000000
         C            2.399606915793    -0.046306014248     0.000004858984    12.000000000000
         C           -1.475811884207     0.438096385752     0.000000958984    12.000000000000
         H            0.692977915793    -1.049461014248     0.873784858984     1.007825032230
         H            0.692987915793    -1.049450014248    -0.873808141016     1.007825032230
         H            0.202146915793     1.426930985752     0.873451858984     1.007825032230
         H            0.202141915793     1.426931985752    -0.873458141016     1.007825032230
         H            2.651584915793     0.547555985752     0.884214858984     1.007825032230
         H            3.038436915793    -0.933852014248    -0.000012141016     1.007825032230
         H            2.651589915793     0.547591985752    -0.884181141016     1.007825032230
         H           -2.151121084207     1.308713985752     0.000003858984     1.007825032230

  Basis Set: AUG-CC-PVTZ
    Blend: AUG-CC-PVTZ
  Basis Set: (AUG-CC-PVTZ AUX)
    Blend: AUG-CC-PVTZ-JKFIT
	 Reference Energy          =    -231.0720427513180937 [Eh]
	 Singles Energy            =      -0.0000000000000000 [Eh]
	 Same-Spin Energy          =      -0.2289945128364610 [Eh]
	 Opposite-Spin Energy      =      -0.7924512576170823 [Eh]
	 Correlation Energy        =      -1.0214457704535433 [Eh]
	 Total Energy              =    -232.0934885217716328 [Eh]

	 ================> DF-SCS-MP2 Energies <==================
	-----------------------------------------------------------
	 SCS Same-Spin Scale       =       0.3333333333333333 [-]
	 SCS Opposite-Spin Scale   =       1.2000000000000000 [-]
	 SCS Same-Spin Energy      =      -0.0763315042788203 [Eh]
	 SCS Opposite-Spin Energy  =      -0.9509415091404988 [Eh]
	 SCS Correlation Energy    =      -1.0272730134193191 [Eh]
	 SCS Total Energy          =    -232.0993157647374119 [Eh]
	-----------------------------------------------------------

  Dipole Moment: [D]
     X:     1.4226      Y:     2.1064      Z:    -0.0000     Total:     2.5418

*** Psi4 exiting successfully. Buy a developer a beer!
