                               Psi4 1.3.2 release

  ==> Input File <==

--------------------------------------------------------------------------
#psi4
#
memory 32 gb

molecule  {
0 1
  O       -1.9983450    -0.7282080     0.0003470
  C        0.8217550    -0.4600250    -0.0005990
  C       -0.0915640     0.7578760     0.0000330
  C        2.2978970    -0.0745110     0.0003180
  C       -1.5581360     0.4144240    -0.0001330
  H        0.5909330    -1.0784560     0.8725540
  H        0.5917080    -1.0769800    -0.8750200
  H        0.1002270     1.3980580     0.8739280
  H        0.1003310     1.3991950    -0.8729740
  H        2.5495760     0.5185710     0.8851420
  H        2.9367550    -0.9620450    -0.0002290
  H        2.5502710     0.5201590    -0.8832390
  H       -2.2527500     1.2805740    -0.0006430
units angstrom
no_reorient  #important for SAPT in psi4, default
symmetry c1  #important for SAPT in psi4, default
}

set PROPERTIES_ORIGIN ["COM"]
properties('MP2/aug-cc-pvtz', properties = ['dipole'])
--------------------------------------------------------------------------

    Molecular point group: c1
  Charge       = 0
  Multiplicity = 1
  Basis Set: AUG-CC-PVTZ
    Blend: AUG-CC-PVTZ
  Basis Set: (AUG-CC-PVTZ AUX)
    Blend: AUG-CC-PVTZ-JKFIT

    Orbital Energies [Eh]
    ---------------------

    Doubly Occupied:

       1A    -20.558246     2A    -11.335488     3A    -11.244749
       4A    -11.227091     5A    -11.220240     6A     -1.382992
       7A     -1.081546     8A     -0.976458     9A     -0.847649
      10A     -0.770658    11A     -0.671616    12A     -0.649022
      13A     -0.631306    14A     -0.569320    15A     -0.567106
      16A     -0.511849    17A     -0.500170    18A     -0.490992
      19A     -0.479380    20A     -0.421875

  @DF-RHF Final Energy:  -231.07111768981960

   => Energetics <=

    Nuclear Repulsion Energy =            171.9193727957666056
    One-Electron Energy =                -653.7054752734346721
    Two-Electron Energy =                 250.7149847878484650
    Total Energy =                       -231.0711176898196015
  Basis Set: (AUG-CC-PVTZ AUX)
    Blend: AUG-CC-PVTZ-RI
    Molecular point group: c1

    Geometry (in Angstrom), charge = 0, multiplicity = 1:

       Center              X                  Y                   Z               Mass
    ------------   -----------------  -----------------  -----------------  -----------------
         O           -1.899801492602    -0.700733586616     0.000340151699    15.994914619570
         C            0.920298507398    -0.432550586616    -0.000605848301    12.000000000000
         C            0.006979507398     0.785350413384     0.000026151699    12.000000000000
         C            2.396440507398    -0.047036586616     0.000311151699    12.000000000000
         C           -1.459592492602     0.441898413384    -0.000139848301    12.000000000000
         H            0.689476507398    -1.050981586616     0.872547151699     1.007825032230
         H            0.690251507398    -1.049505586616    -0.875026848301     1.007825032230
         H            0.198770507398     1.425532413384     0.873921151699     1.007825032230
         H            0.198874507398     1.426669413384    -0.872980848301     1.007825032230
         H            2.648119507398     0.546045413384     0.885135151699     1.007825032230
         H            3.035298507398    -0.934570586616    -0.000235848301     1.007825032230
         H            2.648814507398     0.547633413384    -0.883245848301     1.007825032230
         H           -2.154206492602     1.308048413384    -0.000649848301     1.007825032230

  Basis Set: AUG-CC-PVTZ
    Blend: AUG-CC-PVTZ
  Basis Set: (AUG-CC-PVTZ AUX)
    Blend: AUG-CC-PVTZ-JKFIT
	 Reference Energy          =    -231.0711176898196015 [Eh]
	 Singles Energy            =      -0.0000000000000000 [Eh]
	 Same-Spin Energy          =      -0.2294105063643239 [Eh]
	 Opposite-Spin Energy      =      -0.7931882086260995 [Eh]
	 Correlation Energy        =      -1.0225987149904234 [Eh]
	 Total Energy              =    -232.0937164048100385 [Eh]

	 ================> DF-SCS-MP2 Energies <==================
	-----------------------------------------------------------
	 SCS Same-Spin Scale       =       0.3333333333333333 [-]
	 SCS Opposite-Spin Scale   =       1.2000000000000000 [-]
	 SCS Same-Spin Energy      =      -0.0764701687881080 [Eh]
	 SCS Opposite-Spin Energy  =      -0.9518258503513194 [Eh]
	 SCS Correlation Energy    =      -1.0282960191394275 [Eh]
	 SCS Total Energy          =    -232.0994137089590197 [Eh]
	-----------------------------------------------------------

  Dipole Moment: [D]
     X:     1.5221      Y:     2.1377      Z:    -0.0007     Total:     2.6242

*** Psi4 exiting successfully. Buy a developer a beer!
