                               Psi4 1.3.2 release

  ==> Input File <==

--------------------------------------------------------------------------
#psi4
#
memory 32 gb

molecule  {
0 1
  O       -1.9175667    -0.7561320     0.0003800
  C        0.8217550    -0.4600250    -0.0005990
  C       -0.0915640     0.7578760     0.0000330
  C        2.2978970    -0.0745110     0.0003180
  C       -1.5581360     0.4144240    -0.0001330
  H        0.5909330    -1.0784560     0.8725540
  H        0.5917080    -1.0769800    -0.8750200
  H        0.1002270     1.3980580     0.8739280
  H        0.1003310     1.3991950    -0.8729740
  H        2.5495760     0.5185710     0.8851420
  H        2.9367550    -0.9620450    -0.0002290
  H        2.5502710     0.5201590    -0.8832390
  H       -2.2527500     1.2805740    -0.0006430
units angstrom
no_reorient  #important for SAPT in psi4, default
symmetry c1  #important for SAPT in psi4, default
}

set PROPERTIES_ORIGIN ["COM"]
properties('MP2/aug-cc-pvtz', properties = ['dipole'])
--------------------------------------------------------------------------

    Molecular point group: c1
  Charge       = 0
  Multiplicity = 1
  Basis Set: AUG-CC-PVTZ
    Blend: AUG-CC-PVTZ
  Basis Set: (AUG-CC-PVTZ AUX)
    Blend: AUG-CC-PVTZ-JKFIT

    Orbital Energies [Eh]
    ---------------------

    Doubly Occupied:

       1A    -20.558195     2A    -11.336059     3A    -11.241428
       4A    -11.224810     5A    -11.218550     6A     -1.384013
       7A     -1.078638     8A     -0.974562     9A     -0.847646
      10A     -0.769959    11A     -0.672897    12A     -0.647321
      13A     -0.631100    14A     -0.568235    15A     -0.565765
      16A     -0.508584    17A     -0.498921    18A     -0.488486
      19A     -0.477740    20A     -0.422703

  @DF-RHF Final Energy:  -231.06952083728223

   => Energetics <=

    Nuclear Repulsion Energy =            172.5982669826710776
    One-Electron Energy =                -655.1043528964988809
    Two-Electron Energy =                 251.4365650765455769
    Total Energy =                       -231.0695208372822265
  Basis Set: (AUG-CC-PVTZ AUX)
    Blend: AUG-CC-PVTZ-RI
    Molecular point group: c1

    Geometry (in Angstrom), charge = 0, multiplicity = 1:

       Center              X                  Y                   Z               Mass
    ------------   -----------------  -----------------  -----------------  -----------------
         O           -1.836953897177    -0.722459176962     0.000365826548    15.994914619570
         C            0.902367802823    -0.426352176962    -0.000613173452    12.000000000000
         C           -0.010951197177     0.791548823038     0.000018826548    12.000000000000
         C            2.378509802823    -0.040838176962     0.000303826548    12.000000000000
         C           -1.477523197177     0.448096823038    -0.000147173452    12.000000000000
         H            0.671545802823    -1.044783176962     0.872539826548     1.007825032230
         H            0.672320802823    -1.043307176962    -0.875034173452     1.007825032230
         H            0.180839802823     1.431730823038     0.873913826548     1.007825032230
         H            0.180943802823     1.432867823038    -0.872988173452     1.007825032230
         H            2.630188802823     0.552243823038     0.885127826548     1.007825032230
         H            3.017367802823    -0.928372176962    -0.000243173452     1.007825032230
         H            2.630883802823     0.553831823038    -0.883253173452     1.007825032230
         H           -2.172137197177     1.314246823038    -0.000657173452     1.007825032230

  Basis Set: AUG-CC-PVTZ
    Blend: AUG-CC-PVTZ
  Basis Set: (AUG-CC-PVTZ AUX)
    Blend: AUG-CC-PVTZ-JKFIT
	 Reference Energy          =    -231.0695208372822265 [Eh]
	 Singles Energy            =      -0.0000000000000000 [Eh]
	 Same-Spin Energy          =      -0.2296363851389148 [Eh]
	 Opposite-Spin Energy      =      -0.7934639792854626 [Eh]
	 Correlation Energy        =      -1.0231003644243775 [Eh]
	 Total Energy              =    -232.0926212017066064 [Eh]

	 ================> DF-SCS-MP2 Energies <==================
	-----------------------------------------------------------
	 SCS Same-Spin Scale       =       0.3333333333333333 [-]
	 SCS Opposite-Spin Scale   =       1.2000000000000000 [-]
	 SCS Same-Spin Energy      =      -0.0765454617129716 [Eh]
	 SCS Opposite-Spin Energy  =      -0.9521567751425551 [Eh]
	 SCS Correlation Energy    =      -1.0287022368555268 [Eh]
	 SCS Total Energy          =    -232.0982230741377634 [Eh]
	-----------------------------------------------------------

  Dipole Moment: [D]
     X:     1.3017      Y:     2.1813      Z:    -0.0008     Total:     2.5402

*** Psi4 exiting successfully. Buy a developer a beer!
