                               Psi4 1.4a3.dev225

  ==> Input File <==

--------------------------------------------------------------------------
#psi4
#
memory 32 gb

molecule  {
0 1
  O       -1.9982100    -0.7282460     0.0000030
  C        0.8216780    -0.4600500    -0.0000060
  C       -0.0915260     0.7579800    -0.0000030
  C        2.2978280    -0.0745400     0.0000050
  C       -1.5760884     0.3677650     0.0000011
  H        0.5911990    -1.0776950     0.8737850
  H        0.5912090    -1.0776840    -0.8738080
  H        0.1003680     1.3986970     0.8734520
  H        0.1003630     1.3986980    -0.8734580
  H        2.5498060     0.5193220     0.8842150
  H        2.9366580    -0.9620860    -0.0000120
  H        2.5498110     0.5193580    -0.8841810
  H       -2.2529000     1.2804800     0.0000040
units angstrom
no_reorient  #important for SAPT in psi4, default
symmetry c1  #important for SAPT in psi4, default
}

set PROPERTIES_ORIGIN ["COM"]
properties('MP2/aug-cc-pvtz', properties = ['dipole'])
--------------------------------------------------------------------------

    Molecular point group: c1
  Charge       = 0
  Multiplicity = 1
  Basis Set: AUG-CC-PVTZ
    Blend: AUG-CC-PVTZ
  Basis Set: (AUG-CC-PVTZ AUX)
    Blend: AUG-CC-PVTZ-JKFIT

    Orbital Energies [Eh]
    ---------------------

    Doubly Occupied:

       1A    -20.561221     2A    -11.332030     3A    -11.242258
       4A    -11.225657     5A    -11.219184     6A     -1.418693
       7A     -1.077790     8A     -0.969492     9A     -0.842412
      10A     -0.766737    11A     -0.676564    12A     -0.647553
      13A     -0.642664    14A     -0.571101    15A     -0.570183
      16A     -0.517144    17A     -0.513089    18A     -0.490447
      19A     -0.479383    20A     -0.411091

  @DF-RHF Final Energy:  -231.07224380514842

   => Energetics <=

    Nuclear Repulsion Energy =            172.4343421519878348
    One-Electron Energy =                -654.6637872848966708
    Two-Electron Energy =                 251.1572013277604185
    Total Energy =                       -231.0722438051484176
  Basis Set: (AUG-CC-PVTZ AUX)
    Blend: AUG-CC-PVTZ-RI
    Molecular point group: c1

    Geometry (in Angstrom), charge = 0, multiplicity = 1:

       Center              X                  Y                   Z               Mass
    ------------   -----------------  -----------------  -----------------  -----------------
         O           -1.896681284343    -0.693001381133     0.000002858984    15.994914619570
         C            0.923206715657    -0.424805381133    -0.000006141016    12.000000000000
         C            0.010002715657     0.793224618867    -0.000003141016    12.000000000000
         C            2.399356715657    -0.039295381133     0.000004858984    12.000000000000
         C           -1.474559684343     0.403009618867     0.000000958984    12.000000000000
         H            0.692727715657    -1.042450381133     0.873784858984     1.007825032230
         H            0.692737715657    -1.042439381133    -0.873808141016     1.007825032230
         H            0.201896715657     1.433941618867     0.873451858984     1.007825032230
         H            0.201891715657     1.433942618867    -0.873458141016     1.007825032230
         H            2.651334715657     0.554566618867     0.884214858984     1.007825032230
         H            3.038186715657    -0.926841381133    -0.000012141016     1.007825032230
         H            2.651339715657     0.554602618867    -0.884181141016     1.007825032230
         H           -2.151371284343     1.315724618867     0.000003858984     1.007825032230

  Basis Set: AUG-CC-PVTZ
    Blend: AUG-CC-PVTZ
  Basis Set: (AUG-CC-PVTZ AUX)
    Blend: AUG-CC-PVTZ-JKFIT
	 Reference Energy          =    -231.0722438051484176 [Eh]
	 Singles Energy            =      -0.0000000000000000 [Eh]
	 Same-Spin Energy          =      -0.2281146933926486 [Eh]
	 Opposite-Spin Energy      =      -0.7902738319000859 [Eh]
	 Correlation Energy        =      -1.0183885252927345 [Eh]
	 Total Energy              =    -232.0906323304411387 [Eh]

	 ================> DF-SCS-MP2 Energies <==================
	-----------------------------------------------------------
	 SCS Same-Spin Scale       =       0.3333333333333333 [-]
	 SCS Opposite-Spin Scale   =       1.2000000000000000 [-]
	 SCS Same-Spin Energy      =      -0.0760382311308828 [Eh]
	 SCS Opposite-Spin Energy  =      -0.9483285982801031 [Eh]
	 SCS Correlation Energy    =      -1.0243668294109860 [Eh]
	 SCS Total Energy          =    -232.0966106345593971 [Eh]
	-----------------------------------------------------------

  Dipole Moment: [D]
     X:     1.4049      Y:     1.9124      Z:    -0.0000     Total:     2.3730

*** Psi4 exiting successfully. Buy a developer a beer!
