                               Psi4 1.3.2 release

  ==> Input File <==

--------------------------------------------------------------------------
#psi4
#
memory 32 gb

molecule  {
0 1
  O       -2.0769787    -0.6947172     0.0003116
  C        0.8217550    -0.4600250    -0.0005990
  C       -0.0915640     0.7578760     0.0000330
  C        2.2978970    -0.0745110     0.0003180
  C       -1.5581360     0.4144240    -0.0001330
  H        0.5909330    -1.0784560     0.8725540
  H        0.5917080    -1.0769800    -0.8750200
  H        0.1002270     1.3980580     0.8739280
  H        0.1003310     1.3991950    -0.8729740
  H        2.5495760     0.5185710     0.8851420
  H        2.9367550    -0.9620450    -0.0002290
  H        2.5502710     0.5201590    -0.8832390
  H       -2.2527500     1.2805740    -0.0006430
units angstrom
no_reorient  #important for SAPT in psi4, default
symmetry c1  #important for SAPT in psi4, default
}

set PROPERTIES_ORIGIN ["COM"]
properties('MP2/aug-cc-pvtz', properties = ['dipole'])
--------------------------------------------------------------------------

    Molecular point group: c1
  Charge       = 0
  Multiplicity = 1
  Basis Set: AUG-CC-PVTZ
    Blend: AUG-CC-PVTZ
  Basis Set: (AUG-CC-PVTZ AUX)
    Blend: AUG-CC-PVTZ-JKFIT

    Orbital Energies [Eh]
    ---------------------

    Doubly Occupied:

       1A    -20.558144     2A    -11.334938     3A    -11.248038
       4A    -11.229229     5A    -11.221806     6A     -1.382287
       7A     -1.084259     8A     -0.978223     9A     -0.847813
      10A     -0.771119    11A     -0.670580    12A     -0.650731
      13A     -0.631482    14A     -0.570410    15A     -0.568419
      16A     -0.514807    17A     -0.501320    18A     -0.493355
      19A     -0.480933    20A     -0.419916

  @DF-RHF Final Energy:  -231.07033940396050

   => Energetics <=

    Nuclear Repulsion Energy =            171.3030211856222707
    One-Electron Energy =                -652.4311038804399914
    Two-Electron Energy =                 250.0577432908572462
    Total Energy =                       -231.0703394039605030
  Basis Set: (AUG-CC-PVTZ AUX)
    Blend: AUG-CC-PVTZ-RI
    Molecular point group: c1

    Geometry (in Angstrom), charge = 0, multiplicity = 1:

       Center              X                  Y                   Z               Mass
    ------------   -----------------  -----------------  -----------------  -----------------
         O           -1.960980534058    -0.674676882664     0.000312609589    15.994914619570
         C            0.937753165942    -0.439984682664    -0.000597990411    12.000000000000
         C            0.024434165942     0.777916317336     0.000034009589    12.000000000000
         C            2.413895165942    -0.054470682664     0.000319009589    12.000000000000
         C           -1.442137834058     0.434464317336    -0.000131990411    12.000000000000
         H            0.706931165942    -1.058415682664     0.872555009589     1.007825032230
         H            0.707706165942    -1.056939682664    -0.875018990411     1.007825032230
         H            0.216225165942     1.418098317336     0.873929009589     1.007825032230
         H            0.216329165942     1.419235317336    -0.872972990411     1.007825032230
         H            2.665574165942     0.538611317336     0.885143009589     1.007825032230
         H            3.052753165942    -0.942004682664    -0.000227990411     1.007825032230
         H            2.666269165942     0.540199317336    -0.883237990411     1.007825032230
         H           -2.136751834058     1.300614317336    -0.000641990411     1.007825032230

  Basis Set: AUG-CC-PVTZ
    Blend: AUG-CC-PVTZ
  Basis Set: (AUG-CC-PVTZ AUX)
    Blend: AUG-CC-PVTZ-JKFIT
	 Reference Energy          =    -231.0703394039605030 [Eh]
	 Singles Energy            =      -0.0000000000000000 [Eh]
	 Same-Spin Energy          =      -0.2292704676380024 [Eh]
	 Opposite-Spin Energy      =      -0.7930865985360904 [Eh]
	 Correlation Energy        =      -1.0223570661740928 [Eh]
	 Total Energy              =    -232.0926964701345980 [Eh]

	 ================> DF-SCS-MP2 Energies <==================
	-----------------------------------------------------------
	 SCS Same-Spin Scale       =       0.3333333333333333 [-]
	 SCS Opposite-Spin Scale   =       1.2000000000000000 [-]
	 SCS Same-Spin Energy      =      -0.0764234892126675 [Eh]
	 SCS Opposite-Spin Energy  =      -0.9517039182433085 [Eh]
	 SCS Correlation Energy    =      -1.0281274074559759 [Eh]
	 SCS Total Energy          =    -232.0984668114164720 [Eh]
	-----------------------------------------------------------

  Dipole Moment: [D]
     X:     1.7350      Y:     2.0799      Z:    -0.0007     Total:     2.7086

*** Psi4 exiting successfully. Buy a developer a beer!
