                               Psi4 1.3.2 release

  ==> Input File <==

--------------------------------------------------------------------------
#psi4
#
memory 32 gb

molecule  {
0 1
  O       -2.0379541    -0.7121489     0.0003337
  C        0.8217550    -0.4600250    -0.0005990
  C       -0.0915640     0.7578760     0.0000330
  C        2.2978970    -0.0745110     0.0003180
  C       -1.5581360     0.4144240    -0.0001330
  H        0.5909330    -1.0784560     0.8725540
  H        0.5917080    -1.0769800    -0.8750200
  H        0.1002270     1.3980580     0.8739280
  H        0.1003310     1.3991950    -0.8729740
  H        2.5495760     0.5185710     0.8851420
  H        2.9367550    -0.9620450    -0.0002290
  H        2.5502710     0.5201590    -0.8832390
  H       -2.2527500     1.2805740    -0.0006430
units angstrom
no_reorient  #important for SAPT in psi4, default
symmetry c1  #important for SAPT in psi4, default
}

set PROPERTIES_ORIGIN ["COM"]
properties('MP2/aug-cc-pvtz', properties = ['dipole'])
--------------------------------------------------------------------------

    Molecular point group: c1
  Charge       = 0
  Multiplicity = 1
  Basis Set: AUG-CC-PVTZ
    Blend: AUG-CC-PVTZ
  Basis Set: (AUG-CC-PVTZ AUX)
    Blend: AUG-CC-PVTZ-JKFIT

    Orbital Energies [Eh]
    ---------------------

    Doubly Occupied:

       1A    -20.558213     2A    -11.335210     3A    -11.246399
       4A    -11.228178     5A    -11.221038     6A     -1.382601
       7A     -1.082927     8A     -0.977357     9A     -0.847714
      10A     -0.770917    11A     -0.671063    12A     -0.649878
      13A     -0.631403    14A     -0.569866    15A     -0.567767
      16A     -0.513367    17A     -0.500756    18A     -0.492192
      19A     -0.480168    20A     -0.421033

  @DF-RHF Final Energy:  -231.07101874662840

   => Energetics <=

    Nuclear Repulsion Energy =            171.6035864875487675
    One-Electron Energy =                -653.0531125912316384
    Two-Electron Energy =                 250.3785073570544455
    Total Energy =                       -231.0710187466283969
  Basis Set: (AUG-CC-PVTZ AUX)
    Blend: AUG-CC-PVTZ-RI
    Molecular point group: c1

    Geometry (in Angstrom), charge = 0, multiplicity = 1:

       Center              X                  Y                   Z               Mass
    ------------   -----------------  -----------------  -----------------  -----------------
         O           -1.930618391348    -0.688239193695     0.000329803957    15.994914619570
         C            0.929090708652    -0.436115293695    -0.000602896043    12.000000000000
         C            0.015771708652     0.781785706305     0.000029103957    12.000000000000
         C            2.405232708652    -0.050601293695     0.000314103957    12.000000000000
         C           -1.450800291348     0.438333706305    -0.000136896043    12.000000000000
         H            0.698268708652    -1.054546293695     0.872550103957     1.007825032230
         H            0.699043708652    -1.053070293695    -0.875023896043     1.007825032230
         H            0.207562708652     1.421967706305     0.873924103957     1.007825032230
         H            0.207666708652     1.423104706305    -0.872977896043     1.007825032230
         H            2.656911708652     0.542480706305     0.885138103957     1.007825032230
         H            3.044090708652    -0.938135293695    -0.000232896043     1.007825032230
         H            2.657606708652     0.544068706305    -0.883242896043     1.007825032230
         H           -2.145414291348     1.304483706305    -0.000646896043     1.007825032230

  Basis Set: AUG-CC-PVTZ
    Blend: AUG-CC-PVTZ
  Basis Set: (AUG-CC-PVTZ AUX)
    Blend: AUG-CC-PVTZ-JKFIT
	 Reference Energy          =    -231.0710187466283969 [Eh]
	 Singles Energy            =      -0.0000000000000000 [Eh]
	 Same-Spin Energy          =      -0.2293301683068759 [Eh]
	 Opposite-Spin Energy      =      -0.7931164770678381 [Eh]
	 Correlation Energy        =      -1.0224466453747141 [Eh]
	 Total Energy              =    -232.0934653920031110 [Eh]

	 ================> DF-SCS-MP2 Energies <==================
	-----------------------------------------------------------
	 SCS Same-Spin Scale       =       0.3333333333333333 [-]
	 SCS Opposite-Spin Scale   =       1.2000000000000000 [-]
	 SCS Same-Spin Energy      =      -0.0764433894356253 [Eh]
	 SCS Opposite-Spin Energy  =      -0.9517397724814056 [Eh]
	 SCS Correlation Energy    =      -1.0281831619170310 [Eh]
	 SCS Total Energy          =    -232.0992019085454388 [Eh]
	-----------------------------------------------------------

  Dipole Moment: [D]
     X:     1.6296      Y:     2.1106      Z:    -0.0007     Total:     2.6664

*** Psi4 exiting successfully. Buy a developer a beer!
