                               Psi4 1.3.2 release

  ==> Input File <==

--------------------------------------------------------------------------
#psi4
#
memory 32 gb

molecule  {
0 1
  O       -1.9983450    -0.7282080     0.0003470
  C        0.8637028    -0.4274087    -0.0005825
  C       -0.0915640     0.7578760     0.0000330
  C        2.2978970    -0.0745110     0.0003180
  C       -1.5581360     0.4144240    -0.0001330
  H        0.5909330    -1.0784560     0.8725540
  H        0.5917080    -1.0769800    -0.8750200
  H        0.1002270     1.3980580     0.8739280
  H        0.1003310     1.3991950    -0.8729740
  H        2.5495760     0.5185710     0.8851420
  H        2.9367550    -0.9620450    -0.0002290
  H        2.5502710     0.5201590    -0.8832390
  H       -2.2527500     1.2805740    -0.0006430
units angstrom
no_reorient  #important for SAPT in psi4, default
symmetry c1  #important for SAPT in psi4, default
}

set PROPERTIES_ORIGIN ["COM"]
properties('MP2/aug-cc-pvtz', properties = ['dipole'])
--------------------------------------------------------------------------

    Molecular point group: c1
  Charge       = 0
  Multiplicity = 1
  Basis Set: AUG-CC-PVTZ
    Blend: AUG-CC-PVTZ
  Basis Set: (AUG-CC-PVTZ AUX)
    Blend: AUG-CC-PVTZ-JKFIT

    Orbital Energies [Eh]
    ---------------------

    Doubly Occupied:

       1A    -20.558742     2A    -11.336704     3A    -11.245031
       4A    -11.229616     5A    -11.219025     6A     -1.383316
       7A     -1.085711     8A     -0.982830     9A     -0.844828
      10A     -0.768527    11A     -0.672874    12A     -0.647198
      13A     -0.633130    14A     -0.571295    15A     -0.568872
      16A     -0.528815    17A     -0.499255    18A     -0.483928
      19A     -0.466725    20A     -0.423606

  @DF-RHF Final Energy:  -231.06756749639084

   => Energetics <=

    Nuclear Repulsion Energy =            172.0626195337989941
    One-Electron Energy =                -653.9603197687098373
    Two-Electron Energy =                 250.8301327385200352
    Total Energy =                       -231.0675674963908364
  Basis Set: (AUG-CC-PVTZ AUX)
    Blend: AUG-CC-PVTZ-RI
    Molecular point group: c1

    Geometry (in Angstrom), charge = 0, multiplicity = 1:

       Center              X                  Y                   Z               Mass
    ------------   -----------------  -----------------  -----------------  -----------------
         O           -1.906787212286    -0.706165297669     0.000337403894    15.994914619570
         C            0.955260587714    -0.405365997669    -0.000592096106    12.000000000000
         C           -0.000006212286     0.779918702331     0.000023403894    12.000000000000
         C            2.389454787714    -0.052468297669     0.000308403894    12.000000000000
         C           -1.466578212286     0.436466702331    -0.000142596106    12.000000000000
         H            0.682490787714    -1.056413297669     0.872544403894     1.007825032230
         H            0.683265787714    -1.054937297669    -0.875029596106     1.007825032230
         H            0.191784787714     1.420100702331     0.873918403894     1.007825032230
         H            0.191888787714     1.421237702331    -0.872983596106     1.007825032230
         H            2.641133787714     0.540613702331     0.885132403894     1.007825032230
         H            3.028312787714    -0.940002297669    -0.000238596106     1.007825032230
         H            2.641828787714     0.542201702331    -0.883248596106     1.007825032230
         H           -2.161192212286     1.302616702331    -0.000652596106     1.007825032230

  Basis Set: AUG-CC-PVTZ
    Blend: AUG-CC-PVTZ
  Basis Set: (AUG-CC-PVTZ AUX)
    Blend: AUG-CC-PVTZ-JKFIT
	 Reference Energy          =    -231.0675674963908364 [Eh]
	 Singles Energy            =      -0.0000000000000000 [Eh]
	 Same-Spin Energy          =      -0.2297897675500493 [Eh]
	 Opposite-Spin Energy      =      -0.7936672774380437 [Eh]
	 Correlation Energy        =      -1.0234570449880929 [Eh]
	 Total Energy              =    -232.0910245413789426 [Eh]

	 ================> DF-SCS-MP2 Energies <==================
	-----------------------------------------------------------
	 SCS Same-Spin Scale       =       0.3333333333333333 [-]
	 SCS Opposite-Spin Scale   =       1.2000000000000000 [-]
	 SCS Same-Spin Energy      =      -0.0765965891833497 [Eh]
	 SCS Opposite-Spin Energy  =      -0.9524007329256523 [Eh]
	 SCS Correlation Energy    =      -1.0289973221090021 [Eh]
	 SCS Total Energy          =    -232.0965648184998429 [Eh]
	-----------------------------------------------------------

  Dipole Moment: [D]
     X:     1.5384      Y:     2.1459      Z:    -0.0007     Total:     2.6404

*** Psi4 exiting successfully. Buy a developer a beer!
