                               Psi4 1.3.2 release

  ==> Input File <==

--------------------------------------------------------------------------
#psi4
#
memory 32 gb

molecule  {
0 1
  O       -1.8764959    -0.7679629     0.0003832
  C        0.8217550    -0.4600250    -0.0005990
  C       -0.0915640     0.7578760     0.0000330
  C        2.2978970    -0.0745110     0.0003180
  C       -1.5581360     0.4144240    -0.0001330
  H        0.5909330    -1.0784560     0.8725540
  H        0.5917080    -1.0769800    -0.8750200
  H        0.1002270     1.3980580     0.8739280
  H        0.1003310     1.3991950    -0.8729740
  H        2.5495760     0.5185710     0.8851420
  H        2.9367550    -0.9620450    -0.0002290
  H        2.5502710     0.5201590    -0.8832390
  H       -2.2527500     1.2805740    -0.0006430
units angstrom
no_reorient  #important for SAPT in psi4, default
symmetry c1  #important for SAPT in psi4, default
}

set PROPERTIES_ORIGIN ["COM"]
properties('MP2/aug-cc-pvtz', properties = ['dipole'])
--------------------------------------------------------------------------

    Molecular point group: c1
  Charge       = 0
  Multiplicity = 1
  Basis Set: AUG-CC-PVTZ
    Blend: AUG-CC-PVTZ
  Basis Set: (AUG-CC-PVTZ AUX)
    Blend: AUG-CC-PVTZ-JKFIT

    Orbital Energies [Eh]
    ---------------------

    Doubly Occupied:

       1A    -20.558104     2A    -11.336352     3A    -11.239765
       4A    -11.223622     5A    -11.217656     6A     -1.384651
       7A     -1.077112     8A     -0.973568     9A     -0.847721
      10A     -0.769514    11A     -0.673607    12A     -0.646487
      13A     -0.631015    14A     -0.567704    15A     -0.565087
      16A     -0.506841    17A     -0.498253    18A     -0.487185
      19A     -0.476893    20A     -0.422667

  @DF-RHF Final Energy:  -231.06778902521518

   => Energetics <=

    Nuclear Repulsion Energy =            172.9622630658088553
    One-Electron Energy =                -655.8524918732059632
    Two-Electron Energy =                 251.8224397821819025
    Total Energy =                       -231.0677890252151769
  Basis Set: (AUG-CC-PVTZ AUX)
    Blend: AUG-CC-PVTZ-RI
    Molecular point group: c1

    Geometry (in Angstrom), charge = 0, multiplicity = 1:

       Center              X                  Y                   Z               Mass
    ------------   -----------------  -----------------  -----------------  -----------------
         O           -1.804999758228    -0.731663921513     0.000368316231    15.994914619570
         C            0.893251141772    -0.423726021513    -0.000613883769    12.000000000000
         C           -0.020067858228     0.794174978487     0.000018116231    12.000000000000
         C            2.369393141772    -0.038212021513     0.000303116231    12.000000000000
         C           -1.486639858228     0.450722978487    -0.000147883769    12.000000000000
         H            0.662429141772    -1.042157021513     0.872539116231     1.007825032230
         H            0.663204141772    -1.040681021513    -0.875034883769     1.007825032230
         H            0.171723141772     1.434356978487     0.873913116231     1.007825032230
         H            0.171827141772     1.435493978487    -0.872988883769     1.007825032230
         H            2.621072141772     0.554869978487     0.885127116231     1.007825032230
         H            3.008251141772    -0.925746021513    -0.000243883769     1.007825032230
         H            2.621767141772     0.556457978487    -0.883253883769     1.007825032230
         H           -2.181253858228     1.316872978487    -0.000657883769     1.007825032230

  Basis Set: AUG-CC-PVTZ
    Blend: AUG-CC-PVTZ
  Basis Set: (AUG-CC-PVTZ AUX)
    Blend: AUG-CC-PVTZ-JKFIT
	 Reference Energy          =    -231.0677890252151769 [Eh]
	 Singles Energy            =      -0.0000000000000000 [Eh]
	 Same-Spin Energy          =      -0.2297839864688785 [Eh]
	 Opposite-Spin Energy      =      -0.7936710364212567 [Eh]
	 Correlation Energy        =      -1.0234550228901351 [Eh]
	 Total Energy              =    -232.0912440481053238 [Eh]

	 ================> DF-SCS-MP2 Energies <==================
	-----------------------------------------------------------
	 SCS Same-Spin Scale       =       0.3333333333333333 [-]
	 SCS Opposite-Spin Scale   =       1.2000000000000000 [-]
	 SCS Same-Spin Energy      =      -0.0765946621562928 [Eh]
	 SCS Opposite-Spin Energy  =      -0.9524052437055079 [Eh]
	 SCS Correlation Energy    =      -1.0289999058618007 [Eh]
	 SCS Total Energy          =    -232.0967889310769863 [Eh]
	-----------------------------------------------------------

  Dipole Moment: [D]
     X:     1.1891      Y:     2.1976      Z:    -0.0008     Total:     2.4987

*** Psi4 exiting successfully. Buy a developer a beer!
