                               Psi4 1.3.2 release

  ==> Input File <==

--------------------------------------------------------------------------
#psi4
#
memory 32 gb

molecule  {
0 1
  O       -1.9983450    -0.7282080     0.0003470
  C        0.8217550    -0.4600250    -0.0005990
  C       -0.0915640     0.7578760     0.0000330
  C        2.2978970    -0.0745110     0.0003180
  C       -1.4862356     0.6010528    -0.0002114
  H        0.5909330    -1.0784560     0.8725540
  H        0.5917080    -1.0769800    -0.8750200
  H        0.1002270     1.3980580     0.8739280
  H        0.1003310     1.3991950    -0.8729740
  H        2.5495760     0.5185710     0.8851420
  H        2.9367550    -0.9620450    -0.0002290
  H        2.5502710     0.5201590    -0.8832390
  H       -2.2527500     1.2805740    -0.0006430
units angstrom
no_reorient  #important for SAPT in psi4, default
symmetry c1  #important for SAPT in psi4, default
}

set PROPERTIES_ORIGIN ["COM"]
properties('MP2/aug-cc-pvtz', properties = ['dipole'])
--------------------------------------------------------------------------

    Molecular point group: c1
  Charge       = 0
  Multiplicity = 1
  Basis Set: AUG-CC-PVTZ
    Blend: AUG-CC-PVTZ
  Basis Set: (AUG-CC-PVTZ AUX)
    Blend: AUG-CC-PVTZ-JKFIT

    Orbital Energies [Eh]
    ---------------------

    Doubly Occupied:

       1A    -20.545724     2A    -11.350370     3A    -11.254303
       4A    -11.233788     5A    -11.224751     6A     -1.274142
       7A     -1.099222     8A     -1.003438     9A     -0.867017
      10A     -0.790873    11A     -0.678400    12A     -0.659185
      13A     -0.605727    14A     -0.573267    15A     -0.539743
      16A     -0.517603    17A     -0.488259    18A     -0.486373
      19A     -0.433369    20A     -0.427626

  @DF-RHF Final Energy:  -230.99866017324155

   => Energetics <=

    Nuclear Repulsion Energy =            170.4081619918813715
    One-Electron Energy =                -650.7072863240716742
    Two-Electron Energy =                 249.3004641589487846
    Total Energy =                       -230.9986601732415465
  Basis Set: (AUG-CC-PVTZ AUX)
    Blend: AUG-CC-PVTZ-RI
    Molecular point group: c1

    Geometry (in Angstrom), charge = 0, multiplicity = 1:

       Center              X                  Y                   Z               Mass
    ------------   -----------------  -----------------  -----------------  -----------------
         O           -1.911775327690    -0.731813559382     0.000353207936    15.994914619570
         C            0.908324672310    -0.463630559382    -0.000592792064    12.000000000000
         C           -0.004994327690     0.754270440618     0.000039207936    12.000000000000
         C            2.384466672310    -0.078116559382     0.000324207936    12.000000000000
         C           -1.399665927690     0.597447240618    -0.000205192064    12.000000000000
         H            0.677502672310    -1.082061559382     0.872560207936     1.007825032230
         H            0.678277672310    -1.080585559382    -0.875013792064     1.007825032230
         H            0.186796672310     1.394452440618     0.873934207936     1.007825032230
         H            0.186900672310     1.395589440618    -0.872967792064     1.007825032230
         H            2.636145672310     0.514965440618     0.885148207936     1.007825032230
         H            3.023324672310    -0.965650559382    -0.000222792064     1.007825032230
         H            2.636840672310     0.516553440618    -0.883232792064     1.007825032230
         H           -2.166180327690     1.276968440618    -0.000636792064     1.007825032230

  Basis Set: AUG-CC-PVTZ
    Blend: AUG-CC-PVTZ
  Basis Set: (AUG-CC-PVTZ AUX)
    Blend: AUG-CC-PVTZ-JKFIT
	 Reference Energy          =    -230.9986601732415465 [Eh]
	 Singles Energy            =      -0.0000000000000000 [Eh]
	 Same-Spin Energy          =      -0.2366097248830459 [Eh]
	 Opposite-Spin Energy      =      -0.8083173240402436 [Eh]
	 Correlation Energy        =      -1.0449270489232896 [Eh]
	 Total Energy              =    -232.0435872221648310 [Eh]

	 ================> DF-SCS-MP2 Energies <==================
	-----------------------------------------------------------
	 SCS Same-Spin Scale       =       0.3333333333333333 [-]
	 SCS Opposite-Spin Scale   =       1.2000000000000000 [-]
	 SCS Same-Spin Energy      =      -0.0788699082943486 [Eh]
	 SCS Opposite-Spin Energy  =      -0.9699807888482923 [Eh]
	 SCS Correlation Energy    =      -1.0488506971426410 [Eh]
	 SCS Total Energy          =    -232.0475108703842011 [Eh]
	-----------------------------------------------------------

  Dipole Moment: [D]
     X:     1.9385      Y:     2.6391      Z:    -0.0008     Total:     3.2745

*** Psi4 exiting successfully. Buy a developer a beer!
