                               Psi4 1.3.2 release

  ==> Input File <==

--------------------------------------------------------------------------
#psi4
#
memory 32 gb

molecule  {
0 1
  O       -1.9983450    -0.7282080     0.0003470
  C        0.8217550    -0.4600250    -0.0005990
  C       -0.0915640     0.7578760     0.0000330
  C        2.2978970    -0.0745110     0.0003180
  C       -1.5581360     0.4144240    -0.0001330
  H        0.5909330    -1.0784560     0.8725540
  H        0.5917080    -1.0769800    -0.8750200
  H        0.1002270     1.3980580     0.8739280
  H        0.1003310     1.3991950    -0.8729740
  H        2.5495760     0.5185710     0.8851420
  H        2.9367550    -0.9620450    -0.0002290
  H        2.5502710     0.5201590    -0.8832390
  H       -2.1901875     1.2025616    -0.0005971
units angstrom
no_reorient  #important for SAPT in psi4, default
symmetry c1  #important for SAPT in psi4, default
}

set PROPERTIES_ORIGIN ["COM"]
properties('MP2/aug-cc-pvtz', properties = ['dipole'])
--------------------------------------------------------------------------

    Molecular point group: c1
  Charge       = 0
  Multiplicity = 1
  Basis Set: AUG-CC-PVTZ
    Blend: AUG-CC-PVTZ
  Basis Set: (AUG-CC-PVTZ AUX)
    Blend: AUG-CC-PVTZ-JKFIT

    Orbital Energies [Eh]
    ---------------------

    Doubly Occupied:

       1A    -20.555958     2A    -11.323388     3A    -11.242834
       4A    -11.226165     5A    -11.219515     6A     -1.381671
       7A     -1.080879     8A     -0.978409     9A     -0.857073
      10A     -0.782919    11A     -0.678516    12A     -0.648113
      13A     -0.630618    14A     -0.569738    15A     -0.566240
      16A     -0.511087    17A     -0.498580    18A     -0.490217
      19A     -0.478477    20A     -0.424988

  @DF-RHF Final Energy:  -231.06650894697853

   => Energetics <=

    Nuclear Repulsion Energy =            172.4025896839050915
    One-Electron Energy =                -654.6474305102283324
    Two-Electron Energy =                 251.1783318793447108
    Total Energy =                       -231.0665089469785300
  Basis Set: (AUG-CC-PVTZ AUX)
    Blend: AUG-CC-PVTZ-RI
    Molecular point group: c1

    Geometry (in Angstrom), charge = 0, multiplicity = 1:

       Center              X                  Y                   Z               Mass
    ------------   -----------------  -----------------  -----------------  -----------------
         O           -1.900676516584    -0.699642474195     0.000339509724    15.994914619570
         C            0.919423483416    -0.431459474195    -0.000606490276    12.000000000000
         C            0.006104483416     0.786441525805     0.000025509724    12.000000000000
         C            2.395565483416    -0.045945474195     0.000310509724    12.000000000000
         C           -1.460467516584     0.442989525805    -0.000140490276    12.000000000000
         H            0.688601483416    -1.049890474195     0.872546509724     1.007825032230
         H            0.689376483416    -1.048414474195    -0.875027490276     1.007825032230
         H            0.197895483416     1.426623525805     0.873920509724     1.007825032230
         H            0.197999483416     1.427760525805    -0.872981490276     1.007825032230
         H            2.647244483416     0.547136525805     0.885134509724     1.007825032230
         H            3.034423483416    -0.933479474195    -0.000236490276     1.007825032230
         H            2.647939483416     0.548724525805    -0.883246490276     1.007825032230
         H           -2.092519016584     1.231127125805    -0.000604590276     1.007825032230

  Basis Set: AUG-CC-PVTZ
    Blend: AUG-CC-PVTZ
  Basis Set: (AUG-CC-PVTZ AUX)
    Blend: AUG-CC-PVTZ-JKFIT
	 Reference Energy          =    -231.0665089469785300 [Eh]
	 Singles Energy            =      -0.0000000000000000 [Eh]
	 Same-Spin Energy          =      -0.2291305728371614 [Eh]
	 Opposite-Spin Energy      =      -0.7926451715491381 [Eh]
	 Correlation Energy        =      -1.0217757443862994 [Eh]
	 Total Energy              =    -232.0882846913648336 [Eh]

	 ================> DF-SCS-MP2 Energies <==================
	-----------------------------------------------------------
	 SCS Same-Spin Scale       =       0.3333333333333333 [-]
	 SCS Opposite-Spin Scale   =       1.2000000000000000 [-]
	 SCS Same-Spin Energy      =      -0.0763768576123871 [Eh]
	 SCS Opposite-Spin Energy  =      -0.9511742058589656 [Eh]
	 SCS Correlation Energy    =      -1.0275510634713527 [Eh]
	 SCS Total Energy          =    -232.0940600104498799 [Eh]
	-----------------------------------------------------------

  Dipole Moment: [D]
     X:     1.4441      Y:     2.2327      Z:    -0.0008     Total:     2.6590

*** Psi4 exiting successfully. Buy a developer a beer!
