                               Psi4 1.3.2 release

  ==> Input File <==

--------------------------------------------------------------------------
#psi4
#
memory 32 gb

molecule  {
0 1
  O       -1.9983450    -0.7282080     0.0003470
  C        0.9044867    -0.3933483    -0.0005653
  C       -0.0915640     0.7578760     0.0000330
  C        2.2978970    -0.0745110     0.0003180
  C       -1.5581360     0.4144240    -0.0001330
  H        0.5909330    -1.0784560     0.8725540
  H        0.5917080    -1.0769800    -0.8750200
  H        0.1002270     1.3980580     0.8739280
  H        0.1003310     1.3991950    -0.8729740
  H        2.5495760     0.5185710     0.8851420
  H        2.9367550    -0.9620450    -0.0002290
  H        2.5502710     0.5201590    -0.8832390
  H       -2.2527500     1.2805740    -0.0006430
units angstrom
no_reorient  #important for SAPT in psi4, default
symmetry c1  #important for SAPT in psi4, default
}

set PROPERTIES_ORIGIN ["COM"]
properties('MP2/aug-cc-pvtz', properties = ['dipole'])
--------------------------------------------------------------------------

    Molecular point group: c1
  Charge       = 0
  Multiplicity = 1
  Basis Set: AUG-CC-PVTZ
    Blend: AUG-CC-PVTZ
  Basis Set: (AUG-CC-PVTZ AUX)
    Blend: AUG-CC-PVTZ-JKFIT

    Orbital Energies [Eh]
    ---------------------

    Doubly Occupied:

       1A    -20.559354     2A    -11.338057     3A    -11.245720
       4A    -11.232863     5A    -11.217677     6A     -1.383777
       7A     -1.091201     8A     -0.989500     9A     -0.842376
      10A     -0.765989    11A     -0.674523    12A     -0.646406
      13A     -0.635040    14A     -0.573482    15A     -0.571120
      16A     -0.545465    17A     -0.499082    18A     -0.475912
      19A     -0.452459    20A     -0.425281

  @DF-RHF Final Energy:  -231.05758292289113

   => Energetics <=

    Nuclear Repulsion Energy =            172.2323705459105554
    One-Electron Energy =                -654.2493406281948864
    Two-Electron Energy =                 250.9593871593932022
    Total Energy =                       -231.0575829228911289
  Basis Set: (AUG-CC-PVTZ AUX)
    Blend: AUG-CC-PVTZ-RI
    Molecular point group: c1

    Geometry (in Angstrom), charge = 0, multiplicity = 1:

       Center              X                  Y                   Z               Mass
    ------------   -----------------  -----------------  -----------------  -----------------
         O           -1.913579103469    -0.711837499946     0.000334539516    15.994914619570
         C            0.989252596531    -0.376977799946    -0.000577760484    12.000000000000
         C           -0.006798103469     0.774246500054     0.000020539516    12.000000000000
         C            2.382662896531    -0.058140499946     0.000305539516    12.000000000000
         C           -1.473370103469     0.430794500054    -0.000145460484    12.000000000000
         H            0.675698896531    -1.062085499946     0.872541539516     1.007825032230
         H            0.676473896531    -1.060609499946    -0.875032460484     1.007825032230
         H            0.184992896531     1.414428500054     0.873915539516     1.007825032230
         H            0.185096896531     1.415565500054    -0.872986460484     1.007825032230
         H            2.634341896531     0.534941500054     0.885129539516     1.007825032230
         H            3.021520896531    -0.945674499946    -0.000241460484     1.007825032230
         H            2.635036896531     0.536529500054    -0.883251460484     1.007825032230
         H           -2.167984103469     1.296944500054    -0.000655460484     1.007825032230

  Basis Set: AUG-CC-PVTZ
    Blend: AUG-CC-PVTZ
  Basis Set: (AUG-CC-PVTZ AUX)
    Blend: AUG-CC-PVTZ-JKFIT
	 Reference Energy          =    -231.0575829228911289 [Eh]
	 Singles Energy            =      -0.0000000000000000 [Eh]
	 Same-Spin Energy          =      -0.2303627644080575 [Eh]
	 Opposite-Spin Energy      =      -0.7945302179912904 [Eh]
	 Correlation Energy        =      -1.0248929823993480 [Eh]
	 Total Energy              =    -232.0824759052904653 [Eh]

	 ================> DF-SCS-MP2 Energies <==================
	-----------------------------------------------------------
	 SCS Same-Spin Scale       =       0.3333333333333333 [-]
	 SCS Opposite-Spin Scale   =       1.2000000000000000 [-]
	 SCS Same-Spin Energy      =      -0.0767875881360192 [Eh]
	 SCS Opposite-Spin Energy  =      -0.9534362615895484 [Eh]
	 SCS Correlation Energy    =      -1.0302238497255676 [Eh]
	 SCS Total Energy          =    -232.0878067726166876 [Eh]
	-----------------------------------------------------------

  Dipole Moment: [D]
     X:     1.5535      Y:     2.1587      Z:    -0.0007     Total:     2.6596

*** Psi4 exiting successfully. Buy a developer a beer!
