                               Psi4 1.3.2 release

  ==> Input File <==

--------------------------------------------------------------------------
#psi4
#
memory 32 gb

molecule  {
0 1
  O       -1.9983450    -0.7282080     0.0003470
  C        0.8217550    -0.4600250    -0.0005990
  C       -0.0804711     0.7064842     0.0000569
  C        2.2978970    -0.0745110     0.0003180
  C       -1.5581360     0.4144240    -0.0001330
  H        0.5909330    -1.0784560     0.8725540
  H        0.5917080    -1.0769800    -0.8750200
  H        0.1002270     1.3980580     0.8739280
  H        0.1003310     1.3991950    -0.8729740
  H        2.5495760     0.5185710     0.8851420
  H        2.9367550    -0.9620450    -0.0002290
  H        2.5502710     0.5201590    -0.8832390
  H       -2.2527500     1.2805740    -0.0006430
units angstrom
no_reorient  #important for SAPT in psi4, default
symmetry c1  #important for SAPT in psi4, default
}

set PROPERTIES_ORIGIN ["COM"]
properties('MP2/aug-cc-pvtz', properties = ['dipole'])
--------------------------------------------------------------------------

    Molecular point group: c1
  Charge       = 0
  Multiplicity = 1
  Basis Set: AUG-CC-PVTZ
    Blend: AUG-CC-PVTZ
  Basis Set: (AUG-CC-PVTZ AUX)
    Blend: AUG-CC-PVTZ-JKFIT

    Orbital Energies [Eh]
    ---------------------

    Doubly Occupied:

       1A    -20.556654     2A    -11.335418     3A    -11.247928
       4A    -11.225010     5A    -11.221210     6A     -1.382822
       7A     -1.088102     8A     -0.974432     9A     -0.852362
      10A     -0.767099    11A     -0.673767    12A     -0.648019
      13A     -0.632422    14A     -0.569231    15A     -0.562347
      16A     -0.518556    17A     -0.499502    18A     -0.493653
      19A     -0.472156    20A     -0.422491

  @DF-RHF Final Energy:  -231.06772200682784

   => Energetics <=

    Nuclear Repulsion Energy =            172.4280665566025732
    One-Electron Energy =                -654.7052162177053560
    Two-Electron Energy =                 251.2094276542749469
    Total Energy =                       -231.0677220068278359
  Basis Set: (AUG-CC-PVTZ AUX)
    Blend: AUG-CC-PVTZ-RI
    Molecular point group: c1

    Geometry (in Angstrom), charge = 0, multiplicity = 1:

       Center              X                  Y                   Z               Mass
    ------------   -----------------  -----------------  -----------------  -----------------
         O           -1.901648833580    -0.692175123268     0.000336171545    15.994914619570
         C            0.918451166420    -0.423992123268    -0.000609828455    12.000000000000
         C            0.016225066420     0.742517076732     0.000046071545    12.000000000000
         C            2.394593166420    -0.038478123268     0.000307171545    12.000000000000
         C           -1.461439833580     0.450456876732    -0.000143828455    12.000000000000
         H            0.687629166420    -1.042423123268     0.872543171545     1.007825032230
         H            0.688404166420    -1.040947123268    -0.875030828455     1.007825032230
         H            0.196923166420     1.434090876732     0.873917171545     1.007825032230
         H            0.197027166420     1.435227876732    -0.872984828455     1.007825032230
         H            2.646272166420     0.554603876732     0.885131171545     1.007825032230
         H            3.033451166420    -0.926012123268    -0.000239828455     1.007825032230
         H            2.646967166420     0.556191876732    -0.883249828455     1.007825032230
         H           -2.156053833580     1.316606876732    -0.000653828455     1.007825032230

  Basis Set: AUG-CC-PVTZ
    Blend: AUG-CC-PVTZ
  Basis Set: (AUG-CC-PVTZ AUX)
    Blend: AUG-CC-PVTZ-JKFIT
	 Reference Energy          =    -231.0677220068278359 [Eh]
	 Singles Energy            =      -0.0000000000000000 [Eh]
	 Same-Spin Energy          =      -0.2299132906434923 [Eh]
	 Opposite-Spin Energy      =      -0.7936435187302469 [Eh]
	 Correlation Energy        =      -1.0235568093737393 [Eh]
	 Total Energy              =    -232.0912788162015659 [Eh]

	 ================> DF-SCS-MP2 Energies <==================
	-----------------------------------------------------------
	 SCS Same-Spin Scale       =       0.3333333333333333 [-]
	 SCS Opposite-Spin Scale   =       1.2000000000000000 [-]
	 SCS Same-Spin Energy      =      -0.0766377635478308 [Eh]
	 SCS Opposite-Spin Energy  =      -0.9523722224762962 [Eh]
	 SCS Correlation Energy    =      -1.0290099860241269 [Eh]
	 SCS Total Energy          =    -232.0967319928519714 [Eh]
	-----------------------------------------------------------

  Dipole Moment: [D]
     X:     1.5424      Y:     2.1310      Z:    -0.0007     Total:     2.6306

*** Psi4 exiting successfully. Buy a developer a beer!
