                               Psi4 1.4a3.dev225

  ==> Input File <==

--------------------------------------------------------------------------
#psi4
#
memory 32 gb

molecule  {
0 1
  O       -1.9982100    -0.7282460     0.0000030
  C        0.8216780    -0.4600500    -0.0000060
  C       -0.0915260     0.7579800    -0.0000030
  C        2.2978280    -0.0745400     0.0000050
  C       -1.5386452     0.4189856     0.0000009
  H        0.5911990    -1.0776950     0.8737850
  H        0.5912090    -1.0776840    -0.8738080
  H        0.1003680     1.3986970     0.8734520
  H        0.1003630     1.3986980    -0.8734580
  H        2.5498060     0.5193220     0.8842150
  H        2.9366580    -0.9620860    -0.0000120
  H        2.5498110     0.5193580    -0.8841810
  H       -2.2529000     1.2804800     0.0000040
units angstrom
no_reorient  #important for SAPT in psi4, default
symmetry c1  #important for SAPT in psi4, default
}

set PROPERTIES_ORIGIN ["COM"]
properties('MP2/aug-cc-pvtz', properties = ['dipole'])
--------------------------------------------------------------------------

    Molecular point group: c1
  Charge       = 0
  Multiplicity = 1
  Basis Set: AUG-CC-PVTZ
    Blend: AUG-CC-PVTZ
  Basis Set: (AUG-CC-PVTZ AUX)
    Blend: AUG-CC-PVTZ-JKFIT

    Orbital Energies [Eh]
    ---------------------

    Doubly Occupied:

       1A    -20.557294     2A    -11.336621     3A    -11.245459
       4A    -11.227919     5A    -11.220838     6A     -1.375320
       7A     -1.084694     8A     -0.980217     9A     -0.848237
      10A     -0.769324    11A     -0.671044    12A     -0.650768
      13A     -0.629525    14A     -0.568718    15A     -0.568009
      16A     -0.511821    17A     -0.496307    18A     -0.491915
      19A     -0.479526    20A     -0.423674

  @DF-RHF Final Energy:  -231.06918893191329

   => Energetics <=

    Nuclear Repulsion Energy =            171.9960014250043514
    One-Electron Energy =                -653.8559187094145955
    Two-Electron Energy =                 250.7907283524969557
    Total Energy =                       -231.0691889319132883
  Basis Set: (AUG-CC-PVTZ AUX)
    Blend: AUG-CC-PVTZ-RI
    Molecular point group: c1

    Geometry (in Angstrom), charge = 0, multiplicity = 1:

       Center              X                  Y                   Z               Mass
    ------------   -----------------  -----------------  -----------------  -----------------
         O           -1.902916836606    -0.701531333922     0.000002892291    15.994914619570
         C            0.916971163394    -0.433335333922    -0.000006107709    12.000000000000
         C            0.003767163394     0.784694666078    -0.000003107709    12.000000000000
         C            2.393121163394    -0.047825333922     0.000004892291    12.000000000000
         C           -1.443352036606     0.445700266078     0.000000792291    12.000000000000
         H            0.686492163394    -1.050980333922     0.873784892291     1.007825032230
         H            0.686502163394    -1.050969333922    -0.873808107709     1.007825032230
         H            0.195661163394     1.425411666078     0.873451892291     1.007825032230
         H            0.195656163394     1.425412666078    -0.873458107709     1.007825032230
         H            2.645099163394     0.546036666078     0.884214892291     1.007825032230
         H            3.031951163394    -0.935371333922    -0.000012107709     1.007825032230
         H            2.645104163394     0.546072666078    -0.884181107709     1.007825032230
         H           -2.157606836606     1.307194666078     0.000003892291     1.007825032230

  Basis Set: AUG-CC-PVTZ
    Blend: AUG-CC-PVTZ
  Basis Set: (AUG-CC-PVTZ AUX)
    Blend: AUG-CC-PVTZ-JKFIT
	 Reference Energy          =    -231.0691889319132883 [Eh]
	 Singles Energy            =      -0.0000000000000000 [Eh]
	 Same-Spin Energy          =      -0.2298695571399968 [Eh]
	 Opposite-Spin Energy      =      -0.7940007231965731 [Eh]
	 Correlation Energy        =      -1.0238702803365700 [Eh]
	 Total Energy              =    -232.0930592122498695 [Eh]

	 ================> DF-SCS-MP2 Energies <==================
	-----------------------------------------------------------
	 SCS Same-Spin Scale       =       0.3333333333333333 [-]
	 SCS Opposite-Spin Scale   =       1.2000000000000000 [-]
	 SCS Same-Spin Energy      =      -0.0766231857133323 [Eh]
	 SCS Opposite-Spin Energy  =      -0.9528008678358877 [Eh]
	 SCS Correlation Energy    =      -1.0294240535492201 [Eh]
	 SCS Total Energy          =    -232.0986129854624949 [Eh]
	-----------------------------------------------------------

  Dipole Moment: [D]
     X:     1.6184      Y:     2.1680      Z:    -0.0000     Total:     2.7054

*** Psi4 exiting successfully. Buy a developer a beer!
