                               Psi4 1.4a3.dev225

  ==> Input File <==

--------------------------------------------------------------------------
#psi4
#
memory 32 gb

molecule  {
0 1
  O       -1.9982100    -0.7282460     0.0000030
  C        0.8216780    -0.4600500    -0.0000060
  C       -0.0915260     0.7579800    -0.0000030
  C        2.2978280    -0.0745400     0.0000050
  C       -1.5581180     0.4144240     0.0000010
  H        0.5911990    -1.0776950     0.8737850
  H        0.5912090    -1.0776840    -0.8738080
  H        0.1003680     1.3986970     0.8734520
  H        0.1003630     1.3986980    -0.8734580
  H        2.5498060     0.5193220     0.8842150
  H        2.9366580    -0.9620860    -0.0000120
  H        2.5498110     0.5193580    -0.8841810
  H       -2.2403848     1.2648797     0.0000039
units angstrom
no_reorient  #important for SAPT in psi4, default
symmetry c1  #important for SAPT in psi4, default
}

set PROPERTIES_ORIGIN ["COM"]
properties('MP2/aug-cc-pvtz', properties = ['dipole'])
--------------------------------------------------------------------------

    Molecular point group: c1
  Charge       = 0
  Multiplicity = 1
  Basis Set: AUG-CC-PVTZ
    Blend: AUG-CC-PVTZ
  Basis Set: (AUG-CC-PVTZ AUX)
    Blend: AUG-CC-PVTZ-JKFIT

    Orbital Energies [Eh]
    ---------------------

    Doubly Occupied:

       1A    -20.557721     2A    -11.333110     3A    -11.244329
       4A    -11.226876     5A    -11.220074     6A     -1.382667
       7A     -1.081366     8A     -0.976703     9A     -0.849074
      10A     -0.773032    11A     -0.673150    12A     -0.648819
      13A     -0.631147    14A     -0.569412    15A     -0.566907
      16A     -0.511652    17A     -0.499814    18A     -0.490819
      19A     -0.479192    20A     -0.422543

  @DF-RHF Final Energy:  -231.07132564109253

   => Energetics <=

    Nuclear Repulsion Energy =            172.0123481525504587
    One-Electron Energy =                -653.8905373727310462
    Two-Electron Energy =                 250.8068635790880876
    Total Energy =                       -231.0713256410925283
  Basis Set: (AUG-CC-PVTZ AUX)
    Blend: AUG-CC-PVTZ-RI
    Molecular point group: c1

    Geometry (in Angstrom), charge = 0, multiplicity = 1:

       Center              X                  Y                   Z               Mass
    ------------   -----------------  -----------------  -----------------  -----------------
         O           -1.899849002966    -0.700553482091     0.000002877036    15.994914619570
         C            0.920038997034    -0.432357482091    -0.000006122964    12.000000000000
         C            0.006834997034     0.785672517909    -0.000003122964    12.000000000000
         C            2.396188997034    -0.046847482091     0.000004877036    12.000000000000
         C           -1.459757002966     0.442116517909     0.000000877036    12.000000000000
         H            0.689559997034    -1.050002482091     0.873784877036     1.007825032230
         H            0.689569997034    -1.049991482091    -0.873808122964     1.007825032230
         H            0.198728997034     1.426389517909     0.873451877036     1.007825032230
         H            0.198723997034     1.426390517909    -0.873458122964     1.007825032230
         H            2.648166997034     0.547014517909     0.884214877036     1.007825032230
         H            3.035018997034    -0.934393482091    -0.000012122964     1.007825032230
         H            2.648171997034     0.547050517909    -0.884181122964     1.007825032230
         H           -2.142023802966     1.292572217909     0.000003777036     1.007825032230

  Basis Set: AUG-CC-PVTZ
    Blend: AUG-CC-PVTZ
  Basis Set: (AUG-CC-PVTZ AUX)
    Blend: AUG-CC-PVTZ-JKFIT
	 Reference Energy          =    -231.0713256410925283 [Eh]
	 Singles Energy            =      -0.0000000000000000 [Eh]
	 Same-Spin Energy          =      -0.2293431940294332 [Eh]
	 Opposite-Spin Energy      =      -0.7930404908047965 [Eh]
	 Correlation Energy        =      -1.0223836848342298 [Eh]
	 Total Energy              =    -232.0937093259267670 [Eh]

	 ================> DF-SCS-MP2 Energies <==================
	-----------------------------------------------------------
	 SCS Same-Spin Scale       =       0.3333333333333333 [-]
	 SCS Opposite-Spin Scale   =       1.2000000000000000 [-]
	 SCS Same-Spin Energy      =      -0.0764477313431444 [Eh]
	 SCS Opposite-Spin Energy  =      -0.9516485889657558 [Eh]
	 SCS Correlation Energy    =      -1.0280963203089002 [Eh]
	 SCS Total Energy          =    -232.0994219614014185 [Eh]
	-----------------------------------------------------------

  Dipole Moment: [D]
     X:     1.5039      Y:     2.1592      Z:    -0.0000     Total:     2.6313

*** Psi4 exiting successfully. Buy a developer a beer!
