                               Psi4 1.3.2 release

  ==> Input File <==

--------------------------------------------------------------------------
#psi4
#
memory 32 gb

molecule  {
0 1
  O       -1.9783363    -0.7357167     0.0003534
  C        0.8217550    -0.4600250    -0.0005990
  C       -0.0915640     0.7578760     0.0000330
  C        2.2978970    -0.0745110     0.0003180
  C       -1.5581360     0.4144240    -0.0001330
  H        0.5909330    -1.0784560     0.8725540
  H        0.5917080    -1.0769800    -0.8750200
  H        0.1002270     1.3980580     0.8739280
  H        0.1003310     1.3991950    -0.8729740
  H        2.5495760     0.5185710     0.8851420
  H        2.9367550    -0.9620450    -0.0002290
  H        2.5502710     0.5201590    -0.8832390
  H       -2.2527500     1.2805740    -0.0006430
units angstrom
no_reorient  #important for SAPT in psi4, default
symmetry c1  #important for SAPT in psi4, default
}

set PROPERTIES_ORIGIN ["COM"]
properties('MP2/aug-cc-pvtz', properties = ['dipole'])
--------------------------------------------------------------------------

    Molecular point group: c1
  Charge       = 0
  Multiplicity = 1
  Basis Set: AUG-CC-PVTZ
    Blend: AUG-CC-PVTZ
  Basis Set: (AUG-CC-PVTZ AUX)
    Blend: AUG-CC-PVTZ-JKFIT

    Orbital Energies [Eh]
    ---------------------

    Doubly Occupied:

       1A    -20.558249     2A    -11.335629     3A    -11.243921
       4A    -11.226533     5A    -11.219829     6A     -1.383217
       7A     -1.080837     8A     -0.975995     9A     -0.847631
      10A     -0.770506    11A     -0.671916    12A     -0.648594
      13A     -0.631254    14A     -0.569047    15A     -0.566773
      16A     -0.511061    17A     -0.499868    18A     -0.490378
      19A     -0.478978    20A     -0.422191

  @DF-RHF Final Energy:  -231.07094573716677

   => Energetics <=

    Nuclear Repulsion Energy =            172.0830996642935418
    One-Electron Energy =                -654.0432750590847490
    Two-Electron Energy =                 250.8892296576244689
    Total Energy =                       -231.0709457371667668
  Basis Set: (AUG-CC-PVTZ AUX)
    Blend: AUG-CC-PVTZ-RI
    Molecular point group: c1

    Geometry (in Angstrom), charge = 0, multiplicity = 1:

       Center              X                  Y                   Z               Mass
    ------------   -----------------  -----------------  -----------------  -----------------
         O           -1.884234209278    -0.706575548378     0.000345131064    15.994914619570
         C            0.915857090722    -0.430883848378    -0.000607268936    12.000000000000
         C            0.002538090722     0.787017151622     0.000024731064    12.000000000000
         C            2.391999090722    -0.045369848378     0.000309731064    12.000000000000
         C           -1.464033909278     0.443565151622    -0.000141268936    12.000000000000
         H            0.685035090722    -1.049314848378     0.872545731064     1.007825032230
         H            0.685810090722    -1.047838848378    -0.875028268936     1.007825032230
         H            0.194329090722     1.427199151622     0.873919731064     1.007825032230
         H            0.194433090722     1.428336151622    -0.872982268936     1.007825032230
         H            2.643678090722     0.547712151622     0.885133731064     1.007825032230
         H            3.030857090722    -0.932903848378    -0.000237268936     1.007825032230
         H            2.644373090722     0.549300151622    -0.883247268936     1.007825032230
         H           -2.158647909278     1.309715151622    -0.000651268936     1.007825032230

  Basis Set: AUG-CC-PVTZ
    Blend: AUG-CC-PVTZ
  Basis Set: (AUG-CC-PVTZ AUX)
    Blend: AUG-CC-PVTZ-JKFIT
	 Reference Energy          =    -231.0709457371667668 [Eh]
	 Singles Energy            =      -0.0000000000000000 [Eh]
	 Same-Spin Energy          =      -0.2294586535255444 [Eh]
	 Opposite-Spin Energy      =      -0.7932403161698878 [Eh]
	 Correlation Energy        =      -1.0226989696954321 [Eh]
	 Total Energy              =    -232.0936447068621931 [Eh]

	 ================> DF-SCS-MP2 Energies <==================
	-----------------------------------------------------------
	 SCS Same-Spin Scale       =       0.3333333333333333 [-]
	 SCS Opposite-Spin Scale   =       1.2000000000000000 [-]
	 SCS Same-Spin Energy      =      -0.0764862178418481 [Eh]
	 SCS Opposite-Spin Energy  =      -0.9518883794038653 [Eh]
	 SCS Correlation Energy    =      -1.0283745972457135 [Eh]
	 SCS Total Energy          =    -232.0993203344124822 [Eh]
	-----------------------------------------------------------

  Dipole Moment: [D]
     X:     1.4676      Y:     2.1500      Z:    -0.0007     Total:     2.6031

*** Psi4 exiting successfully. Buy a developer a beer!
