                               Psi4 1.4a3.dev225

  ==> Input File <==

--------------------------------------------------------------------------
#psi4
#
memory 32 gb

molecule  {
0 1
  O       -1.9982100    -0.7282460     0.0000030
  C        0.8216780    -0.4600500    -0.0000060
  C       -0.0915260     0.7579800    -0.0000030
  C        2.2978280    -0.0745400     0.0000050
  C       -1.5581180     0.4144240     0.0000010
  H        0.5911990    -1.0776950     0.8737850
  H        0.5912090    -1.0776840    -0.8738080
  H        0.1003680     1.3986970     0.8734520
  H        0.1003630     1.3986980    -0.8734580
  H        2.5498060     0.5193220     0.8842150
  H        2.9366580    -0.9620860    -0.0000120
  H        2.5498110     0.5193580    -0.8841810
  H       -2.2654152     1.2960803     0.0000041
units angstrom
no_reorient  #important for SAPT in psi4, default
symmetry c1  #important for SAPT in psi4, default
}

set PROPERTIES_ORIGIN ["COM"]
properties('MP2/aug-cc-pvtz', properties = ['dipole'])
--------------------------------------------------------------------------

    Molecular point group: c1
  Charge       = 0
  Multiplicity = 1
  Basis Set: AUG-CC-PVTZ
    Blend: AUG-CC-PVTZ
  Basis Set: (AUG-CC-PVTZ AUX)
    Blend: AUG-CC-PVTZ-JKFIT

    Orbital Energies [Eh]
    ---------------------

    Doubly Occupied:

       1A    -20.558806     2A    -11.337844     3A    -11.245190
       4A    -11.227305     5A    -11.220403     6A     -1.383360
       7A     -1.081726     8A     -0.976235     9A     -0.846383
      10A     -0.768381    11A     -0.670004    12A     -0.649240
      13A     -0.631464    14A     -0.569231    15A     -0.567313
      16A     -0.512008    17A     -0.500550    18A     -0.491180
      19A     -0.479603    20A     -0.421166

  @DF-RHF Final Energy:  -231.07046131702737

   => Energetics <=

    Nuclear Repulsion Energy =            171.8313363892099517
    One-Electron Energy =                -653.5288134034143468
    Two-Electron Energy =                 250.6270156971770575
    Total Energy =                       -231.0704613170273660
  Basis Set: (AUG-CC-PVTZ AUX)
    Blend: AUG-CC-PVTZ-RI
    Molecular point group: c1

    Geometry (in Angstrom), charge = 0, multiplicity = 1:

       Center              X                  Y                   Z               Mass
    ------------   -----------------  -----------------  -----------------  -----------------
         O           -1.899498917847    -0.700989866079     0.000002874239    15.994914619570
         C            0.920389082153    -0.432793866079    -0.000006125761    12.000000000000
         C            0.007185082153     0.785236133921    -0.000003125761    12.000000000000
         C            2.396539082153    -0.047283866079     0.000004874239    12.000000000000
         C           -1.459406917847     0.441680133921     0.000000874239    12.000000000000
         H            0.689910082153    -1.050438866079     0.873784874239     1.007825032230
         H            0.689920082153    -1.050427866079    -0.873808125761     1.007825032230
         H            0.199079082153     1.425953133921     0.873451874239     1.007825032230
         H            0.199074082153     1.425954133921    -0.873458125761     1.007825032230
         H            2.648517082153     0.546578133921     0.884214874239     1.007825032230
         H            3.035369082153    -0.934829866079    -0.000012125761     1.007825032230
         H            2.648522082153     0.546614133921    -0.884181125761     1.007825032230
         H           -2.166704117847     1.323336433921     0.000003974239     1.007825032230

  Basis Set: AUG-CC-PVTZ
    Blend: AUG-CC-PVTZ
  Basis Set: (AUG-CC-PVTZ AUX)
    Blend: AUG-CC-PVTZ-JKFIT
	 Reference Energy          =    -231.0704613170273660 [Eh]
	 Singles Energy            =      -0.0000000000000000 [Eh]
	 Same-Spin Energy          =      -0.2294825161594254 [Eh]
	 Opposite-Spin Energy      =      -0.7933549020866800 [Eh]
	 Correlation Energy        =      -1.0228374182461053 [Eh]
	 Total Energy              =    -232.0932987352734642 [Eh]

	 ================> DF-SCS-MP2 Energies <==================
	-----------------------------------------------------------
	 SCS Same-Spin Scale       =       0.3333333333333333 [-]
	 SCS Opposite-Spin Scale   =       1.2000000000000000 [-]
	 SCS Same-Spin Energy      =      -0.0764941720531418 [Eh]
	 SCS Opposite-Spin Energy  =      -0.9520258825040160 [Eh]
	 SCS Correlation Energy    =      -1.0285200545571578 [Eh]
	 SCS Total Energy          =    -232.0989813715845287 [Eh]
	-----------------------------------------------------------

  Dipole Moment: [D]
     X:     1.5405      Y:     2.1149      Z:    -0.0000     Total:     2.6165

*** Psi4 exiting successfully. Buy a developer a beer!
