                               Psi4 1.3.2 release

  ==> Input File <==

--------------------------------------------------------------------------
#psi4
#
memory 32 gb

molecule  {
0 1
  O       -1.9983450    -0.7282080     0.0003470
  C        0.8217550    -0.4600250    -0.0005990
  C       -0.0915640     0.7578760     0.0000330
  C        2.2978970    -0.0745110     0.0003180
  C       -1.5678151     0.4718040     0.0874294
  H        0.5909330    -1.0784560     0.8725540
  H        0.5917080    -1.0769800    -0.8750200
  H        0.1002270     1.3980580     0.8739280
  H        0.1003310     1.3991950    -0.8729740
  H        2.5495760     0.5185710     0.8851420
  H        2.9367550    -0.9620450    -0.0002290
  H        2.5502710     0.5201590    -0.8832390
  H       -2.2527500     1.2805740    -0.0006430
units angstrom
no_reorient  #important for SAPT in psi4, default
symmetry c1  #important for SAPT in psi4, default
}

set PROPERTIES_ORIGIN ["COM"]
properties('MP2/aug-cc-pvtz', properties = ['dipole'])
--------------------------------------------------------------------------

    Molecular point group: c1
  Charge       = 0
  Multiplicity = 1
  Basis Set: AUG-CC-PVTZ
    Blend: AUG-CC-PVTZ
  Basis Set: (AUG-CC-PVTZ AUX)
    Blend: AUG-CC-PVTZ-JKFIT

    Orbital Energies [Eh]
    ---------------------

    Doubly Occupied:

       1A    -20.557366     2A    -11.339720     3A    -11.247378
       4A    -11.227780     5A    -11.220683     6A     -1.349760
       7A     -1.081372     8A     -0.979283     9A     -0.854363
      10A     -0.779297    11A     -0.668902    12A     -0.648094
      13A     -0.619290    14A     -0.566171    15A     -0.564301
      16A     -0.511042    17A     -0.490176    18A     -0.487167
      19A     -0.473164    20A     -0.429019

  @DF-RHF Final Energy:  -231.05677290920914

   => Energetics <=

    Nuclear Repulsion Energy =            171.0504584674416719
    One-Electron Energy =                -652.0258068194578982
    Two-Electron Energy =                 249.9185754428070823
    Total Energy =                       -231.0567729092091440
  Basis Set: (AUG-CC-PVTZ AUX)
    Blend: AUG-CC-PVTZ-RI
    Molecular point group: c1

    Geometry (in Angstrom), charge = 0, multiplicity = 1:

       Center              X                  Y                   Z               Mass
    ------------   -----------------  -----------------  -----------------  -----------------
         O           -1.898189596880    -0.710289286687    -0.014241933206    15.994914619570
         C            0.921910403120    -0.442106286687    -0.015187933206    12.000000000000
         C            0.008591403120     0.775794713313    -0.014555933206    12.000000000000
         C            2.398052403120    -0.056592286687    -0.014270933206    12.000000000000
         C           -1.467659696880     0.489722713313     0.072840466794    12.000000000000
         H            0.691088403120    -1.060537286687     0.857965066794     1.007825032230
         H            0.691863403120    -1.059061286687    -0.889608933206     1.007825032230
         H            0.200382403120     1.415976713313     0.859339066794     1.007825032230
         H            0.200486403120     1.417113713313    -0.887562933206     1.007825032230
         H            2.649731403120     0.536489713313     0.870553066794     1.007825032230
         H            3.036910403120    -0.944126286687    -0.014817933206     1.007825032230
         H            2.650426403120     0.538077713313    -0.897827933206     1.007825032230
         H           -2.152594596880     1.298492713313    -0.015231933206     1.007825032230

  Basis Set: AUG-CC-PVTZ
    Blend: AUG-CC-PVTZ
  Basis Set: (AUG-CC-PVTZ AUX)
    Blend: AUG-CC-PVTZ-JKFIT
	 Reference Energy          =    -231.0567729092091440 [Eh]
	 Singles Energy            =      -0.0000000000000000 [Eh]
	 Same-Spin Energy          =      -0.2309049058468771 [Eh]
	 Opposite-Spin Energy      =      -0.7970736807036005 [Eh]
	 Correlation Energy        =      -1.0279785865504776 [Eh]
	 Total Energy              =    -232.0847514957596331 [Eh]

	 ================> DF-SCS-MP2 Energies <==================
	-----------------------------------------------------------
	 SCS Same-Spin Scale       =       0.3333333333333333 [-]
	 SCS Opposite-Spin Scale   =       1.2000000000000000 [-]
	 SCS Same-Spin Energy      =      -0.0769683019489590 [Eh]
	 SCS Opposite-Spin Energy  =      -0.9564884168443206 [Eh]
	 SCS Correlation Energy    =      -1.0334567187932797 [Eh]
	 SCS Total Energy          =    -232.0902296280024188 [Eh]
	-----------------------------------------------------------

  Dipole Moment: [D]
     X:     1.5100      Y:     2.3227      Z:     0.0321     Total:     2.7706

*** Psi4 exiting successfully. Buy a developer a beer!
