                               Psi4 1.3.2 release

  ==> Input File <==

--------------------------------------------------------------------------
#psi4
#
memory 32 gb

molecule  {
0 1
  O       -1.9983450    -0.7282080     0.0003470
  C        0.8217550    -0.4600250    -0.0005990
  C       -0.0711785     0.6547365     0.0000806
  C        2.2978970    -0.0745110     0.0003180
  C       -1.5581360     0.4144240    -0.0001330
  H        0.5909330    -1.0784560     0.8725540
  H        0.5917080    -1.0769800    -0.8750200
  H        0.1002270     1.3980580     0.8739280
  H        0.1003310     1.3991950    -0.8729740
  H        2.5495760     0.5185710     0.8851420
  H        2.9367550    -0.9620450    -0.0002290
  H        2.5502710     0.5201590    -0.8832390
  H       -2.2527500     1.2805740    -0.0006430
units angstrom
no_reorient  #important for SAPT in psi4, default
symmetry c1  #important for SAPT in psi4, default
}

set PROPERTIES_ORIGIN ["COM"]
properties('MP2/aug-cc-pvtz', properties = ['dipole'])
--------------------------------------------------------------------------

    Molecular point group: c1
  Charge       = 0
  Multiplicity = 1
  Basis Set: AUG-CC-PVTZ
    Blend: AUG-CC-PVTZ
  Basis Set: (AUG-CC-PVTZ AUX)
    Blend: AUG-CC-PVTZ-JKFIT

    Orbital Energies [Eh]
    ---------------------

    Doubly Occupied:

       1A    -20.555050     2A    -11.335657     3A    -11.251728
       4A    -11.223141     5A    -11.222324     6A     -1.382772
       7A     -1.095856     8A     -0.972575     9A     -0.857539
      10A     -0.763649    11A     -0.676245    12A     -0.648412
      13A     -0.634161    14A     -0.569195    15A     -0.558388
      16A     -0.526198    17A     -0.499868    18A     -0.494036
      19A     -0.462538    20A     -0.422218

  @DF-RHF Final Energy:  -231.05804202920197

   => Energetics <=

    Nuclear Repulsion Energy =            172.9496197135432567
    One-Electron Energy =                -655.7122265128498384
    Two-Electron Energy =                 251.7045647701046107
    Total Energy =                       -231.0580420292019710
  Basis Set: (AUG-CC-PVTZ AUX)
    Blend: AUG-CC-PVTZ-RI
    Molecular point group: c1

    Geometry (in Angstrom), charge = 0, multiplicity = 1:

       Center              X                  Y                   Z               Mass
    ------------   -----------------  -----------------  -----------------  -----------------
         O           -1.903196364052    -0.683557390600     0.000332224698    15.994914619570
         C            0.916903635948    -0.415374390600    -0.000613775302    12.000000000000
         C            0.023970135948     0.699387109400     0.000065824698    12.000000000000
         C            2.393045635948    -0.029860390600     0.000303224698    12.000000000000
         C           -1.462987364052     0.459074609400    -0.000147775302    12.000000000000
         H            0.686081635948    -1.033805390600     0.872539224698     1.007825032230
         H            0.686856635948    -1.032329390600    -0.875034775302     1.007825032230
         H            0.195375635948     1.442708609400     0.873913224698     1.007825032230
         H            0.195479635948     1.443845609400    -0.872988775302     1.007825032230
         H            2.644724635948     0.563221609400     0.885127224698     1.007825032230
         H            3.031903635948    -0.917394390600    -0.000243775302     1.007825032230
         H            2.645419635948     0.564809609400    -0.883253775302     1.007825032230
         H           -2.157601364052     1.325224609400    -0.000657775302     1.007825032230

  Basis Set: AUG-CC-PVTZ
    Blend: AUG-CC-PVTZ
  Basis Set: (AUG-CC-PVTZ AUX)
    Blend: AUG-CC-PVTZ-JKFIT
	 Reference Energy          =    -231.0580420292019710 [Eh]
	 Singles Energy            =      -0.0000000000000000 [Eh]
	 Same-Spin Energy          =      -0.2306171661546586 [Eh]
	 Opposite-Spin Energy      =      -0.7944887206025423 [Eh]
	 Correlation Energy        =      -1.0251058867572009 [Eh]
	 Total Energy              =    -232.0831479159591595 [Eh]

	 ================> DF-SCS-MP2 Energies <==================
	-----------------------------------------------------------
	 SCS Same-Spin Scale       =       0.3333333333333333 [-]
	 SCS Opposite-Spin Scale   =       1.2000000000000000 [-]
	 SCS Same-Spin Energy      =      -0.0768723887182195 [Eh]
	 SCS Opposite-Spin Energy  =      -0.9533864647230507 [Eh]
	 SCS Correlation Energy    =      -1.0302588534412702 [Eh]
	 SCS Total Energy          =    -232.0883008826432388 [Eh]
	-----------------------------------------------------------

  Dipole Moment: [D]
     X:     1.5704      Y:     2.1110      Z:    -0.0007     Total:     2.6310

*** Psi4 exiting successfully. Buy a developer a beer!
