                               Psi4 1.3.2 release

  ==> Input File <==

--------------------------------------------------------------------------
#psi4
#
memory 32 gb

molecule  {
0 1
  O       -1.9983450    -0.7282080     0.0003470
  C        0.8217550    -0.4600250    -0.0005990
  C       -0.0915640     0.7578760     0.0000330
  C        2.2978970    -0.0745110     0.0003180
  C       -1.5302447     0.3315765    -0.1313418
  H        0.5909330    -1.0784560     0.8725540
  H        0.5917080    -1.0769800    -0.8750200
  H        0.1002270     1.3980580     0.8739280
  H        0.1003310     1.3991950    -0.8729740
  H        2.5495760     0.5185710     0.8851420
  H        2.9367550    -0.9620450    -0.0002290
  H        2.5502710     0.5201590    -0.8832390
  H       -2.2527500     1.2805740    -0.0006430
units angstrom
no_reorient  #important for SAPT in psi4, default
symmetry c1  #important for SAPT in psi4, default
}

set PROPERTIES_ORIGIN ["COM"]
properties('MP2/aug-cc-pvtz', properties = ['dipole'])
--------------------------------------------------------------------------

    Molecular point group: c1
  Charge       = 0
  Multiplicity = 1
  Basis Set: AUG-CC-PVTZ
    Blend: AUG-CC-PVTZ
  Basis Set: (AUG-CC-PVTZ AUX)
    Blend: AUG-CC-PVTZ-JKFIT

    Orbital Energies [Eh]
    ---------------------

    Doubly Occupied:

       1A    -20.564167     2A    -11.335168     3A    -11.244184
       4A    -11.227173     5A    -11.220251     6A     -1.427100
       7A     -1.083431     8A     -0.974091     9A     -0.840275
      10A     -0.760432    11A     -0.675189    12A     -0.652717
      13A     -0.645368    14A     -0.574122    15A     -0.572324
      16A     -0.520580    17A     -0.513441    18A     -0.493584
      19A     -0.481469    20A     -0.404027

  @DF-RHF Final Energy:  -231.05899421426957

   => Energetics <=

    Nuclear Repulsion Energy =            172.9840097987887475
    One-Electron Energy =                -655.6678211085400108
    Two-Electron Energy =                 251.6248170954816885
    Total Energy =                       -231.0589942142695747
  Basis Set: (AUG-CC-PVTZ AUX)
    Blend: AUG-CC-PVTZ-RI
    Molecular point group: c1

    Geometry (in Angstrom), charge = 0, multiplicity = 1:

       Center              X                  Y                   Z               Mass
    ------------   -----------------  -----------------  -----------------  -----------------
         O           -1.904446332222    -0.686936691154     0.022190830323    15.994914619570
         C            0.915653667778    -0.418753691154     0.021244830323    12.000000000000
         C            0.002334667778     0.799147308846     0.021876830323    12.000000000000
         C            2.391795667778    -0.033239691154     0.022161830323    12.000000000000
         C           -1.436346032222     0.372847808846    -0.109497969677    12.000000000000
         H            0.684831667778    -1.037184691154     0.894397830323     1.007825032230
         H            0.685606667778    -1.035708691154    -0.853176169677     1.007825032230
         H            0.194125667778     1.439329308846     0.895771830323     1.007825032230
         H            0.194229667778     1.440466308846    -0.851130169677     1.007825032230
         H            2.643474667778     0.559842308846     0.906985830323     1.007825032230
         H            3.030653667778    -0.920773691154     0.021614830323     1.007825032230
         H            2.644169667778     0.561430308846    -0.861395169677     1.007825032230
         H           -2.158851332222     1.321845308846     0.021200830323     1.007825032230

  Basis Set: AUG-CC-PVTZ
    Blend: AUG-CC-PVTZ
  Basis Set: (AUG-CC-PVTZ AUX)
    Blend: AUG-CC-PVTZ-JKFIT
	 Reference Energy          =    -231.0589942142695747 [Eh]
	 Singles Energy            =      -0.0000000000000000 [Eh]
	 Same-Spin Energy          =      -0.2286046123932194 [Eh]
	 Opposite-Spin Energy      =      -0.7912226901327815 [Eh]
	 Correlation Energy        =      -1.0198273025260010 [Eh]
	 Total Energy              =    -232.0788215167955855 [Eh]

	 ================> DF-SCS-MP2 Energies <==================
	-----------------------------------------------------------
	 SCS Same-Spin Scale       =       0.3333333333333333 [-]
	 SCS Opposite-Spin Scale   =       1.2000000000000000 [-]
	 SCS Same-Spin Energy      =      -0.0762015374644065 [Eh]
	 SCS Opposite-Spin Energy  =      -0.9494672281593377 [Eh]
	 SCS Correlation Energy    =      -1.0256687656237442 [Eh]
	 SCS Total Energy          =    -232.0846629798933236 [Eh]
	-----------------------------------------------------------

  Dipole Moment: [D]
     X:     1.6337      Y:     1.7251      Z:    -0.0640     Total:     2.3768

*** Psi4 exiting successfully. Buy a developer a beer!
