                               Psi4 1.3.2 release

  ==> Input File <==

--------------------------------------------------------------------------
#psi4
#
memory 32 gb

molecule  {
0 1
  O       -1.9983450    -0.7282080     0.0003470
  C        0.8217550    -0.4600250    -0.0005990
  C       -0.1190945     0.8593423    -0.0000154
  C        2.2978970    -0.0745110     0.0003180
  C       -1.5581360     0.4144240    -0.0001330
  H        0.5909330    -1.0784560     0.8725540
  H        0.5917080    -1.0769800    -0.8750200
  H        0.1002270     1.3980580     0.8739280
  H        0.1003310     1.3991950    -0.8729740
  H        2.5495760     0.5185710     0.8851420
  H        2.9367550    -0.9620450    -0.0002290
  H        2.5502710     0.5201590    -0.8832390
  H       -2.2527500     1.2805740    -0.0006430
units angstrom
no_reorient  #important for SAPT in psi4, default
symmetry c1  #important for SAPT in psi4, default
}

set PROPERTIES_ORIGIN ["COM"]
properties('MP2/aug-cc-pvtz', properties = ['dipole'])
--------------------------------------------------------------------------

    Molecular point group: c1
  Charge       = 0
  Multiplicity = 1
  Basis Set: AUG-CC-PVTZ
    Blend: AUG-CC-PVTZ
  Basis Set: (AUG-CC-PVTZ AUX)
    Blend: AUG-CC-PVTZ-JKFIT

    Orbital Energies [Eh]
    ---------------------

    Doubly Occupied:

       1A    -20.561357     2A    -11.336477     3A    -11.240487
       4A    -11.231360     5A    -11.218950     6A     -1.383624
       7A     -1.071610     8A     -0.980724     9A     -0.839927
      10A     -0.777744    11A     -0.667728    12A     -0.655547
      13A     -0.631388    14A     -0.577439    15A     -0.568920
      16A     -0.506147    17A     -0.504977    18A     -0.486168
      19A     -0.476320    20A     -0.417359

  @DF-RHF Final Energy:  -231.06122607288913

   => Energetics <=

    Nuclear Repulsion Energy =            170.9367211300325380
    One-Electron Energy =                -651.7273940540337662
    Two-Electron Energy =                 249.7294468511121011
    Total Energy =                       -231.0612260728891272
  Basis Set: (AUG-CC-PVTZ AUX)
    Blend: AUG-CC-PVTZ-RI
    Molecular point group: c1

    Geometry (in Angstrom), charge = 0, multiplicity = 1:

       Center              X                  Y                   Z               Mass
    ------------   -----------------  -----------------  -----------------  -----------------
         O           -1.895216738319    -0.717631138552     0.000348211927    15.994914619570
         C            0.924883261681    -0.449448138552    -0.000597788073    12.000000000000
         C           -0.015966238319     0.869919161448    -0.000014188073    12.000000000000
         C            2.401025261681    -0.063934138552     0.000319211927    12.000000000000
         C           -1.455007738319     0.425000861448    -0.000131788073    12.000000000000
         H            0.694061261681    -1.067879138552     0.872555211927     1.007825032230
         H            0.694836261681    -1.066403138552    -0.875018788073     1.007825032230
         H            0.203355261681     1.408634861448     0.873929211927     1.007825032230
         H            0.203459261681     1.409771861448    -0.872972788073     1.007825032230
         H            2.652704261681     0.529147861448     0.885143211927     1.007825032230
         H            3.039883261681    -0.951468138552    -0.000227788073     1.007825032230
         H            2.653399261681     0.530735861448    -0.883237788073     1.007825032230
         H           -2.149621738319     1.291150861448    -0.000641788073     1.007825032230

  Basis Set: AUG-CC-PVTZ
    Blend: AUG-CC-PVTZ
  Basis Set: (AUG-CC-PVTZ AUX)
    Blend: AUG-CC-PVTZ-JKFIT
	 Reference Energy          =    -231.0612260728891272 [Eh]
	 Singles Energy            =      -0.0000000000000000 [Eh]
	 Same-Spin Energy          =      -0.2289960019666031 [Eh]
	 Opposite-Spin Energy      =      -0.7934444894124228 [Eh]
	 Correlation Energy        =      -1.0224404913790259 [Eh]
	 Total Energy              =    -232.0836665642681567 [Eh]

	 ================> DF-SCS-MP2 Energies <==================
	-----------------------------------------------------------
	 SCS Same-Spin Scale       =       0.3333333333333333 [-]
	 SCS Opposite-Spin Scale   =       1.2000000000000000 [-]
	 SCS Same-Spin Energy      =      -0.0763320006555344 [Eh]
	 SCS Opposite-Spin Energy  =      -0.9521333872949074 [Eh]
	 SCS Correlation Energy    =      -1.0284653879504417 [Eh]
	 SCS Total Energy          =    -232.0896914608395605 [Eh]
	-----------------------------------------------------------

  Dipole Moment: [D]
     X:     1.5033      Y:     2.1195      Z:    -0.0007     Total:     2.5985

*** Psi4 exiting successfully. Buy a developer a beer!
