                               Psi4 1.3.2 release

  ==> Input File <==

--------------------------------------------------------------------------
#psi4
#
memory 32 gb

molecule  {
0 1
  O       -1.9983450    -0.7282080     0.0003470
  C        0.8217550    -0.4600250    -0.0005990
  C       -0.0915640     0.7578760     0.0000330
  C        2.2978970    -0.0745110     0.0003180
  C       -1.5413119     0.3587173    -0.0876946
  H        0.5909330    -1.0784560     0.8725540
  H        0.5917080    -1.0769800    -0.8750200
  H        0.1002270     1.3980580     0.8739280
  H        0.1003310     1.3991950    -0.8729740
  H        2.5495760     0.5185710     0.8851420
  H        2.9367550    -0.9620450    -0.0002290
  H        2.5502710     0.5201590    -0.8832390
  H       -2.2527500     1.2805740    -0.0006430
units angstrom
no_reorient  #important for SAPT in psi4, default
symmetry c1  #important for SAPT in psi4, default
}

set PROPERTIES_ORIGIN ["COM"]
properties('MP2/aug-cc-pvtz', properties = ['dipole'])
--------------------------------------------------------------------------

    Molecular point group: c1
  Charge       = 0
  Multiplicity = 1
  Basis Set: AUG-CC-PVTZ
    Blend: AUG-CC-PVTZ
  Basis Set: (AUG-CC-PVTZ AUX)
    Blend: AUG-CC-PVTZ-JKFIT

    Orbital Energies [Eh]
    ---------------------

    Doubly Occupied:

       1A    -20.561556     2A    -11.334352     3A    -11.243846
       4A    -11.226968     5A    -11.220136     6A     -1.413630
       7A     -1.082548     8A     -0.974591     9A     -0.842277
      10A     -0.763072    11A     -0.674207    12A     -0.650699
      13A     -0.641905    14A     -0.571550    15A     -0.571165
      16A     -0.515224    17A     -0.512489    18A     -0.492554
      19A     -0.480868    20A     -0.410893

  @DF-RHF Final Energy:  -231.06721160456624

   => Energetics <=

    Nuclear Repulsion Energy =            172.6699337680248334
    One-Electron Energy =                -655.1052301659937029
    Two-Electron Energy =                 251.3680847934026019
    Total Energy =                       -231.0672116045662392
  Basis Set: (AUG-CC-PVTZ AUX)
    Blend: AUG-CC-PVTZ-RI
    Molecular point group: c1

    Geometry (in Angstrom), charge = 0, multiplicity = 1:

       Center              X                  Y                   Z               Mass
    ------------   -----------------  -----------------  -----------------  -----------------
         O           -1.902603271159    -0.691456547280     0.014922103378    15.994914619570
         C            0.917496728841    -0.423273547280     0.013976103378    12.000000000000
         C            0.004177728841     0.794627452720     0.014608103378    12.000000000000
         C            2.393638728841    -0.037759547280     0.014893103378    12.000000000000
         C           -1.445570171159     0.395468752720    -0.073119496622    12.000000000000
         H            0.686674728841    -1.041704547280     0.887129103378     1.007825032230
         H            0.687449728841    -1.040228547280    -0.860444896622     1.007825032230
         H            0.195968728841     1.434809452720     0.888503103378     1.007825032230
         H            0.196072728841     1.435946452720    -0.858398896622     1.007825032230
         H            2.645317728841     0.555322452720     0.899717103378     1.007825032230
         H            3.032496728841    -0.925293547280     0.014346103378     1.007825032230
         H            2.646012728841     0.556910452720    -0.868663896622     1.007825032230
         H           -2.157008271159     1.317325452720     0.013932103378     1.007825032230

  Basis Set: AUG-CC-PVTZ
    Blend: AUG-CC-PVTZ
  Basis Set: (AUG-CC-PVTZ AUX)
    Blend: AUG-CC-PVTZ-JKFIT
	 Reference Energy          =    -231.0672116045662392 [Eh]
	 Singles Energy            =      -0.0000000000000000 [Eh]
	 Same-Spin Energy          =      -0.2286913570326448 [Eh]
	 Opposite-Spin Energy      =      -0.7913762601829795 [Eh]
	 Correlation Energy        =      -1.0200676172156242 [Eh]
	 Total Energy              =    -232.0872792217818699 [Eh]

	 ================> DF-SCS-MP2 Energies <==================
	-----------------------------------------------------------
	 SCS Same-Spin Scale       =       0.3333333333333333 [-]
	 SCS Opposite-Spin Scale   =       1.2000000000000000 [-]
	 SCS Same-Spin Energy      =      -0.0762304523442149 [Eh]
	 SCS Opposite-Spin Energy  =      -0.9496515122195753 [Eh]
	 SCS Correlation Energy    =      -1.0258819645637902 [Eh]
	 SCS Total Energy          =    -232.0930935691300192 [Eh]
	-----------------------------------------------------------

  Dipole Moment: [D]
     X:     1.5813      Y:     1.8775      Z:    -0.0429     Total:     2.4550

*** Psi4 exiting successfully. Buy a developer a beer!
