                               Psi4 1.3.2 release

  ==> Input File <==

--------------------------------------------------------------------------
#psi4
#
memory 32 gb

molecule  {
0 1
  O       -1.9983450    -0.7282080     0.0003470
  C        0.6894464    -0.5488210    -0.0006437
  C       -0.0915640     0.7578760     0.0000330
  C        2.2978970    -0.0745110     0.0003180
  C       -1.5581360     0.4144240    -0.0001330
  H        0.5909330    -1.0784560     0.8725540
  H        0.5917080    -1.0769800    -0.8750200
  H        0.1002270     1.3980580     0.8739280
  H        0.1003310     1.3991950    -0.8729740
  H        2.5495760     0.5185710     0.8851420
  H        2.9367550    -0.9620450    -0.0002290
  H        2.5502710     0.5201590    -0.8832390
  H       -2.2527500     1.2805740    -0.0006430
units angstrom
no_reorient  #important for SAPT in psi4, default
symmetry c1  #important for SAPT in psi4, default
}

set PROPERTIES_ORIGIN ["COM"]
properties('MP2/aug-cc-pvtz', properties = ['dipole'])
--------------------------------------------------------------------------

    Molecular point group: c1
  Charge       = 0
  Multiplicity = 1
  Basis Set: AUG-CC-PVTZ
    Blend: AUG-CC-PVTZ
  Basis Set: (AUG-CC-PVTZ AUX)
    Blend: AUG-CC-PVTZ-JKFIT

    Orbital Energies [Eh]
    ---------------------

    Doubly Occupied:

       1A    -20.557668     2A    -11.332872     3A    -11.246188
       4A    -11.224615     5A    -11.222374     6A     -1.383125
       7A     -1.075093     8A     -0.960396     9A     -0.856834
      10A     -0.774933    11A     -0.670624    12A     -0.660211
      13A     -0.626471    14A     -0.565424    15A     -0.565082
      16A     -0.516311    17A     -0.509091    18A     -0.495240
      19A     -0.459931    20A     -0.414997

  @DF-RHF Final Energy:  -231.04972078346134

   => Energetics <=

    Nuclear Repulsion Energy =            171.6335861105592926
    One-Electron Energy =                -653.1316520257464617
    Two-Electron Energy =                 250.4483451317258300
    Total Energy =                       -231.0497207834613391
  Basis Set: (AUG-CC-PVTZ AUX)
    Blend: AUG-CC-PVTZ-RI
    Molecular point group: c1

    Geometry (in Angstrom), charge = 0, multiplicity = 1:

       Center              X                  Y                   Z               Mass
    ------------   -----------------  -----------------  -----------------  -----------------
         O           -1.877767660285    -0.685946065817     0.000347595753    15.994914619570
         C            0.810023739715    -0.506559065817    -0.000643104247    12.000000000000
         C            0.029013339715     0.800137934183     0.000033595753    12.000000000000
         C            2.418474339715    -0.032249065817     0.000318595753    12.000000000000
         C           -1.437558660285     0.456685934183    -0.000132404247    12.000000000000
         H            0.711510339715    -1.036194065817     0.872554595753     1.007825032230
         H            0.712285339715    -1.034718065817    -0.875019404247     1.007825032230
         H            0.220804339715     1.440319934183     0.873928595753     1.007825032230
         H            0.220908339715     1.441456934183    -0.872973404247     1.007825032230
         H            2.670153339715     0.560832934183     0.885142595753     1.007825032230
         H            3.057332339715    -0.919783065817    -0.000228404247     1.007825032230
         H            2.670848339715     0.562420934183    -0.883238404247     1.007825032230
         H           -2.132172660285     1.322835934183    -0.000642404247     1.007825032230

  Basis Set: AUG-CC-PVTZ
    Blend: AUG-CC-PVTZ
  Basis Set: (AUG-CC-PVTZ AUX)
    Blend: AUG-CC-PVTZ-JKFIT
	 Reference Energy          =    -231.0497207834613391 [Eh]
	 Singles Energy            =      -0.0000000000000000 [Eh]
	 Same-Spin Energy          =      -0.2293959384080486 [Eh]
	 Opposite-Spin Energy      =      -0.7939965606158824 [Eh]
	 Correlation Energy        =      -1.0233924990239309 [Eh]
	 Total Energy              =    -232.0731132824852807 [Eh]

	 ================> DF-SCS-MP2 Energies <==================
	-----------------------------------------------------------
	 SCS Same-Spin Scale       =       0.3333333333333333 [-]
	 SCS Opposite-Spin Scale   =       1.2000000000000000 [-]
	 SCS Same-Spin Energy      =      -0.0764653128026828 [Eh]
	 SCS Opposite-Spin Energy  =      -0.9527958727390589 [Eh]
	 SCS Correlation Energy    =      -1.0292611855417417 [Eh]
	 SCS Total Energy          =    -232.0789819690030811 [Eh]
	-----------------------------------------------------------

  Dipole Moment: [D]
     X:     1.4525      Y:     2.1313      Z:    -0.0008     Total:     2.5792

*** Psi4 exiting successfully. Buy a developer a beer!
