                               Psi4 1.3.2 release

  ==> Input File <==

--------------------------------------------------------------------------
#psi4
#
memory 32 gb

molecule  {
0 1
  O       -1.9983450    -0.7282080     0.0003470
  C        0.8217550    -0.4600250    -0.0005990
  C       -0.0915640     0.7578760     0.0000330
  C        2.2978970    -0.0745110     0.0003180
  C       -1.5940862     0.3211096    -0.0000938
  H        0.5909330    -1.0784560     0.8725540
  H        0.5917080    -1.0769800    -0.8750200
  H        0.1002270     1.3980580     0.8739280
  H        0.1003310     1.3991950    -0.8729740
  H        2.5495760     0.5185710     0.8851420
  H        2.9367550    -0.9620450    -0.0002290
  H        2.5502710     0.5201590    -0.8832390
  H       -2.2527500     1.2805740    -0.0006430
units angstrom
no_reorient  #important for SAPT in psi4, default
symmetry c1  #important for SAPT in psi4, default
}

set PROPERTIES_ORIGIN ["COM"]
properties('MP2/aug-cc-pvtz', properties = ['dipole'])
--------------------------------------------------------------------------

    Molecular point group: c1
  Charge       = 0
  Multiplicity = 1
  Basis Set: AUG-CC-PVTZ
    Blend: AUG-CC-PVTZ
  Basis Set: (AUG-CC-PVTZ AUX)
    Blend: AUG-CC-PVTZ-JKFIT

    Orbital Energies [Eh]
    ---------------------

    Doubly Occupied:

       1A    -20.564750     2A    -11.328815     3A    -11.239552
       4A    -11.224352     5A    -11.218164     6A     -1.457939
       7A     -1.074345     8A     -0.962714     9A     -0.837188
      10A     -0.763645    11A     -0.685373    12A     -0.654413
      13A     -0.647077    14A     -0.580187    15A     -0.571673
      16A     -0.530257    17A     -0.514844    18A     -0.489669
      19A     -0.478561    20A     -0.397757

  @DF-RHF Final Energy:  -231.06272546965968

   => Energetics <=

    Nuclear Repulsion Energy =            173.0210905053633041
    One-Electron Energy =                -655.7250839163694991
    Two-Electron Energy =                 251.6412679413465128
    Total Energy =                       -231.0627254696596822
  Basis Set: (AUG-CC-PVTZ AUX)
    Blend: AUG-CC-PVTZ-RI
    Molecular point group: c1

    Geometry (in Angstrom), charge = 0, multiplicity = 1:

       Center              X                  Y                   Z               Mass
    ------------   -----------------  -----------------  -----------------  -----------------
         O           -1.893814575058    -0.685193600233     0.000333623581    15.994914619570
         C            0.926285424942    -0.417010600233    -0.000612376419    12.000000000000
         C            0.012966424942     0.800890399767     0.000019623581    12.000000000000
         C            2.402427424942    -0.031496600233     0.000304623581    12.000000000000
         C           -1.489555775058     0.364123999767    -0.000107176419    12.000000000000
         H            0.695463424942    -1.035441600233     0.872540623581     1.007825032230
         H            0.696238424942    -1.033965600233    -0.875033376419     1.007825032230
         H            0.204757424942     1.441072399767     0.873914623581     1.007825032230
         H            0.204861424942     1.442209399767    -0.872987376419     1.007825032230
         H            2.654106424942     0.561585399767     0.885128623581     1.007825032230
         H            3.041285424942    -0.919030600233    -0.000242376419     1.007825032230
         H            2.654801424942     0.563173399767    -0.883252376419     1.007825032230
         H           -2.148219575058     1.323588399767    -0.000656376419     1.007825032230

  Basis Set: AUG-CC-PVTZ
    Blend: AUG-CC-PVTZ
  Basis Set: (AUG-CC-PVTZ AUX)
    Blend: AUG-CC-PVTZ-JKFIT
	 Reference Energy          =    -231.0627254696596822 [Eh]
	 Singles Energy            =      -0.0000000000000000 [Eh]
	 Same-Spin Energy          =      -0.2270038839465809 [Eh]
	 Opposite-Spin Energy      =      -0.7877217795153663 [Eh]
	 Correlation Energy        =      -1.0147256634619473 [Eh]
	 Total Energy              =    -232.0774511331216274 [Eh]

	 ================> DF-SCS-MP2 Energies <==================
	-----------------------------------------------------------
	 SCS Same-Spin Scale       =       0.3333333333333333 [-]
	 SCS Opposite-Spin Scale   =       1.2000000000000000 [-]
	 SCS Same-Spin Energy      =      -0.0756679613155270 [Eh]
	 SCS Opposite-Spin Energy  =      -0.9452661354184395 [Eh]
	 SCS Correlation Energy    =      -1.0209340967339664 [Eh]
	 SCS Total Energy          =    -232.0836595663936350 [Eh]
	-----------------------------------------------------------

  Dipole Moment: [D]
     X:     1.2851      Y:     1.6435      Z:    -0.0006     Total:     2.0863

*** Psi4 exiting successfully. Buy a developer a beer!
