                               Psi4 1.3.2 release

  ==> Input File <==

--------------------------------------------------------------------------
#psi4
#
memory 32 gb

molecule  {
0 1
  O       -1.9983450    -0.7282080     0.0003470
  C        0.8428712    -0.4438999    -0.0005909
  C       -0.0915640     0.7578760     0.0000330
  C        2.2978970    -0.0745110     0.0003180
  C       -1.5581360     0.4144240    -0.0001330
  H        0.5909330    -1.0784560     0.8725540
  H        0.5917080    -1.0769800    -0.8750200
  H        0.1002270     1.3980580     0.8739280
  H        0.1003310     1.3991950    -0.8729740
  H        2.5495760     0.5185710     0.8851420
  H        2.9367550    -0.9620450    -0.0002290
  H        2.5502710     0.5201590    -0.8832390
  H       -2.2527500     1.2805740    -0.0006430
units angstrom
no_reorient  #important for SAPT in psi4, default
symmetry c1  #important for SAPT in psi4, default
}

set PROPERTIES_ORIGIN ["COM"]
properties('MP2/aug-cc-pvtz', properties = ['dipole'])
--------------------------------------------------------------------------

    Molecular point group: c1
  Charge       = 0
  Multiplicity = 1
  Basis Set: AUG-CC-PVTZ
    Blend: AUG-CC-PVTZ
  Basis Set: (AUG-CC-PVTZ AUX)
    Blend: AUG-CC-PVTZ-JKFIT

    Orbital Energies [Eh]
    ---------------------

    Doubly Occupied:

       1A    -20.558478     2A    -11.336077     3A    -11.244840
       4A    -11.228258     5A    -11.219655     6A     -1.383135
       7A     -1.083476     8A     -0.979595     9A     -0.846202
      10A     -0.769643    11A     -0.672193    12A     -0.647982
      13A     -0.632208    14A     -0.570278    15A     -0.567925
      16A     -0.520325    17A     -0.499572    18A     -0.487609
      19A     -0.473322    20A     -0.422751

  @DF-RHF Final Energy:  -231.07011155355167

   => Energetics <=

    Nuclear Repulsion Energy =            171.9877401378156208
    One-Electron Energy =                -653.8286560076265914
    Two-Electron Energy =                 250.7708043162592730
    Total Energy =                       -231.0701115535516692
  Basis Set: (AUG-CC-PVTZ AUX)
    Blend: AUG-CC-PVTZ-RI
    Molecular point group: c1

    Geometry (in Angstrom), charge = 0, multiplicity = 1:

       Center              X                  Y                   Z               Mass
    ------------   -----------------  -----------------  -----------------  -----------------
         O           -1.903318050180    -0.703418958160     0.000338802777    15.994914619570
         C            0.937898149820    -0.419110858160    -0.000599097223    12.000000000000
         C            0.003462949820     0.782665041840     0.000024802777    12.000000000000
         C            2.392923949820    -0.049721958160     0.000309802777    12.000000000000
         C           -1.463109050180     0.439213041840    -0.000141197223    12.000000000000
         H            0.685959949820    -1.053666958160     0.872545802777     1.007825032230
         H            0.686734949820    -1.052190958160    -0.875028197223     1.007825032230
         H            0.195253949820     1.422847041840     0.873919802777     1.007825032230
         H            0.195357949820     1.423984041840    -0.872982197223     1.007825032230
         H            2.644602949820     0.543360041840     0.885133802777     1.007825032230
         H            3.031781949820    -0.937255958160    -0.000237197223     1.007825032230
         H            2.645297949820     0.544948041840    -0.883247197223     1.007825032230
         H           -2.157723050180     1.305363041840    -0.000651197223     1.007825032230

  Basis Set: AUG-CC-PVTZ
    Blend: AUG-CC-PVTZ
  Basis Set: (AUG-CC-PVTZ AUX)
    Blend: AUG-CC-PVTZ-JKFIT
	 Reference Energy          =    -231.0701115535516692 [Eh]
	 Singles Energy            =      -0.0000000000000000 [Eh]
	 Same-Spin Energy          =      -0.2295761380859714 [Eh]
	 Opposite-Spin Energy      =      -0.7933799801173167 [Eh]
	 Correlation Energy        =      -1.0229561182032880 [Eh]
	 Total Energy              =    -232.0930676717549659 [Eh]

	 ================> DF-SCS-MP2 Energies <==================
	-----------------------------------------------------------
	 SCS Same-Spin Scale       =       0.3333333333333333 [-]
	 SCS Opposite-Spin Scale   =       1.2000000000000000 [-]
	 SCS Same-Spin Energy      =      -0.0765253793619905 [Eh]
	 SCS Opposite-Spin Energy  =      -0.9520559761407800 [Eh]
	 SCS Correlation Energy    =      -1.0285813555027705 [Eh]
	 SCS Total Energy          =    -232.0986929090544493 [Eh]
	-----------------------------------------------------------

  Dipole Moment: [D]
     X:     1.5305      Y:     2.1413      Z:    -0.0007     Total:     2.6320

*** Psi4 exiting successfully. Buy a developer a beer!
