                               Psi4 1.3.2 release

  ==> Input File <==

--------------------------------------------------------------------------
#psi4
#
memory 32 gb

molecule  {
0 1
  O       -1.9581996    -0.7428750     0.0003597
  C        0.8217550    -0.4600250    -0.0005990
  C       -0.0915640     0.7578760     0.0000330
  C        2.2978970    -0.0745110     0.0003180
  C       -1.5581360     0.4144240    -0.0001330
  H        0.5909330    -1.0784560     0.8725540
  H        0.5917080    -1.0769800    -0.8750200
  H        0.1002270     1.3980580     0.8739280
  H        0.1003310     1.3991950    -0.8729740
  H        2.5495760     0.5185710     0.8851420
  H        2.9367550    -0.9620450    -0.0002290
  H        2.5502710     0.5201590    -0.8832390
  H       -2.2527500     1.2805740    -0.0006430
units angstrom
no_reorient  #important for SAPT in psi4, default
symmetry c1  #important for SAPT in psi4, default
}

set PROPERTIES_ORIGIN ["COM"]
properties('MP2/aug-cc-pvtz', properties = ['dipole'])
--------------------------------------------------------------------------

    Molecular point group: c1
  Charge       = 0
  Multiplicity = 1
  Basis Set: AUG-CC-PVTZ
    Blend: AUG-CC-PVTZ
  Basis Set: (AUG-CC-PVTZ AUX)
    Blend: AUG-CC-PVTZ-JKFIT

    Orbital Energies [Eh]
    ---------------------

    Doubly Occupied:

       1A    -20.558241     2A    -11.335771     3A    -11.243091
       4A    -11.225967     5A    -11.219411     6A     -1.383462
       7A     -1.080116     8A     -0.975525     9A     -0.847624
      10A     -0.770339    11A     -0.672230    12A     -0.648168
      13A     -0.631201    14A     -0.568775    15A     -0.566438
      16A     -0.510254    17A     -0.499559    18A     -0.489755
      19A     -0.478570    20A     -0.422435

  @DF-RHF Final Energy:  -231.07062373590153

   => Energetics <=

    Nuclear Repulsion Energy =            172.2507881232259592
    One-Electron Energy =                -654.3889549663113030
    Two-Electron Energy =                 251.0675431071838091
    Total Energy =                       -231.0706237359015347
  Basis Set: (AUG-CC-PVTZ AUX)
    Blend: AUG-CC-PVTZ-RI
    Molecular point group: c1

    Geometry (in Angstrom), charge = 0, multiplicity = 1:

       Center              X                  Y                   Z               Mass
    ------------   -----------------  -----------------  -----------------  -----------------
         O           -1.868567338660    -0.712144889925     0.000350032626    15.994914619570
         C            0.911387261340    -0.429294889925    -0.000608667374    12.000000000000
         C           -0.001931738660     0.788606110075     0.000023332626    12.000000000000
         C            2.387529261340    -0.043780889925     0.000308332626    12.000000000000
         C           -1.468503738660     0.445154110075    -0.000142667374    12.000000000000
         H            0.680565261340    -1.047725889925     0.872544332626     1.007825032230
         H            0.681340261340    -1.046249889925    -0.875029667374     1.007825032230
         H            0.189859261340     1.428788110075     0.873918332626     1.007825032230
         H            0.189963261340     1.429925110075    -0.872983667374     1.007825032230
         H            2.639208261340     0.549301110075     0.885132332626     1.007825032230
         H            3.026387261340    -0.931314889925    -0.000238667374     1.007825032230
         H            2.639903261340     0.550889110075    -0.883248667374     1.007825032230
         H           -2.163117738660     1.311304110075    -0.000652667374     1.007825032230

  Basis Set: AUG-CC-PVTZ
    Blend: AUG-CC-PVTZ
  Basis Set: (AUG-CC-PVTZ AUX)
    Blend: AUG-CC-PVTZ-JKFIT
	 Reference Energy          =    -231.0706237359015347 [Eh]
	 Singles Energy            =      -0.0000000000000000 [Eh]
	 Same-Spin Energy          =      -0.2295122641696914 [Eh]
	 Opposite-Spin Energy      =      -0.7933035181496542 [Eh]
	 Correlation Energy        =      -1.0228157823193456 [Eh]
	 Total Energy              =    -232.0934395182208902 [Eh]

	 ================> DF-SCS-MP2 Energies <==================
	-----------------------------------------------------------
	 SCS Same-Spin Scale       =       0.3333333333333333 [-]
	 SCS Opposite-Spin Scale   =       1.2000000000000000 [-]
	 SCS Same-Spin Energy      =      -0.0765040880565638 [Eh]
	 SCS Opposite-Spin Energy  =      -0.9519642217795850 [Eh]
	 SCS Correlation Energy    =      -1.0284683098361487 [Eh]
	 SCS Total Energy          =    -232.0990920457376774 [Eh]
	-----------------------------------------------------------

  Dipole Moment: [D]
     X:     1.4127      Y:     2.1613      Z:    -0.0007     Total:     2.5821

*** Psi4 exiting successfully. Buy a developer a beer!
