                               Psi4 1.3.2 release

  ==> Input File <==

--------------------------------------------------------------------------
#psi4
#
memory 32 gb

molecule  {
0 1
  O       -1.9983450    -0.7282080     0.0003470
  C        0.8217550    -0.4600250    -0.0005990
  C       -0.0636975     0.6026960     0.0001040
  C        2.2978970    -0.0745110     0.0003180
  C       -1.5581360     0.4144240    -0.0001330
  H        0.5909330    -1.0784560     0.8725540
  H        0.5917080    -1.0769800    -0.8750200
  H        0.1002270     1.3980580     0.8739280
  H        0.1003310     1.3991950    -0.8729740
  H        2.5495760     0.5185710     0.8851420
  H        2.9367550    -0.9620450    -0.0002290
  H        2.5502710     0.5201590    -0.8832390
  H       -2.2527500     1.2805740    -0.0006430
units angstrom
no_reorient  #important for SAPT in psi4, default
symmetry c1  #important for SAPT in psi4, default
}

set PROPERTIES_ORIGIN ["COM"]
properties('MP2/aug-cc-pvtz', properties = ['dipole'])
--------------------------------------------------------------------------

    Molecular point group: c1
  Charge       = 0
  Multiplicity = 1
  Basis Set: AUG-CC-PVTZ
    Blend: AUG-CC-PVTZ
  Basis Set: (AUG-CC-PVTZ AUX)
    Blend: AUG-CC-PVTZ-JKFIT

    Orbital Energies [Eh]
    ---------------------

    Doubly Occupied:

       1A    -20.553439     2A    -11.336219     3A    -11.256096
       4A    -11.223993     5A    -11.221195     6A     -1.382862
       7A     -1.104883     8A     -0.970980     9A     -0.863050
      10A     -0.760406    11A     -0.679229    12A     -0.650089
      13A     -0.636217    14A     -0.569667    15A     -0.555394
      16A     -0.533225    17A     -0.500938    18A     -0.493182
      19A     -0.451110    20A     -0.421084

  @DF-RHF Final Energy:  -231.04168123962620

   => Energetics <=

    Nuclear Repulsion Energy =            173.4839602303013351
    One-Electron Energy =                -656.7247712414700800
    Two-Electron Energy =                 252.1991297715425162
    Total Energy =                       -231.0416812396262003
  Basis Set: (AUG-CC-PVTZ AUX)
    Blend: AUG-CC-PVTZ-RI
    Molecular point group: c1

    Geometry (in Angstrom), charge = 0, multiplicity = 1:

       Center              X                  Y                   Z               Mass
    ------------   -----------------  -----------------  -----------------  -----------------
         O           -1.904442202188    -0.674890896882     0.000328327811    15.994914619570
         C            0.915657797812    -0.406707896882    -0.000617672189    12.000000000000
         C            0.030205297812     0.656013103118     0.000085327811    12.000000000000
         C            2.391799797812    -0.021193896882     0.000299327811    12.000000000000
         C           -1.464233202188     0.467741103118    -0.000151672189    12.000000000000
         H            0.684835797812    -1.025138896882     0.872535327811     1.007825032230
         H            0.685610797812    -1.023662896882    -0.875038672189     1.007825032230
         H            0.194129797812     1.451375103118     0.873909327811     1.007825032230
         H            0.194233797812     1.452512103118    -0.872992672189     1.007825032230
         H            2.643478797812     0.571888103118     0.885123327811     1.007825032230
         H            3.030657797812    -0.908727896882    -0.000247672189     1.007825032230
         H            2.644173797812     0.573476103118    -0.883257672189     1.007825032230
         H           -2.158847202188     1.333891103118    -0.000661672189     1.007825032230

  Basis Set: AUG-CC-PVTZ
    Blend: AUG-CC-PVTZ
  Basis Set: (AUG-CC-PVTZ AUX)
    Blend: AUG-CC-PVTZ-JKFIT
	 Reference Energy          =    -231.0416812396262003 [Eh]
	 Singles Energy            =      -0.0000000000000000 [Eh]
	 Same-Spin Energy          =      -0.2315238646600326 [Eh]
	 Opposite-Spin Energy      =      -0.7957186914535856 [Eh]
	 Correlation Energy        =      -1.0272425561136183 [Eh]
	 Total Energy              =    -232.0689237957398063 [Eh]

	 ================> DF-SCS-MP2 Energies <==================
	-----------------------------------------------------------
	 SCS Same-Spin Scale       =       0.3333333333333333 [-]
	 SCS Opposite-Spin Scale   =       1.2000000000000000 [-]
	 SCS Same-Spin Energy      =      -0.0771746215533442 [Eh]
	 SCS Opposite-Spin Energy  =      -0.9548624297443027 [Eh]
	 SCS Correlation Energy    =      -1.0320370512976469 [Eh]
	 SCS Total Energy          =    -232.0737182909238356 [Eh]
	-----------------------------------------------------------

  Dipole Moment: [D]
     X:     1.6066      Y:     2.0749      Z:    -0.0006     Total:     2.6242

*** Psi4 exiting successfully. Buy a developer a beer!
