                               Psi4 1.3.2 release

  ==> Input File <==

--------------------------------------------------------------------------
#psi4
#
memory 32 gb

molecule  {
0 1
  O       -1.9983450    -0.7282080     0.0003470
  C        0.8217550    -0.4600250    -0.0005990
  C       -0.0915640     0.7578760     0.0000330
  C        2.2978970    -0.0745110     0.0003180
  C       -1.5581360     0.4144240    -0.0001330
  H        0.5909330    -1.0784560     0.8725540
  H        0.5917080    -1.0769800    -0.8750200
  H        0.1002270     1.3980580     0.8739280
  H        0.1003310     1.3991950    -0.8729740
  H        2.5495760     0.5185710     0.8851420
  H        2.9367550    -0.9620450    -0.0002290
  H        2.5502710     0.5201590    -0.8832390
  H       -2.1276250     1.1245492    -0.0005511
units angstrom
no_reorient  #important for SAPT in psi4, default
symmetry c1  #important for SAPT in psi4, default
}

set PROPERTIES_ORIGIN ["COM"]
properties('MP2/aug-cc-pvtz', properties = ['dipole'])
--------------------------------------------------------------------------

    Molecular point group: c1
  Charge       = 0
  Multiplicity = 1
  Basis Set: AUG-CC-PVTZ
    Blend: AUG-CC-PVTZ
  Basis Set: (AUG-CC-PVTZ AUX)
    Blend: AUG-CC-PVTZ-JKFIT

    Orbital Energies [Eh]
    ---------------------

    Doubly Occupied:

       1A    -20.554527     2A    -11.311242     3A    -11.241417
       4A    -11.225527     5A    -11.218987     6A     -1.381220
       7A     -1.080753     8A     -0.982638     9A     -0.873061
      10A     -0.794058    11A     -0.683457    12A     -0.647480
      13A     -0.630261    14A     -0.570137    15A     -0.565664
      16A     -0.510580    17A     -0.497485    18A     -0.489690
      19A     -0.477822    20A     -0.427622

  @DF-RHF Final Energy:  -231.04179771407297

   => Energetics <=

    Nuclear Repulsion Energy =            172.9588173850673058
    One-Electron Energy =                -655.6739776377058888
    Two-Electron Energy =                 251.6733625385656410
    Total Energy =                       -231.0417977140729704
  Basis Set: (AUG-CC-PVTZ AUX)
    Blend: AUG-CC-PVTZ-RI
    Molecular point group: c1

    Geometry (in Angstrom), charge = 0, multiplicity = 1:

       Center              X                  Y                   Z               Mass
    ------------   -----------------  -----------------  -----------------  -----------------
         O           -1.901551540566    -0.698551361773     0.000338866349    15.994914619570
         C            0.918548459434    -0.430368361773    -0.000607133651    12.000000000000
         C            0.005229459434     0.787532638227     0.000024866349    12.000000000000
         C            2.394690459434    -0.044854361773     0.000309866349    12.000000000000
         C           -1.461342540566     0.444080638227    -0.000141133651    12.000000000000
         H            0.687726459434    -1.048799361773     0.872545866349     1.007825032230
         H            0.688501459434    -1.047323361773    -0.875028133651     1.007825032230
         H            0.197020459434     1.427714638227     0.873919866349     1.007825032230
         H            0.197124459434     1.428851638227    -0.872982133651     1.007825032230
         H            2.646369459434     0.548227638227     0.885133866349     1.007825032230
         H            3.033548459434    -0.932388361773    -0.000237133651     1.007825032230
         H            2.647064459434     0.549815638227    -0.883247133651     1.007825032230
         H           -2.030831540566     1.154205838227    -0.000559233651     1.007825032230

  Basis Set: AUG-CC-PVTZ
    Blend: AUG-CC-PVTZ
  Basis Set: (AUG-CC-PVTZ AUX)
    Blend: AUG-CC-PVTZ-JKFIT
	 Reference Energy          =    -231.0417977140729704 [Eh]
	 Singles Energy            =      -0.0000000000000000 [Eh]
	 Same-Spin Energy          =      -0.2290037845560353 [Eh]
	 Opposite-Spin Energy      =      -0.7925880386472985 [Eh]
	 Correlation Energy        =      -1.0215918232033339 [Eh]
	 Total Energy              =    -232.0633895372762936 [Eh]

	 ================> DF-SCS-MP2 Energies <==================
	-----------------------------------------------------------
	 SCS Same-Spin Scale       =       0.3333333333333333 [-]
	 SCS Opposite-Spin Scale   =       1.2000000000000000 [-]
	 SCS Same-Spin Energy      =      -0.0763345948520117 [Eh]
	 SCS Opposite-Spin Energy  =      -0.9511056463767582 [Eh]
	 SCS Correlation Energy    =      -1.0274402412287700 [Eh]
	 SCS Total Energy          =    -232.0692379553017304 [Eh]
	-----------------------------------------------------------

  Dipole Moment: [D]
     X:     1.3917      Y:     2.2975      Z:    -0.0008     Total:     2.6862

*** Psi4 exiting successfully. Buy a developer a beer!
