                               Psi4 1.3.2 release

  ==> Input File <==

--------------------------------------------------------------------------
#psi4
#
memory 32 gb

molecule  {
0 1
  O       -1.9983450    -0.7282080     0.0003470
  C        0.8217550    -0.4600250    -0.0005990
  C       -0.0915640     0.7578760     0.0000330
  C        2.2978970    -0.0745110     0.0003180
  C       -1.5581360     0.4144240    -0.0001330
  H        0.5909330    -1.0784560     0.8725540
  H        0.5917080    -1.0769800    -0.8750200
  H        0.1002270     1.3980580     0.8739280
  H        0.1003310     1.3991950    -0.8729740
  H        2.5495760     0.5185710     0.8851420
  H        2.9367550    -0.9620450    -0.0002290
  H        2.5502710     0.5201590    -0.8832390
  H       -2.3778750     1.4365988    -0.0007349
units angstrom
no_reorient  #important for SAPT in psi4, default
symmetry c1  #important for SAPT in psi4, default
}

set PROPERTIES_ORIGIN ["COM"]
properties('MP2/aug-cc-pvtz', properties = ['dipole'])
--------------------------------------------------------------------------

    Molecular point group: c1
  Charge       = 0
  Multiplicity = 1
  Basis Set: AUG-CC-PVTZ
    Blend: AUG-CC-PVTZ
  Basis Set: (AUG-CC-PVTZ AUX)
    Blend: AUG-CC-PVTZ-JKFIT

    Orbital Energies [Eh]
    ---------------------

    Doubly Occupied:

       1A    -20.565335     2A    -11.357618     3A    -11.249922
       4A    -11.229820     5A    -11.222278     6A     -1.387957
       7A     -1.084157     8A     -0.976177     9A     -0.840774
      10A     -0.753935    11A     -0.654581    12A     -0.651700
      13A     -0.632422    14A     -0.569747    15A     -0.568140
      16A     -0.514136    17A     -0.504863    18A     -0.493312
      19A     -0.481928    20A     -0.413184

  @DF-RHF Final Energy:  -231.05113280051785

   => Energetics <=

    Nuclear Repulsion Energy =            171.1131508163296076
    One-Electron Energy =                -652.0245946390368772
    Two-Electron Energy =                 249.8603110221894212
    Total Energy =                       -231.0511328005178484
  Basis Set: (AUG-CC-PVTZ AUX)
    Blend: AUG-CC-PVTZ-RI
    Molecular point group: c1

    Geometry (in Angstrom), charge = 0, multiplicity = 1:

       Center              X                  Y                   Z               Mass
    ------------   -----------------  -----------------  -----------------  -----------------
         O           -1.898051444639    -0.702915811459     0.000341437049    15.994914619570
         C            0.922048555361    -0.434732811459    -0.000604562951    12.000000000000
         C            0.008729555361     0.783168188541     0.000027437049    12.000000000000
         C            2.398190555361    -0.049218811459     0.000312437049    12.000000000000
         C           -1.457842444639     0.439716188541    -0.000138562951    12.000000000000
         H            0.691226555361    -1.053163811459     0.872548437049     1.007825032230
         H            0.692001555361    -1.051687811459    -0.875025562951     1.007825032230
         H            0.200520555361     1.423350188541     0.873922437049     1.007825032230
         H            0.200624555361     1.424487188541    -0.872979562951     1.007825032230
         H            2.649869555361     0.543863188541     0.885136437049     1.007825032230
         H            3.037048555361    -0.936752811459    -0.000234562951     1.007825032230
         H            2.650564555361     0.545451188541    -0.883244562951     1.007825032230
         H           -2.277581444639     1.461890988541    -0.000740462951     1.007825032230

  Basis Set: AUG-CC-PVTZ
    Blend: AUG-CC-PVTZ
  Basis Set: (AUG-CC-PVTZ AUX)
    Blend: AUG-CC-PVTZ-JKFIT
	 Reference Energy          =    -231.0511328005178484 [Eh]
	 Singles Energy            =      -0.0000000000000000 [Eh]
	 Same-Spin Energy          =      -0.2303175093020750 [Eh]
	 Opposite-Spin Energy      =      -0.7956044791575186 [Eh]
	 Correlation Energy        =      -1.0259219884595936 [Eh]
	 Total Energy              =    -232.0770547889774491 [Eh]

	 ================> DF-SCS-MP2 Energies <==================
	-----------------------------------------------------------
	 SCS Same-Spin Scale       =       0.3333333333333333 [-]
	 SCS Opposite-Spin Scale   =       1.2000000000000000 [-]
	 SCS Same-Spin Energy      =      -0.0767725031006917 [Eh]
	 SCS Opposite-Spin Energy  =      -0.9547253749890223 [Eh]
	 SCS Correlation Energy    =      -1.0314978780897139 [Eh]
	 SCS Total Energy          =    -232.0826306786075577 [Eh]
	-----------------------------------------------------------

  Dipole Moment: [D]
     X:     1.7583      Y:     1.8532      Z:    -0.0006     Total:     2.5546

*** Psi4 exiting successfully. Buy a developer a beer!
