                               Psi4 1.4a3.dev225

  ==> Input File <==

--------------------------------------------------------------------------
#psi4
#
memory 32 gb

molecule  {
0 1
  O       -1.9982100    -0.7282460     0.0000030
  C        0.8216780    -0.4600500    -0.0000060
  C       -0.0915260     0.7579800    -0.0000030
  C        2.2978280    -0.0745400     0.0000050
  C       -1.5094359     0.4258280     0.0000009
  H        0.5911990    -1.0776950     0.8737850
  H        0.5912090    -1.0776840    -0.8738080
  H        0.1003680     1.3986970     0.8734520
  H        0.1003630     1.3986980    -0.8734580
  H        2.5498060     0.5193220     0.8842150
  H        2.9366580    -0.9620860    -0.0000120
  H        2.5498110     0.5193580    -0.8841810
  H       -2.2529000     1.2804800     0.0000040
units angstrom
no_reorient  #important for SAPT in psi4, default
symmetry c1  #important for SAPT in psi4, default
}

set PROPERTIES_ORIGIN ["COM"]
properties('MP2/aug-cc-pvtz', properties = ['dipole'])
--------------------------------------------------------------------------

    Molecular point group: c1
  Charge       = 0
  Multiplicity = 1
  Basis Set: AUG-CC-PVTZ
    Blend: AUG-CC-PVTZ
  Basis Set: (AUG-CC-PVTZ AUX)
    Blend: AUG-CC-PVTZ-JKFIT

    Orbital Energies [Eh]
    ---------------------

    Doubly Occupied:

       1A    -20.555842     2A    -11.338420     3A    -11.246300
       4A    -11.229180     5A    -11.221741     6A     -1.363893
       7A     -1.089879     8A     -0.985914     9A     -0.849282
      10A     -0.767276    11A     -0.670835    12A     -0.653521
      13A     -0.626870    14A     -0.569649    15A     -0.567419
      16A     -0.511903    17A     -0.493225    18A     -0.491694
      19A     -0.478343    20A     -0.425508

  @DF-RHF Final Energy:  -231.06434678861407

   => Energetics <=

    Nuclear Repulsion Energy =            172.1191752185118560
    One-Electron Energy =                -654.0936566385861397
    Two-Electron Energy =                 250.9101346314602381
    Total Energy =                       -231.0643467886140741
  Basis Set: (AUG-CC-PVTZ AUX)
    Blend: AUG-CC-PVTZ-RI
    Molecular point group: c1

    Geometry (in Angstrom), charge = 0, multiplicity = 1:

       Center              X                  Y                   Z               Mass
    ------------   -----------------  -----------------  -----------------  -----------------
         O           -1.907781167559    -0.702670823677     0.000002892291    15.994914619570
         C            0.912106832441    -0.434474823677    -0.000006107709    12.000000000000
         C           -0.001097167559     0.783555176323    -0.000003107709    12.000000000000
         C            2.388256832441    -0.048964823677     0.000004892291    12.000000000000
         C           -1.419007067559     0.451403176323     0.000000792291    12.000000000000
         H            0.681627832441    -1.052119823677     0.873784892291     1.007825032230
         H            0.681637832441    -1.052108823677    -0.873808107709     1.007825032230
         H            0.190796832441     1.424272176323     0.873451892291     1.007825032230
         H            0.190791832441     1.424273176323    -0.873458107709     1.007825032230
         H            2.640234832441     0.544897176323     0.884214892291     1.007825032230
         H            3.027086832441    -0.936510823677    -0.000012107709     1.007825032230
         H            2.640239832441     0.544933176323    -0.884181107709     1.007825032230
         H           -2.162471167559     1.306055176323     0.000003892291     1.007825032230

  Basis Set: AUG-CC-PVTZ
    Blend: AUG-CC-PVTZ
  Basis Set: (AUG-CC-PVTZ AUX)
    Blend: AUG-CC-PVTZ-JKFIT
	 Reference Energy          =    -231.0643467886140741 [Eh]
	 Singles Energy            =      -0.0000000000000000 [Eh]
	 Same-Spin Energy          =      -0.2306400563244953 [Eh]
	 Opposite-Spin Energy      =      -0.7953600958654395 [Eh]
	 Correlation Energy        =      -1.0260001521899349 [Eh]
	 Total Energy              =    -232.0903469408040110 [Eh]

	 ================> DF-SCS-MP2 Energies <==================
	-----------------------------------------------------------
	 SCS Same-Spin Scale       =       0.3333333333333333 [-]
	 SCS Opposite-Spin Scale   =       1.2000000000000000 [-]
	 SCS Same-Spin Energy      =      -0.0768800187748317 [Eh]
	 SCS Opposite-Spin Energy  =      -0.9544321150385274 [Eh]
	 SCS Correlation Energy    =      -1.0313121338133593 [Eh]
	 SCS Total Energy          =    -232.0956589224274467 [Eh]
	-----------------------------------------------------------

  Dipole Moment: [D]
     X:     1.7598      Y:     2.2115      Z:    -0.0000     Total:     2.8263

*** Psi4 exiting successfully. Buy a developer a beer!
