                               Psi4 1.3.2 release

  ==> Input File <==

--------------------------------------------------------------------------
#psi4
#
memory 32 gb

molecule  {
0 1
  O       -1.9983450    -0.7282080     0.0003470
  C        0.8217550    -0.4600250    -0.0005990
  C       -0.0915640     0.7578760     0.0000330
  C        2.2978970    -0.0745110     0.0003180
  C       -1.5699592     0.5010344     0.1310776
  H        0.5909330    -1.0784560     0.8725540
  H        0.5917080    -1.0769800    -0.8750200
  H        0.1002270     1.3980580     0.8739280
  H        0.1003310     1.3991950    -0.8729740
  H        2.5495760     0.5185710     0.8851420
  H        2.9367550    -0.9620450    -0.0002290
  H        2.5502710     0.5201590    -0.8832390
  H       -2.2527500     1.2805740    -0.0006430
units angstrom
no_reorient  #important for SAPT in psi4, default
symmetry c1  #important for SAPT in psi4, default
}

set PROPERTIES_ORIGIN ["COM"]
properties('MP2/aug-cc-pvtz', properties = ['dipole'])
--------------------------------------------------------------------------

    Molecular point group: c1
  Charge       = 0
  Multiplicity = 1
  Basis Set: AUG-CC-PVTZ
    Blend: AUG-CC-PVTZ
  Basis Set: (AUG-CC-PVTZ AUX)
    Blend: AUG-CC-PVTZ-JKFIT

    Orbital Energies [Eh]
    ---------------------

    Doubly Occupied:

       1A    -20.557791     2A    -11.342701     3A    -11.249134
       4A    -11.228273     5A    -11.220982     6A     -1.333078
       7A     -1.081515     8A     -0.980949     9A     -0.857882
      10A     -0.783323    11A     -0.668017    12A     -0.647227
      13A     -0.613722    14A     -0.565436    15A     -0.561392
      16A     -0.510884    17A     -0.489661    18A     -0.484956
      19A     -0.465500    20A     -0.431294

  @DF-RHF Final Energy:  -231.04295084017534

   => Energetics <=

    Nuclear Repulsion Energy =            170.5870548447810506
    One-Electron Energy =                -651.1125794697046558
    Two-Electron Energy =                 249.4825737847482685
    Total Energy =                       -231.0429508401753367
  Basis Set: (AUG-CC-PVTZ AUX)
    Blend: AUG-CC-PVTZ-RI
    Molecular point group: c1

    Geometry (in Angstrom), charge = 0, multiplicity = 1:

       Center              X                  Y                   Z               Mass
    ------------   -----------------  -----------------  -----------------  -----------------
         O           -1.897832532110    -0.715157131499    -0.021510826685    15.994914619570
         C            0.922267467890    -0.446974131499    -0.022456826685    12.000000000000
         C            0.008948467890     0.770926868501    -0.021824826685    12.000000000000
         C            2.398409467890    -0.061460131499    -0.021539826685    12.000000000000
         C           -1.469446732110     0.514085268501     0.109219773315    12.000000000000
         H            0.691445467890    -1.065405131499     0.850696173315     1.007825032230
         H            0.692220467890    -1.063929131499    -0.896877826685     1.007825032230
         H            0.200739467890     1.411108868501     0.852070173315     1.007825032230
         H            0.200843467890     1.412245868501    -0.894831826685     1.007825032230
         H            2.650088467890     0.531621868501     0.863284173315     1.007825032230
         H            3.037267467890    -0.948994131499    -0.022086826685     1.007825032230
         H            2.650783467890     0.533209868501    -0.905096826685     1.007825032230
         H           -2.152237532110     1.293624868501    -0.022500826685     1.007825032230

  Basis Set: AUG-CC-PVTZ
    Blend: AUG-CC-PVTZ
  Basis Set: (AUG-CC-PVTZ AUX)
    Blend: AUG-CC-PVTZ-JKFIT
	 Reference Energy          =    -231.0429508401753367 [Eh]
	 Singles Energy            =      -0.0000000000000000 [Eh]
	 Same-Spin Energy          =      -0.2319582530226580 [Eh]
	 Opposite-Spin Energy      =      -0.7998285183062682 [Eh]
	 Correlation Energy        =      -1.0317867713289262 [Eh]
	 Total Energy              =    -232.0747376115042755 [Eh]

	 ================> DF-SCS-MP2 Energies <==================
	-----------------------------------------------------------
	 SCS Same-Spin Scale       =       0.3333333333333333 [-]
	 SCS Opposite-Spin Scale   =       1.2000000000000000 [-]
	 SCS Same-Spin Energy      =      -0.0773194176742193 [Eh]
	 SCS Opposite-Spin Energy  =      -0.9597942219675218 [Eh]
	 SCS Correlation Energy    =      -1.0371136396417411 [Eh]
	 SCS Total Energy          =    -232.0800644798170822 [Eh]
	-----------------------------------------------------------

  Dipole Moment: [D]
     X:     1.5143      Y:     2.3817      Z:     0.0413     Total:     2.8227

*** Psi4 exiting successfully. Buy a developer a beer!
