                               Psi4 1.4a3.dev225

  ==> Input File <==

--------------------------------------------------------------------------
#psi4
#
memory 32 gb

molecule  {
0 1
  O       -1.9982100    -0.7282460     0.0000030
  C        0.8216780    -0.4600500    -0.0000060
  C       -0.0915260     0.7579800    -0.0000030
  C        2.2978280    -0.0745400     0.0000050
  C       -1.5581180     0.4144240     0.0000010
  H        0.5911990    -1.0776950     0.8737850
  H        0.5912090    -1.0776840    -0.8738080
  H        0.1003680     1.3986970     0.8734520
  H        0.1003630     1.3986980    -0.8734580
  H        2.5498060     0.5193220     0.8842150
  H        2.9366580    -0.9620860    -0.0000120
  H        2.5498110     0.5193580    -0.8841810
  H       -2.2216121     1.2414792     0.0000039
units angstrom
no_reorient  #important for SAPT in psi4, default
symmetry c1  #important for SAPT in psi4, default
}

set PROPERTIES_ORIGIN ["COM"]
properties('MP2/aug-cc-pvtz', properties = ['dipole'])
--------------------------------------------------------------------------

    Molecular point group: c1
  Charge       = 0
  Multiplicity = 1
  Basis Set: AUG-CC-PVTZ
    Blend: AUG-CC-PVTZ
  Basis Set: (AUG-CC-PVTZ AUX)
    Blend: AUG-CC-PVTZ-JKFIT

    Orbital Energies [Eh]
    ---------------------

    Doubly Occupied:

       1A    -20.556996     2A    -11.329496     3A    -11.243733
       4A    -11.226585     5A    -11.219847     6A     -1.382233
       7A     -1.081143     8A     -0.977205     9A     -0.851619
      10A     -0.776710    11A     -0.675313    12A     -0.648533
      13A     -0.630928    14A     -0.569539    15A     -0.566634
      16A     -0.511412    17A     -0.499314    18A     -0.490575
      19A     -0.478909    20A     -0.423502

  @DF-RHF Final Energy:  -231.07068042063992

   => Energetics <=

    Nuclear Repulsion Energy =            172.1543067435239323
    One-Electron Energy =                -654.1695223846476210
    Two-Electron Energy =                 250.9445352204837718
    Total Energy =                       -231.0706804206399170
  Basis Set: (AUG-CC-PVTZ AUX)
    Blend: AUG-CC-PVTZ-RI
    Molecular point group: c1

    Geometry (in Angstrom), charge = 0, multiplicity = 1:

       Center              X                  Y                   Z               Mass
    ------------   -----------------  -----------------  -----------------  -----------------
         O           -1.900111565407    -0.700226193401     0.000002877036    15.994914619570
         C            0.919776434593    -0.432030193401    -0.000006122964    12.000000000000
         C            0.006572434593     0.785999806599    -0.000003122964    12.000000000000
         C            2.395926434593    -0.046520193401     0.000004877036    12.000000000000
         C           -1.460019565407     0.442443806599     0.000000877036    12.000000000000
         H            0.689297434593    -1.049675193401     0.873784877036     1.007825032230
         H            0.689307434593    -1.049664193401    -0.873808122964     1.007825032230
         H            0.198466434593     1.426716806599     0.873451877036     1.007825032230
         H            0.198461434593     1.426717806599    -0.873458122964     1.007825032230
         H            2.647904434593     0.547341806599     0.884214877036     1.007825032230
         H            3.034756434593    -0.934066193401    -0.000012122964     1.007825032230
         H            2.647909434593     0.547377806599    -0.884181122964     1.007825032230
         H           -2.123513665407     1.269499006599     0.000003777036     1.007825032230

  Basis Set: AUG-CC-PVTZ
    Blend: AUG-CC-PVTZ
  Basis Set: (AUG-CC-PVTZ AUX)
    Blend: AUG-CC-PVTZ-JKFIT
	 Reference Energy          =    -231.0706804206399170 [Eh]
	 Singles Energy            =      -0.0000000000000000 [Eh]
	 Same-Spin Energy          =      -0.2292525510864737 [Eh]
	 Opposite-Spin Energy      =      -0.7928552217770671 [Eh]
	 Correlation Energy        =      -1.0221077728635408 [Eh]
	 Total Energy              =    -232.0927881935034520 [Eh]

	 ================> DF-SCS-MP2 Energies <==================
	-----------------------------------------------------------
	 SCS Same-Spin Scale       =       0.3333333333333333 [-]
	 SCS Opposite-Spin Scale   =       1.2000000000000000 [-]
	 SCS Same-Spin Energy      =      -0.0764175170288246 [Eh]
	 SCS Opposite-Spin Energy  =      -0.9514262661324805 [Eh]
	 SCS Correlation Energy    =      -1.0278437831613050 [Eh]
	 SCS Total Energy          =    -232.0985242038012188 [Eh]
	-----------------------------------------------------------

  Dipole Moment: [D]
     X:     1.4794      Y:     2.1891      Z:    -0.0000     Total:     2.6421

*** Psi4 exiting successfully. Buy a developer a beer!
