                               Psi4 1.3.2 release

  ==> Input File <==

--------------------------------------------------------------------------
#psi4
#
memory 32 gb

molecule  {
0 1
  O       -1.9983450    -0.7282080     0.0003470
  C        0.9440571    -0.3578854    -0.0005474
  C       -0.0915640     0.7578760     0.0000330
  C        2.2978970    -0.0745110     0.0003180
  C       -1.5581360     0.4144240    -0.0001330
  H        0.5909330    -1.0784560     0.8725540
  H        0.5917080    -1.0769800    -0.8750200
  H        0.1002270     1.3980580     0.8739280
  H        0.1003310     1.3991950    -0.8729740
  H        2.5495760     0.5185710     0.8851420
  H        2.9367550    -0.9620450    -0.0002290
  H        2.5502710     0.5201590    -0.8832390
  H       -2.2527500     1.2805740    -0.0006430
units angstrom
no_reorient  #important for SAPT in psi4, default
symmetry c1  #important for SAPT in psi4, default
}

set PROPERTIES_ORIGIN ["COM"]
properties('MP2/aug-cc-pvtz', properties = ['dipole'])
--------------------------------------------------------------------------

    Molecular point group: c1
  Charge       = 0
  Multiplicity = 1
  Basis Set: AUG-CC-PVTZ
    Blend: AUG-CC-PVTZ
  Basis Set: (AUG-CC-PVTZ AUX)
    Blend: AUG-CC-PVTZ-JKFIT

    Orbital Energies [Eh]
    ---------------------

    Doubly Occupied:

       1A    -20.560060     2A    -11.339527     3A    -11.246833
       4A    -11.236753     5A    -11.216303     6A     -1.384346
       7A     -1.098209     8A     -0.996264     9A     -0.840419
      10A     -0.763069    11A     -0.676509    12A     -0.646648
      13A     -0.637044    14A     -0.575878    15A     -0.573796
      16A     -0.561353    17A     -0.499254    18A     -0.467128
      19A     -0.437296    20A     -0.426925

  @DF-RHF Final Energy:  -231.04066700375154

   => Energetics <=

    Nuclear Repulsion Energy =            172.4289842146391152
    One-Electron Energy =                -654.5720709697924349
    Two-Electron Energy =                 251.1024197514017828
    Total Energy =                       -231.0406670037515369
  Basis Set: (AUG-CC-PVTZ AUX)
    Blend: AUG-CC-PVTZ-RI
    Molecular point group: c1

    Geometry (in Angstrom), charge = 0, multiplicity = 1:

       Center              X                  Y                   Z               Mass
    ------------   -----------------  -----------------  -----------------  -----------------
         O           -1.920168906084    -0.717743265649     0.000331558564    15.994914619570
         C            1.022233193916    -0.347420665649    -0.000562841436    12.000000000000
         C           -0.013387906084     0.768340734351     0.000017558564    12.000000000000
         C            2.376073093916    -0.064046265649     0.000302558564    12.000000000000
         C           -1.479959906084     0.424888734351    -0.000148441436    12.000000000000
         H            0.669109093916    -1.067991265649     0.872538558564     1.007825032230
         H            0.669884093916    -1.066515265649    -0.875035441436     1.007825032230
         H            0.178403093916     1.408522734351     0.873912558564     1.007825032230
         H            0.178507093916     1.409659734351    -0.872989441436     1.007825032230
         H            2.627752093916     0.529035734351     0.885126558564     1.007825032230
         H            3.014931093916    -0.951580265649    -0.000244441436     1.007825032230
         H            2.628447093916     0.530623734351    -0.883254441436     1.007825032230
         H           -2.174573906084     1.291038734351    -0.000658441436     1.007825032230

  Basis Set: AUG-CC-PVTZ
    Blend: AUG-CC-PVTZ
  Basis Set: (AUG-CC-PVTZ AUX)
    Blend: AUG-CC-PVTZ-JKFIT
	 Reference Energy          =    -231.0406670037515369 [Eh]
	 Singles Energy            =      -0.0000000000000000 [Eh]
	 Same-Spin Energy          =      -0.2311321744544215 [Eh]
	 Opposite-Spin Energy      =      -0.7957769949916530 [Eh]
	 Correlation Energy        =      -1.0269091694460746 [Eh]
	 Total Energy              =    -232.0675761731976081 [Eh]

	 ================> DF-SCS-MP2 Energies <==================
	-----------------------------------------------------------
	 SCS Same-Spin Scale       =       0.3333333333333333 [-]
	 SCS Opposite-Spin Scale   =       1.2000000000000000 [-]
	 SCS Same-Spin Energy      =      -0.0770440581514738 [Eh]
	 SCS Opposite-Spin Energy  =      -0.9549323939899835 [Eh]
	 SCS Correlation Energy    =      -1.0319764521414574 [Eh]
	 SCS Total Energy          =    -232.0726434558930009 [Eh]
	-----------------------------------------------------------

  Dipole Moment: [D]
     X:     1.5695      Y:     2.1777      Z:    -0.0007     Total:     2.6844

*** Psi4 exiting successfully. Buy a developer a beer!
