                               Psi4 1.3.2 release

  ==> Input File <==

--------------------------------------------------------------------------
#psi4
#
memory 32 gb

molecule  {
0 1
  O       -2.1153711    -0.6759342     0.0002931
  C        0.8217550    -0.4600250    -0.0005990
  C       -0.0915640     0.7578760     0.0000330
  C        2.2978970    -0.0745110     0.0003180
  C       -1.5581360     0.4144240    -0.0001330
  H        0.5909330    -1.0784560     0.8725540
  H        0.5917080    -1.0769800    -0.8750200
  H        0.1002270     1.3980580     0.8739280
  H        0.1003310     1.3991950    -0.8729740
  H        2.5495760     0.5185710     0.8851420
  H        2.9367550    -0.9620450    -0.0002290
  H        2.5502710     0.5201590    -0.8832390
  H       -2.2527500     1.2805740    -0.0006430
units angstrom
no_reorient  #important for SAPT in psi4, default
symmetry c1  #important for SAPT in psi4, default
}

set PROPERTIES_ORIGIN ["COM"]
properties('MP2/aug-cc-pvtz', properties = ['dipole'])
--------------------------------------------------------------------------

    Molecular point group: c1
  Charge       = 0
  Multiplicity = 1
  Basis Set: AUG-CC-PVTZ
    Blend: AUG-CC-PVTZ
  Basis Set: (AUG-CC-PVTZ AUX)
    Blend: AUG-CC-PVTZ-JKFIT

    Orbital Energies [Eh]
    ---------------------

    Doubly Occupied:

       1A    -20.558042     2A    -11.334672     3A    -11.249664
       4A    -11.230240     5A    -11.222543     6A     -1.382049
       7A     -1.085542     8A     -0.979054     9A     -0.847939
      10A     -0.771268    11A     -0.670176    12A     -0.651577
      13A     -0.631534    14A     -0.570950    15A     -0.569061
      16A     -0.516169    17A     -0.501865    18A     -0.494479
      19A     -0.481674    20A     -0.418525

  @DF-RHF Final Energy:  -231.06908891081346

   => Energetics <=

    Nuclear Repulsion Energy =            171.0172934813564609
    One-Electron Energy =                -651.8387225168926307
    Two-Electron Energy =                 249.7523401247227355
    Total Energy =                       -231.0690889108134627
  Basis Set: (AUG-CC-PVTZ AUX)
    Blend: AUG-CC-PVTZ-RI
    Molecular point group: c1

    Geometry (in Angstrom), charge = 0, multiplicity = 1:

       Center              X                  Y                   Z               Mass
    ------------   -----------------  -----------------  -----------------  -----------------
         O           -1.990850808905    -0.660063225470     0.000298216113    15.994914619570
         C            0.946275291095    -0.444154025470    -0.000593883887    12.000000000000
         C            0.032956291095     0.773746974530     0.000038116113    12.000000000000
         C            2.422417291095    -0.058640025470     0.000323116113    12.000000000000
         C           -1.433615708905     0.430294974530    -0.000127883887    12.000000000000
         H            0.715453291095    -1.062585025470     0.872559116113     1.007825032230
         H            0.716228291095    -1.061109025470    -0.875014883887     1.007825032230
         H            0.224747291095     1.413928974530     0.873933116113     1.007825032230
         H            0.224851291095     1.415065974530    -0.872968883887     1.007825032230
         H            2.674096291095     0.534441974530     0.885147116113     1.007825032230
         H            3.061275291095    -0.946174025470    -0.000223883887     1.007825032230
         H            2.674791291095     0.536029974530    -0.883233883887     1.007825032230
         H           -2.128229708905     1.296444974530    -0.000637883887     1.007825032230

  Basis Set: AUG-CC-PVTZ
    Blend: AUG-CC-PVTZ
  Basis Set: (AUG-CC-PVTZ AUX)
    Blend: AUG-CC-PVTZ-JKFIT
	 Reference Energy          =    -231.0690889108134627 [Eh]
	 Singles Energy            =      -0.0000000000000000 [Eh]
	 Same-Spin Energy          =      -0.2292307738648521 [Eh]
	 Opposite-Spin Energy      =      -0.7930967467706329 [Eh]
	 Correlation Energy        =      -1.0223275206354852 [Eh]
	 Total Energy              =    -232.0914164314489483 [Eh]

	 ================> DF-SCS-MP2 Energies <==================
	-----------------------------------------------------------
	 SCS Same-Spin Scale       =       0.3333333333333333 [-]
	 SCS Opposite-Spin Scale   =       1.2000000000000000 [-]
	 SCS Same-Spin Energy      =      -0.0764102579549507 [Eh]
	 SCS Opposite-Spin Energy  =      -0.9517160961247595 [Eh]
	 SCS Correlation Energy    =      -1.0281263540797103 [Eh]
	 SCS Total Energy          =    -232.0972152648931797 [Eh]
	-----------------------------------------------------------

  Dipole Moment: [D]
     X:     1.8383      Y:     2.0459      Z:    -0.0006     Total:     2.7505

*** Psi4 exiting successfully. Buy a developer a beer!
