                               Psi4 1.3.2 release

  ==> Input File <==

--------------------------------------------------------------------------
#psi4
#
memory 32 gb

molecule  {
0 1
  O       -1.9983450    -0.7282080     0.0003470
  C        0.8003606    -0.4757791    -0.0006069
  C       -0.0915640     0.7578760     0.0000330
  C        2.2978970    -0.0745110     0.0003180
  C       -1.5581360     0.4144240    -0.0001330
  H        0.5909330    -1.0784560     0.8725540
  H        0.5917080    -1.0769800    -0.8750200
  H        0.1002270     1.3980580     0.8739280
  H        0.1003310     1.3991950    -0.8729740
  H        2.5495760     0.5185710     0.8851420
  H        2.9367550    -0.9620450    -0.0002290
  H        2.5502710     0.5201590    -0.8832390
  H       -2.2527500     1.2805740    -0.0006430
units angstrom
no_reorient  #important for SAPT in psi4, default
symmetry c1  #important for SAPT in psi4, default
}

set PROPERTIES_ORIGIN ["COM"]
properties('MP2/aug-cc-pvtz', properties = ['dipole'])
--------------------------------------------------------------------------

    Molecular point group: c1
  Charge       = 0
  Multiplicity = 1
  Basis Set: AUG-CC-PVTZ
    Blend: AUG-CC-PVTZ
  Basis Set: (AUG-CC-PVTZ AUX)
    Blend: AUG-CC-PVTZ-JKFIT

    Orbital Energies [Eh]
    ---------------------

    Doubly Occupied:

       1A    -20.558049     2A    -11.334939     3A    -11.244757
       4A    -11.226125     5A    -11.220770     6A     -1.382890
       7A     -1.079897     8A     -0.973435     9A     -0.849152
      10A     -0.771576    11A     -0.671149    12A     -0.650316
      13A     -0.630427    14A     -0.568425    15A     -0.566424
      16A     -0.503811    17A     -0.501242    18A     -0.493689
      19A     -0.484658    20A     -0.420969

  @DF-RHF Final Energy:  -231.07066486692167

   => Energetics <=

    Nuclear Repulsion Energy =            171.8573432939136865
    One-Electron Energy =                -653.5906168249550774
    Two-Electron Energy =                 250.6626086641197162
    Total Energy =                       -231.0706648669216747
  Basis Set: (AUG-CC-PVTZ AUX)
    Blend: AUG-CC-PVTZ-RI
    Molecular point group: c1

    Geometry (in Angstrom), charge = 0, multiplicity = 1:

       Center              X                  Y                   Z               Mass
    ------------   -----------------  -----------------  -----------------  -----------------
         O           -1.896238605367    -0.698109999051     0.000341467315    15.994914619570
         C            0.902466994633    -0.445681099051    -0.000612432685    12.000000000000
         C            0.010542394633     0.787974000949     0.000027467315    12.000000000000
         C            2.400003394633    -0.044412999051     0.000312467315    12.000000000000
         C           -1.456029605367     0.444522000949    -0.000138532685    12.000000000000
         H            0.693039394633    -1.048357999051     0.872548467315     1.007825032230
         H            0.693814394633    -1.046881999051    -0.875025532685     1.007825032230
         H            0.202333394633     1.428156000949     0.873922467315     1.007825032230
         H            0.202437394633     1.429293000949    -0.872979532685     1.007825032230
         H            2.651682394633     0.548669000949     0.885136467315     1.007825032230
         H            3.038861394633    -0.931946999051    -0.000234532685     1.007825032230
         H            2.652377394633     0.550257000949    -0.883244532685     1.007825032230
         H           -2.150643605367     1.310672000949    -0.000648532685     1.007825032230

  Basis Set: AUG-CC-PVTZ
    Blend: AUG-CC-PVTZ
  Basis Set: (AUG-CC-PVTZ AUX)
    Blend: AUG-CC-PVTZ-JKFIT
	 Reference Energy          =    -231.0706648669216747 [Eh]
	 Singles Energy            =      -0.0000000000000000 [Eh]
	 Same-Spin Energy          =      -0.2292923809051442 [Eh]
	 Opposite-Spin Energy      =      -0.7930912124003493 [Eh]
	 Correlation Energy        =      -1.0223835933054934 [Eh]
	 Total Energy              =    -232.0930484602271804 [Eh]

	 ================> DF-SCS-MP2 Energies <==================
	-----------------------------------------------------------
	 SCS Same-Spin Scale       =       0.3333333333333333 [-]
	 SCS Opposite-Spin Scale   =       1.2000000000000000 [-]
	 SCS Same-Spin Energy      =      -0.0764307936350481 [Eh]
	 SCS Opposite-Spin Energy  =      -0.9517094548804191 [Eh]
	 SCS Correlation Energy    =      -1.0281402485154671 [Eh]
	 SCS Total Energy          =    -232.0988051154371306 [Eh]
	-----------------------------------------------------------

  Dipole Moment: [D]
     X:     1.5129      Y:     2.1350      Z:    -0.0007     Total:     2.6167

*** Psi4 exiting successfully. Buy a developer a beer!
