                               Psi4 1.3.2 release

  ==> Input File <==

--------------------------------------------------------------------------
#psi4
#
memory 32 gb

molecule  {
0 1
  O       -1.9983450    -0.7282080     0.0003470
  C        0.8217550    -0.4600250    -0.0005990
  C       -0.0915640     0.7578760     0.0000330
  C        2.2978970    -0.0745110     0.0003180
  C       -1.5545972     0.4003297    -0.0220402
  H        0.5909330    -1.0784560     0.8725540
  H        0.5917080    -1.0769800    -0.8750200
  H        0.1002270     1.3980580     0.8739280
  H        0.1003310     1.3991950    -0.8729740
  H        2.5495760     0.5185710     0.8851420
  H        2.9367550    -0.9620450    -0.0002290
  H        2.5502710     0.5201590    -0.8832390
  H       -2.2527500     1.2805740    -0.0006430
units angstrom
no_reorient  #important for SAPT in psi4, default
symmetry c1  #important for SAPT in psi4, default
}

set PROPERTIES_ORIGIN ["COM"]
properties('MP2/aug-cc-pvtz', properties = ['dipole'])
--------------------------------------------------------------------------

    Molecular point group: c1
  Charge       = 0
  Multiplicity = 1
  Basis Set: AUG-CC-PVTZ
    Blend: AUG-CC-PVTZ
  Basis Set: (AUG-CC-PVTZ AUX)
    Blend: AUG-CC-PVTZ-JKFIT

    Orbital Energies [Eh]
    ---------------------

    Doubly Occupied:

       1A    -20.558840     2A    -11.334881     3A    -11.244340
       4A    -11.227000     5A    -11.220177     6A     -1.391008
       7A     -1.081709     8A     -0.975890     9A     -0.846150
      10A     -0.768565    11A     -0.672329    12A     -0.649272
      13A     -0.634229    14A     -0.569946    15A     -0.567938
      16A     -0.512165    17A     -0.504006    18A     -0.491325
      19A     -0.479868    20A     -0.419493

  @DF-RHF Final Energy:  -231.07181853890376

   => Energetics <=

    Nuclear Repulsion Energy =            172.1201769014085698
    One-Electron Energy =                -654.0857349778860907
    Two-Electron Energy =                 250.8937395375737651
    Total Energy =                       -231.0718185389037558
  Basis Set: (AUG-CC-PVTZ AUX)
    Blend: AUG-CC-PVTZ-RI
    Molecular point group: c1

    Geometry (in Angstrom), charge = 0, multiplicity = 1:

       Center              X                  Y                   Z               Mass
    ------------   -----------------  -----------------  -----------------  -----------------
         O           -1.900390821836    -0.698386411581     0.003988437384    15.994914619570
         C            0.919709178164    -0.430203411581     0.003042437384    12.000000000000
         C            0.006390178164     0.787697588419     0.003674437384    12.000000000000
         C            2.395851178164    -0.044689411581     0.003959437384    12.000000000000
         C           -1.456643021836     0.430151288419    -0.018398762616    12.000000000000
         H            0.688887178164    -1.048634411581     0.876195437384     1.007825032230
         H            0.689662178164    -1.047158411581    -0.871378562616     1.007825032230
         H            0.198181178164     1.427879588419     0.877569437384     1.007825032230
         H            0.198285178164     1.429016588419    -0.869332562616     1.007825032230
         H            2.647530178164     0.548392588419     0.888783437384     1.007825032230
         H            3.034709178164    -0.932223411581     0.003412437384     1.007825032230
         H            2.648225178164     0.549980588419    -0.879597562616     1.007825032230
         H           -2.154795821836     1.310395588419     0.002998437384     1.007825032230

  Basis Set: AUG-CC-PVTZ
    Blend: AUG-CC-PVTZ
  Basis Set: (AUG-CC-PVTZ AUX)
    Blend: AUG-CC-PVTZ-JKFIT
	 Reference Energy          =    -231.0718185389037558 [Eh]
	 Singles Energy            =      -0.0000000000000000 [Eh]
	 Same-Spin Energy          =      -0.2291603073393608 [Eh]
	 Opposite-Spin Energy      =      -0.7925447109852914 [Eh]
	 Correlation Energy        =      -1.0217050183246523 [Eh]
	 Total Energy              =    -232.0935235572283943 [Eh]

	 ================> DF-SCS-MP2 Energies <==================
	-----------------------------------------------------------
	 SCS Same-Spin Scale       =       0.3333333333333333 [-]
	 SCS Opposite-Spin Scale   =       1.2000000000000000 [-]
	 SCS Same-Spin Energy      =      -0.0763867691131203 [Eh]
	 SCS Opposite-Spin Energy  =      -0.9510536531823497 [Eh]
	 SCS Correlation Energy    =      -1.0274404222954701 [Eh]
	 SCS Total Energy          =    -232.0992589611992116 [Eh]
	-----------------------------------------------------------

  Dipole Moment: [D]
     X:     1.5316      Y:     2.0790      Z:    -0.0108     Total:     2.5823

*** Psi4 exiting successfully. Buy a developer a beer!
