                               Psi4 1.3.2 release

  ==> Input File <==

--------------------------------------------------------------------------
#psi4
#
memory 32 gb

molecule  {
0 1
  O       -1.9983450    -0.7282080     0.0003470
  C        0.8217550    -0.4600250    -0.0005990
  C       -0.0857933     0.7322285     0.0000450
  C        2.2978970    -0.0745110     0.0003180
  C       -1.5581360     0.4144240    -0.0001330
  H        0.5909330    -1.0784560     0.8725540
  H        0.5917080    -1.0769800    -0.8750200
  H        0.1002270     1.3980580     0.8739280
  H        0.1003310     1.3991950    -0.8729740
  H        2.5495760     0.5185710     0.8851420
  H        2.9367550    -0.9620450    -0.0002290
  H        2.5502710     0.5201590    -0.8832390
  H       -2.2527500     1.2805740    -0.0006430
units angstrom
no_reorient  #important for SAPT in psi4, default
symmetry c1  #important for SAPT in psi4, default
}

set PROPERTIES_ORIGIN ["COM"]
properties('MP2/aug-cc-pvtz', properties = ['dipole'])
--------------------------------------------------------------------------

    Molecular point group: c1
  Charge       = 0
  Multiplicity = 1
  Basis Set: AUG-CC-PVTZ
    Blend: AUG-CC-PVTZ
  Basis Set: (AUG-CC-PVTZ AUX)
    Blend: AUG-CC-PVTZ-JKFIT

    Orbital Energies [Eh]
    ---------------------

    Doubly Occupied:

       1A    -20.557452     2A    -11.335416     3A    -11.246257
       4A    -11.226040     5A    -11.220698     6A     -1.382893
       7A     -1.084680     8A     -0.975429     9A     -0.849941
      10A     -0.768871    11A     -0.672661    12A     -0.648339
      13A     -0.631773    14A     -0.569288    15A     -0.564645
      16A     -0.514957    17A     -0.499683    18A     -0.492702
      19A     -0.476100    20A     -0.422300

  @DF-RHF Final Energy:  -231.07017597134632

   => Energetics <=

    Nuclear Repulsion Energy =            172.1721426633723695
    One-Electron Energy =                -654.2043917153644088
    Two-Electron Energy =                 250.9620730806457232
    Total Energy =                       -231.0701759713463161
  Basis Set: (AUG-CC-PVTZ AUX)
    Blend: AUG-CC-PVTZ-RI
    Molecular point group: c1

    Geometry (in Angstrom), charge = 0, multiplicity = 1:

       Center              X                  Y                   Z               Mass
    ------------   -----------------  -----------------  -----------------  -----------------
         O           -1.900762508259    -0.696462415170     0.000338153296    15.994914619570
         C            0.919337491741    -0.428279415170    -0.000607846704    12.000000000000
         C            0.011789191741     0.763974084830     0.000036153296    12.000000000000
         C            2.395479491741    -0.042765415170     0.000309153296    12.000000000000
         C           -1.460553508259     0.446169584830    -0.000141846704    12.000000000000
         H            0.688515491741    -1.046710415170     0.872545153296     1.007825032230
         H            0.689290491741    -1.045234415170    -0.875028846704     1.007825032230
         H            0.197809491741     1.429803584830     0.873919153296     1.007825032230
         H            0.197913491741     1.430940584830    -0.872982846704     1.007825032230
         H            2.647158491741     0.550316584830     0.885133153296     1.007825032230
         H            3.034337491741    -0.930299415170    -0.000237846704     1.007825032230
         H            2.647853491741     0.551904584830    -0.883247846704     1.007825032230
         H           -2.155167508259     1.312319584830    -0.000651846704     1.007825032230

  Basis Set: AUG-CC-PVTZ
    Blend: AUG-CC-PVTZ
  Basis Set: (AUG-CC-PVTZ AUX)
    Blend: AUG-CC-PVTZ-JKFIT
	 Reference Energy          =    -231.0701759713463161 [Eh]
	 Singles Energy            =      -0.0000000000000000 [Eh]
	 Same-Spin Energy          =      -0.2296369170982772 [Eh]
	 Opposite-Spin Energy      =      -0.7933669723383654 [Eh]
	 Correlation Energy        =      -1.0230038894366427 [Eh]
	 Total Energy              =    -232.0931798607829535 [Eh]

	 ================> DF-SCS-MP2 Energies <==================
	-----------------------------------------------------------
	 SCS Same-Spin Scale       =       0.3333333333333333 [-]
	 SCS Opposite-Spin Scale   =       1.2000000000000000 [-]
	 SCS Same-Spin Energy      =      -0.0765456390327591 [Eh]
	 SCS Opposite-Spin Energy  =      -0.9520403668060384 [Eh]
	 SCS Correlation Energy    =      -1.0285860058387974 [Eh]
	 SCS Total Energy          =    -232.0987619771851200 [Eh]
	-----------------------------------------------------------

  Dipole Moment: [D]
     X:     1.5313      Y:     2.1359      Z:    -0.0007     Total:     2.6281

*** Psi4 exiting successfully. Buy a developer a beer!
