                               Psi4 1.4a3.dev225

  ==> Input File <==

--------------------------------------------------------------------------
#psi4
#
memory 32 gb

molecule  {
0 1
  O       -1.9982100    -0.7282460     0.0000030
  C        0.8216780    -0.4600500    -0.0000060
  C       -0.0915260     0.7579800    -0.0000030
  C        2.2978280    -0.0745400     0.0000050
  C       -1.5401476     0.4610830     0.0000009
  H        0.5911990    -1.0776950     0.8737850
  H        0.5912090    -1.0776840    -0.8738080
  H        0.1003680     1.3986970     0.8734520
  H        0.1003630     1.3986980    -0.8734580
  H        2.5498060     0.5193220     0.8842150
  H        2.9366580    -0.9620860    -0.0000120
  H        2.5498110     0.5193580    -0.8841810
  H       -2.2529000     1.2804800     0.0000040
units angstrom
no_reorient  #important for SAPT in psi4, default
symmetry c1  #important for SAPT in psi4, default
}

set PROPERTIES_ORIGIN ["COM"]
properties('MP2/aug-cc-pvtz', properties = ['dipole'])
--------------------------------------------------------------------------

    Molecular point group: c1
  Charge       = 0
  Multiplicity = 1
  Basis Set: AUG-CC-PVTZ
    Blend: AUG-CC-PVTZ
  Basis Set: (AUG-CC-PVTZ AUX)
    Blend: AUG-CC-PVTZ-JKFIT

    Orbital Energies [Eh]
    ---------------------

    Doubly Occupied:

       1A    -20.555486     2A    -11.339110     3A    -11.247105
       4A    -11.228622     5A    -11.221313     6A     -1.350853
       7A     -1.085586     8A     -0.983431     9A     -0.852758
      10A     -0.775105    11A     -0.670084    12A     -0.651033
      13A     -0.621151    14A     -0.567179    15A     -0.565574
      16A     -0.511519    17A     -0.491224    18A     -0.488019
      19A     -0.473833    20A     -0.429548

  @DF-RHF Final Energy:  -231.06163163917586

   => Energetics <=

    Nuclear Repulsion Energy =            171.4707137154015015
    One-Electron Energy =                -652.8476264044545587
    Two-Electron Energy =                 250.3152810498771714
    Total Energy =                       -231.0616316391758573
  Basis Set: (AUG-CC-PVTZ AUX)
    Blend: AUG-CC-PVTZ-RI
    Molecular point group: c1

    Geometry (in Angstrom), charge = 0, multiplicity = 1:

       Center              X                  Y                   Z               Mass
    ------------   -----------------  -----------------  -----------------  -----------------
         O           -1.902666636471    -0.708541967037     0.000002892291    15.994914619570
         C            0.917221363529    -0.440345967037    -0.000006107709    12.000000000000
         C            0.004017363529     0.777684032963    -0.000003107709    12.000000000000
         C            2.393371363529    -0.054835967037     0.000004892291    12.000000000000
         C           -1.444604236471     0.480787032963     0.000000792291    12.000000000000
         H            0.686742363529    -1.057990967037     0.873784892291     1.007825032230
         H            0.686752363529    -1.057979967037    -0.873808107709     1.007825032230
         H            0.195911363529     1.418401032963     0.873451892291     1.007825032230
         H            0.195906363529     1.418402032963    -0.873458107709     1.007825032230
         H            2.645349363529     0.539026032963     0.884214892291     1.007825032230
         H            3.032201363529    -0.942381967037    -0.000012107709     1.007825032230
         H            2.645354363529     0.539062032963    -0.884181107709     1.007825032230
         H           -2.157356636471     1.300184032963     0.000003892291     1.007825032230

  Basis Set: AUG-CC-PVTZ
    Blend: AUG-CC-PVTZ
  Basis Set: (AUG-CC-PVTZ AUX)
    Blend: AUG-CC-PVTZ-JKFIT
	 Reference Energy          =    -231.0616316391758573 [Eh]
	 Singles Energy            =      -0.0000000000000000 [Eh]
	 Same-Spin Energy          =      -0.2309113441692467 [Eh]
	 Opposite-Spin Energy      =      -0.7964845083575873 [Eh]
	 Correlation Energy        =      -1.0273958525268341 [Eh]
	 Total Energy              =    -232.0890274917026943 [Eh]

	 ================> DF-SCS-MP2 Energies <==================
	-----------------------------------------------------------
	 SCS Same-Spin Scale       =       0.3333333333333333 [-]
	 SCS Opposite-Spin Scale   =       1.2000000000000000 [-]
	 SCS Same-Spin Energy      =      -0.0769704480564156 [Eh]
	 SCS Opposite-Spin Energy  =      -0.9557814100291048 [Eh]
	 SCS Correlation Energy    =      -1.0327518580855204 [Eh]
	 SCS Total Energy          =    -232.0943834972613899 [Eh]
	-----------------------------------------------------------

  Dipole Moment: [D]
     X:     1.6341      Y:     2.3207      Z:    -0.0000     Total:     2.8383

*** Psi4 exiting successfully. Buy a developer a beer!
