                               Psi4 1.3.2 release

  ==> Input File <==

--------------------------------------------------------------------------
#psi4
#
memory 32 gb

molecule  {
0 1
  O       -1.9983450    -0.7282080     0.0003470
  C        0.7786945    -0.4911575    -0.0006147
  C       -0.0915640     0.7578760     0.0000330
  C        2.2978970    -0.0745110     0.0003180
  C       -1.5581360     0.4144240    -0.0001330
  H        0.5909330    -1.0784560     0.8725540
  H        0.5917080    -1.0769800    -0.8750200
  H        0.1002270     1.3980580     0.8739280
  H        0.1003310     1.3991950    -0.8729740
  H        2.5495760     0.5185710     0.8851420
  H        2.9367550    -0.9620450    -0.0002290
  H        2.5502710     0.5201590    -0.8832390
  H       -2.2527500     1.2805740    -0.0006430
units angstrom
no_reorient  #important for SAPT in psi4, default
symmetry c1  #important for SAPT in psi4, default
}

set PROPERTIES_ORIGIN ["COM"]
properties('MP2/aug-cc-pvtz', properties = ['dipole'])
--------------------------------------------------------------------------

    Molecular point group: c1
  Charge       = 0
  Multiplicity = 1
  Basis Set: AUG-CC-PVTZ
    Blend: AUG-CC-PVTZ
  Basis Set: (AUG-CC-PVTZ AUX)
    Blend: AUG-CC-PVTZ-JKFIT

    Orbital Energies [Eh]
    ---------------------

    Doubly Occupied:

       1A    -20.557888     2A    -11.334432     3A    -11.244862
       4A    -11.225370     5A    -11.221237     6A     -1.382834
       7A     -1.078504     8A     -0.970540     9A     -0.850690
      10A     -0.772402    11A     -0.670797    12A     -0.651859
      13A     -0.629572    14A     -0.567600    15A     -0.565889
      16A     -0.503075    17A     -0.499921    18A     -0.492033
      19A     -0.488823    20A     -0.420017

  @DF-RHF Final Energy:  -231.06883852197643

   => Energetics <=

    Nuclear Repulsion Energy =            171.8014350825388306
    One-Electron Energy =                -653.4838529915367644
    Two-Electron Energy =                 250.6135793870215025
    Total Energy =                       -231.0688385219764314
  Basis Set: (AUG-CC-PVTZ AUX)
    Blend: AUG-CC-PVTZ-RI
    Molecular point group: c1

    Geometry (in Angstrom), charge = 0, multiplicity = 1:

       Center              X                  Y                   Z               Mass
    ------------   -----------------  -----------------  -----------------  -----------------
         O           -1.892630470942    -0.695548978173     0.000342766277    15.994914619570
         C            0.884409029058    -0.458498478173    -0.000618933723    12.000000000000
         C            0.014150529058     0.790535021827     0.000028766277    12.000000000000
         C            2.403611529058    -0.041851978173     0.000313766277    12.000000000000
         C           -1.452421470942     0.447083021827    -0.000137233723    12.000000000000
         H            0.696647529058    -1.045796978173     0.872549766277     1.007825032230
         H            0.697422529058    -1.044320978173    -0.875024233723     1.007825032230
         H            0.205941529058     1.430717021827     0.873923766277     1.007825032230
         H            0.206045529058     1.431854021827    -0.872978233723     1.007825032230
         H            2.655290529058     0.551230021827     0.885137766277     1.007825032230
         H            3.042469529058    -0.929385978173    -0.000233233723     1.007825032230
         H            2.655985529058     0.552818021827    -0.883243233723     1.007825032230
         H           -2.147035470942     1.313233021827    -0.000647233723     1.007825032230

  Basis Set: AUG-CC-PVTZ
    Blend: AUG-CC-PVTZ
  Basis Set: (AUG-CC-PVTZ AUX)
    Blend: AUG-CC-PVTZ-JKFIT
	 Reference Energy          =    -231.0688385219764314 [Eh]
	 Singles Energy            =      -0.0000000000000000 [Eh]
	 Same-Spin Energy          =      -0.2292212457679554 [Eh]
	 Opposite-Spin Energy      =      -0.7930881073020626 [Eh]
	 Correlation Energy        =      -1.0223093530700180 [Eh]
	 Total Energy              =    -232.0911478750464596 [Eh]

	 ================> DF-SCS-MP2 Energies <==================
	-----------------------------------------------------------
	 SCS Same-Spin Scale       =       0.3333333333333333 [-]
	 SCS Opposite-Spin Scale   =       1.2000000000000000 [-]
	 SCS Same-Spin Energy      =      -0.0764070819226518 [Eh]
	 SCS Opposite-Spin Energy  =      -0.9517057287624751 [Eh]
	 SCS Correlation Energy    =      -1.0281128106851269 [Eh]
	 SCS Total Energy          =    -232.0969513326615470 [Eh]
	-----------------------------------------------------------

  Dipole Moment: [D]
     X:     1.5029      Y:     2.1331      Z:    -0.0007     Total:     2.6094

*** Psi4 exiting successfully. Buy a developer a beer!
