                               Psi4 1.3.2 release

  ==> Input File <==

--------------------------------------------------------------------------
#psi4
#
memory 32 gb

molecule  {
0 1
  O       -1.9983450    -0.7282080     0.0003470
  C        0.8217550    -0.4600250    -0.0005990
  C       -0.0915640     0.7578760     0.0000330
  C        2.2978970    -0.0745110     0.0003180
  C       -1.6555017     0.3916222    -0.0001440
  H        0.5909330    -1.0784560     0.8725540
  H        0.5917080    -1.0769800    -0.8750200
  H        0.1002270     1.3980580     0.8739280
  H        0.1003310     1.3991950    -0.8729740
  H        2.5495760     0.5185710     0.8851420
  H        2.9367550    -0.9620450    -0.0002290
  H        2.5502710     0.5201590    -0.8832390
  H       -2.2527500     1.2805740    -0.0006430
units angstrom
no_reorient  #important for SAPT in psi4, default
symmetry c1  #important for SAPT in psi4, default
}

set PROPERTIES_ORIGIN ["COM"]
properties('MP2/aug-cc-pvtz', properties = ['dipole'])
--------------------------------------------------------------------------

    Molecular point group: c1
  Charge       = 0
  Multiplicity = 1
  Basis Set: AUG-CC-PVTZ
    Blend: AUG-CC-PVTZ
  Basis Set: (AUG-CC-PVTZ AUX)
    Blend: AUG-CC-PVTZ-JKFIT

    Orbital Energies [Eh]
    ---------------------

    Doubly Occupied:

       1A    -20.563514     2A    -11.331414     3A    -11.239131
       4A    -11.222846     5A    -11.217068     6A     -1.421980
       7A     -1.068464     8A     -0.958435     9A     -0.846107
      10A     -0.776389    11A     -0.680504    12A     -0.641128
      13A     -0.639235    14A     -0.570033    15A     -0.566603
      16A     -0.518952    17A     -0.512291    18A     -0.486003
      19A     -0.475607    20A     -0.406105

  @DF-RHF Final Energy:  -231.06636656668800

   => Energetics <=

    Nuclear Repulsion Energy =            171.6077630345264708
    One-Electron Energy =                -653.0646408914157064
    Two-Electron Energy =                 250.3905112902012604
    Total Energy =                       -231.0663665666880036
  Basis Set: (AUG-CC-PVTZ AUX)
    Blend: AUG-CC-PVTZ-RI
    Molecular point group: c1

    Geometry (in Angstrom), charge = 0, multiplicity = 1:

       Center              X                  Y                   Z               Mass
    ------------   -----------------  -----------------  -----------------  -----------------
         O           -1.883586828497    -0.696936319940     0.000341983569    15.994914619570
         C            0.936513171503    -0.428753319940    -0.000604016431    12.000000000000
         C            0.023194171503     0.789147680060     0.000027983569    12.000000000000
         C            2.412655171503    -0.043239319940     0.000312983569    12.000000000000
         C           -1.540743528497     0.422893880060    -0.000149016431    12.000000000000
         H            0.705691171503    -1.047184319940     0.872548983569     1.007825032230
         H            0.706466171503    -1.045708319940    -0.875025016431     1.007825032230
         H            0.214985171503     1.429329680060     0.873922983569     1.007825032230
         H            0.215089171503     1.430466680060    -0.872979016431     1.007825032230
         H            2.664334171503     0.549842680060     0.885136983569     1.007825032230
         H            3.051513171503    -0.930773319940    -0.000234016431     1.007825032230
         H            2.665029171503     0.551430680060    -0.883244016431     1.007825032230
         H           -2.137991828497     1.311845680060    -0.000648016431     1.007825032230

  Basis Set: AUG-CC-PVTZ
    Blend: AUG-CC-PVTZ
  Basis Set: (AUG-CC-PVTZ AUX)
    Blend: AUG-CC-PVTZ-JKFIT
	 Reference Energy          =    -231.0663665666880036 [Eh]
	 Singles Energy            =      -0.0000000000000000 [Eh]
	 Same-Spin Energy          =      -0.2277573836224355 [Eh]
	 Opposite-Spin Energy      =      -0.7902487580403226 [Eh]
	 Correlation Energy        =      -1.0180061416627582 [Eh]
	 Total Energy              =    -232.0843727083507702 [Eh]

	 ================> DF-SCS-MP2 Energies <==================
	-----------------------------------------------------------
	 SCS Same-Spin Scale       =       0.3333333333333333 [-]
	 SCS Opposite-Spin Scale   =       1.2000000000000000 [-]
	 SCS Same-Spin Energy      =      -0.0759191278741452 [Eh]
	 SCS Opposite-Spin Energy  =      -0.9482985096483870 [Eh]
	 SCS Correlation Energy    =      -1.0242176375225323 [Eh]
	 SCS Total Energy          =    -232.0905842042105292 [Eh]
	-----------------------------------------------------------

  Dipole Moment: [D]
     X:     0.9960      Y:     1.9691      Z:    -0.0008     Total:     2.2066

*** Psi4 exiting successfully. Buy a developer a beer!
