                               Psi4 1.3.2 release

  ==> Input File <==

--------------------------------------------------------------------------
#psi4
#
memory 32 gb

molecule  {
0 1
  O       -0.3732950    -1.0875170     0.0000230
  N       -0.3944950     1.1585740    -0.0000440
  C        0.9282580    -0.6566220     0.0000340
  C        0.9194130     0.7048960    -0.0000320
  C       -1.1010560     0.0631240     0.0000150
  H        1.6883177    -1.4215890    -0.0499360
  H        1.7555780     1.3888440    -0.0000640
  H       -2.1757640    -0.0455290     0.0000210
units angstrom
no_reorient  #important for SAPT in psi4, default
symmetry c1  #important for SAPT in psi4, default
}

set PROPERTIES_ORIGIN ["COM"]
properties('MP2/aug-cc-pvtz', properties = ['dipole'])
--------------------------------------------------------------------------

    Molecular point group: c1
  Charge       = 0
  Multiplicity = 1
  Basis Set: AUG-CC-PVTZ
    Blend: AUG-CC-PVTZ
  Basis Set: (AUG-CC-PVTZ AUX)
    Blend: AUG-CC-PVTZ-JKFIT

    Orbital Energies [Eh]
    ---------------------

    Doubly Occupied:

       1A    -20.647681     2A    -15.575547     3A    -11.342781
       4A    -11.301376     5A    -11.269409     6A     -1.488450
       7A     -1.236187     8A     -1.034784     9A     -0.843447
      10A     -0.824121    11A     -0.753769    12A     -0.660783
      13A     -0.629906    14A     -0.597535    15A     -0.582835
      16A     -0.469279    17A     -0.458379    18A     -0.347400

  @DF-RHF Final Energy:  -244.71976778563973

   => Energetics <=

    Nuclear Repulsion Energy =            162.6587872743819787
    One-Electron Energy =                -654.6297724374810514
    Two-Electron Energy =                 247.2512173774593123
    Total Energy =                       -244.7197677856397320
  Basis Set: (AUG-CC-PVTZ AUX)
    Blend: AUG-CC-PVTZ-RI
    Molecular point group: c1

    Geometry (in Angstrom), charge = 0, multiplicity = 1:

       Center              X                  Y                   Z               Mass
    ------------   -----------------  -----------------  -----------------  -----------------
         O           -0.355075602829    -1.088773788802     0.000753415392    15.994914619570
         N           -0.376275602829     1.157317211198     0.000686415392    14.003074004430
         C            0.946477397171    -0.657878788802     0.000764415392    12.000000000000
         C            0.937632397171     0.703639211198     0.000698415392    12.000000000000
         C           -1.082836602829     0.061867211198     0.000745415392    12.000000000000
         H            1.706537097171    -1.422845788802    -0.049205584608     1.007825032230
         H            1.773797397171     1.387587211198     0.000666415392     1.007825032230
         H           -2.157544602829    -0.046785788802     0.000751415392     1.007825032230

  Basis Set: AUG-CC-PVTZ
    Blend: AUG-CC-PVTZ
  Basis Set: (AUG-CC-PVTZ AUX)
    Blend: AUG-CC-PVTZ-JKFIT
	 Reference Energy          =    -244.7197677856397320 [Eh]
	 Singles Energy            =      -0.0000000000000000 [Eh]
	 Same-Spin Energy          =      -0.2506085212312201 [Eh]
	 Opposite-Spin Energy      =      -0.7543362843768096 [Eh]
	 Correlation Energy        =      -1.0049448056080297 [Eh]
	 Total Energy              =    -245.7247125912477657 [Eh]

	 ================> DF-SCS-MP2 Energies <==================
	-----------------------------------------------------------
	 SCS Same-Spin Scale       =       0.3333333333333333 [-]
	 SCS Opposite-Spin Scale   =       1.2000000000000000 [-]
	 SCS Same-Spin Energy      =      -0.0835361737437400 [Eh]
	 SCS Opposite-Spin Energy  =      -0.9052035412521714 [Eh]
	 SCS Correlation Energy    =      -0.9887397149959114 [Eh]
	 SCS Total Energy          =    -245.7085075006356476 [Eh]
	-----------------------------------------------------------

  Dipole Moment: [D]
     X:     0.7835      Y:    -1.4181      Z:    -0.0453     Total:     1.6208

*** Psi4 exiting successfully. Buy a developer a beer!
