                               Psi4 1.3.2 release

  ==> Input File <==

--------------------------------------------------------------------------
#psi4
#
memory 32 gb

molecule  {
0 1
  O       -0.3732950    -1.0875170     0.0000230
  N       -0.3944950     1.1585740    -0.0000440
  C        0.9282580    -0.6566220     0.0000340
  C        0.9194130     0.7048960    -0.0000320
  C       -1.1010560     0.0631240     0.0000150
  H        1.6883183    -1.4215910    -0.0999360
  H        1.7555780     1.3888440    -0.0000640
  H       -2.1757640    -0.0455290     0.0000210
units angstrom
no_reorient  #important for SAPT in psi4, default
symmetry c1  #important for SAPT in psi4, default
}

set PROPERTIES_ORIGIN ["COM"]
properties('MP2/aug-cc-pvtz', properties = ['dipole'])
--------------------------------------------------------------------------

    Molecular point group: c1
  Charge       = 0
  Multiplicity = 1
  Basis Set: AUG-CC-PVTZ
    Blend: AUG-CC-PVTZ
  Basis Set: (AUG-CC-PVTZ AUX)
    Blend: AUG-CC-PVTZ-JKFIT

    Orbital Energies [Eh]
    ---------------------

    Doubly Occupied:

       1A    -20.647661     2A    -15.575605     3A    -11.342884
       4A    -11.301583     5A    -11.269533     6A     -1.488459
       7A     -1.236255     8A     -1.034698     9A     -0.843392
      10A     -0.823913    11A     -0.753504    12A     -0.661055
      13A     -0.628938    14A     -0.597611    15A     -0.582692
      16A     -0.469310    17A     -0.458422    18A     -0.347416

  @DF-RHF Final Energy:  -244.71937745911788

   => Energetics <=

    Nuclear Repulsion Energy =            162.6457243990739414
    One-Electron Energy =                -654.6043450894870830
    Two-Electron Energy =                 247.2392432312952337
    Total Energy =                       -244.7193774591178794
  Basis Set: (AUG-CC-PVTZ AUX)
    Blend: AUG-CC-PVTZ-RI
    Molecular point group: c1

    Geometry (in Angstrom), charge = 0, multiplicity = 1:

       Center              X                  Y                   Z               Mass
    ------------   -----------------  -----------------  -----------------  -----------------
         O           -0.355075611590    -1.088773759599     0.001483496282    15.994914619570
         N           -0.376275611590     1.157317240401     0.001416496282    14.003074004430
         C            0.946477388410    -0.657878759599     0.001494496282    12.000000000000
         C            0.937632388410     0.703639240401     0.001428496282    12.000000000000
         C           -1.082836611590     0.061867240401     0.001475496282    12.000000000000
         H            1.706537688410    -1.422847759599    -0.098475503718     1.007825032230
         H            1.773797388410     1.387587240401     0.001396496282     1.007825032230
         H           -2.157544611590    -0.046785759599     0.001481496282     1.007825032230

  Basis Set: AUG-CC-PVTZ
    Blend: AUG-CC-PVTZ
  Basis Set: (AUG-CC-PVTZ AUX)
    Blend: AUG-CC-PVTZ-JKFIT
	 Reference Energy          =    -244.7193774591178794 [Eh]
	 Singles Energy            =      -0.0000000000000000 [Eh]
	 Same-Spin Energy          =      -0.2506323824269246 [Eh]
	 Opposite-Spin Energy      =      -0.7543893076777677 [Eh]
	 Correlation Energy        =      -1.0050216901046922 [Eh]
	 Total Energy              =    -245.7243991492225632 [Eh]

	 ================> DF-SCS-MP2 Energies <==================
	-----------------------------------------------------------
	 SCS Same-Spin Scale       =       0.3333333333333333 [-]
	 SCS Opposite-Spin Scale   =       1.2000000000000000 [-]
	 SCS Same-Spin Energy      =      -0.0835441274756415 [Eh]
	 SCS Opposite-Spin Energy  =      -0.9052671692133212 [Eh]
	 SCS Correlation Energy    =      -0.9888112966889627 [Eh]
	 SCS Total Energy          =    -245.7081887558068445 [Eh]
	-----------------------------------------------------------

  Dipole Moment: [D]
     X:     0.7795      Y:    -1.4132      Z:    -0.0905     Total:     1.6164

*** Psi4 exiting successfully. Buy a developer a beer!
