                               Psi4 1.3.2 release

  ==> Input File <==

--------------------------------------------------------------------------
#psi4
#
memory 32 gb

molecule  {
0 1
  O       -0.3732950    -1.0875170     0.0000230
  N       -0.3944950     1.1585740    -0.0000440
  C        0.9282580    -0.6566220     0.0000340
  C        0.9194130     0.7048960    -0.0000320
  C       -1.1010560     0.0631240     0.0000150
  H        1.6883203    -1.4215971    -0.2499360
  H        1.7555780     1.3888440    -0.0000640
  H       -2.1757640    -0.0455290     0.0000210
units angstrom
no_reorient  #important for SAPT in psi4, default
symmetry c1  #important for SAPT in psi4, default
}

set PROPERTIES_ORIGIN ["COM"]
properties('MP2/aug-cc-pvtz', properties = ['dipole'])
--------------------------------------------------------------------------

    Molecular point group: c1
  Charge       = 0
  Multiplicity = 1
  Basis Set: AUG-CC-PVTZ
    Blend: AUG-CC-PVTZ
  Basis Set: (AUG-CC-PVTZ AUX)
    Blend: AUG-CC-PVTZ-JKFIT

    Orbital Energies [Eh]
    ---------------------

    Doubly Occupied:

       1A    -20.647539     2A    -15.576008     3A    -11.343593
       4A    -11.303010     5A    -11.270381     6A     -1.488530
       7A     -1.236731     8A     -1.034145     9A     -0.843109
      10A     -0.822563    11A     -0.751743    12A     -0.662527
      13A     -0.622792    14A     -0.598134    15A     -0.581510
      16A     -0.469518    17A     -0.458721    18A     -0.347535

  @DF-RHF Final Energy:  -244.71632381953543

   => Energetics <=

    Nuclear Repulsion Energy =            162.5569430449042159
    One-Electron Energy =                -654.4303578637283181
    Two-Electron Energy =                 247.1570909992886982
    Total Energy =                       -244.7163238195354324
  Basis Set: (AUG-CC-PVTZ AUX)
    Blend: AUG-CC-PVTZ-RI
    Molecular point group: c1

    Geometry (in Angstrom), charge = 0, multiplicity = 1:

       Center              X                  Y                   Z               Mass
    ------------   -----------------  -----------------  -----------------  -----------------
         O           -0.355075640793    -1.088773670529     0.003673738949    15.994914619570
         N           -0.376275640793     1.157317329471     0.003606738949    14.003074004430
         C            0.946477359207    -0.657878670529     0.003684738949    12.000000000000
         C            0.937632359207     0.703639329471     0.003618738949    12.000000000000
         C           -1.082836640793     0.061867329471     0.003665738949    12.000000000000
         H            1.706539659207    -1.422853770529    -0.246285261051     1.007825032230
         H            1.773797359207     1.387587329471     0.003586738949     1.007825032230
         H           -2.157544640793    -0.046785670529     0.003671738949     1.007825032230

  Basis Set: AUG-CC-PVTZ
    Blend: AUG-CC-PVTZ
  Basis Set: (AUG-CC-PVTZ AUX)
    Blend: AUG-CC-PVTZ-JKFIT
	 Reference Energy          =    -244.7163238195354324 [Eh]
	 Singles Energy            =      -0.0000000000000000 [Eh]
	 Same-Spin Energy          =      -0.2507956013545001 [Eh]
	 Opposite-Spin Energy      =      -0.7547820029764870 [Eh]
	 Correlation Energy        =      -1.0055776043309872 [Eh]
	 Total Energy              =    -245.7219014238664272 [Eh]

	 ================> DF-SCS-MP2 Energies <==================
	-----------------------------------------------------------
	 SCS Same-Spin Scale       =       0.3333333333333333 [-]
	 SCS Opposite-Spin Scale   =       1.2000000000000000 [-]
	 SCS Same-Spin Energy      =      -0.0835985337848334 [Eh]
	 SCS Opposite-Spin Energy  =      -0.9057384035717844 [Eh]
	 SCS Correlation Energy    =      -0.9893369373566178 [Eh]
	 SCS Total Energy          =    -245.7056607568920583 [Eh]
	-----------------------------------------------------------

  Dipole Moment: [D]
     X:     0.7521      Y:    -1.3797      Z:    -0.2236     Total:     1.5872

*** Psi4 exiting successfully. Buy a developer a beer!
