                               Psi4 1.3.2 release

  ==> Input File <==

--------------------------------------------------------------------------
#psi4
#
memory 32 gb

molecule  {
0 1
  O       -0.3732950    -1.0875170     0.0000230
  N       -0.3944950     1.1585740    -0.0000440
  C        0.9282580    -0.6566220     0.0000340
  C        0.9194130     0.7048960    -0.0000320
  C       -1.1010560     0.0631240     0.0000150
  H        1.6883170    -1.4215870     0.0000640
  H        1.7555784     1.3888486     0.0999360
  H       -2.1757640    -0.0455290     0.0000210
units angstrom
no_reorient  #important for SAPT in psi4, default
symmetry c1  #important for SAPT in psi4, default
}

set PROPERTIES_ORIGIN ["COM"]
properties('MP2/aug-cc-pvtz', properties = ['dipole'])
--------------------------------------------------------------------------

    Molecular point group: c1
  Charge       = 0
  Multiplicity = 1
  Basis Set: AUG-CC-PVTZ
    Blend: AUG-CC-PVTZ
  Basis Set: (AUG-CC-PVTZ AUX)
    Blend: AUG-CC-PVTZ-JKFIT

    Orbital Energies [Eh]
    ---------------------

    Doubly Occupied:

       1A    -20.647775     2A    -15.575545     3A    -11.342787
       4A    -11.301478     5A    -11.269731     6A     -1.488538
       7A     -1.236186     8A     -1.034786     9A     -0.843177
      10A     -0.824143    11A     -0.753538    12A     -0.660852
      13A     -0.630155    14A     -0.596874    15A     -0.582563
      16A     -0.469361    17A     -0.458189    18A     -0.347410

  @DF-RHF Final Energy:  -244.71929875093826

   => Energetics <=

    Nuclear Repulsion Energy =            162.6460760707343809
    One-Electron Energy =                -654.6045715952484443
    Two-Electron Energy =                 247.2391967735758271
    Total Energy =                       -244.7192987509382647
  Basis Set: (AUG-CC-PVTZ AUX)
    Blend: AUG-CC-PVTZ-RI
    Molecular point group: c1

    Geometry (in Angstrom), charge = 0, multiplicity = 1:

       Center              X                  Y                   Z               Mass
    ------------   -----------------  -----------------  -----------------  -----------------
         O           -0.355075598448    -1.088773885173    -0.001436827275    15.994914619570
         N           -0.376275598448     1.157317114827    -0.001503827275    14.003074004430
         C            0.946477401552    -0.657878885173    -0.001425827275    12.000000000000
         C            0.937632401552     0.703639114827    -0.001491827275    12.000000000000
         C           -1.082836598448     0.061867114827    -0.001444827275    12.000000000000
         H            1.706536401552    -1.422843885173    -0.001395827275     1.007825032230
         H            1.773797801552     1.387591714827     0.098476172725     1.007825032230
         H           -2.157544598448    -0.046785885173    -0.001438827275     1.007825032230

  Basis Set: AUG-CC-PVTZ
    Blend: AUG-CC-PVTZ
  Basis Set: (AUG-CC-PVTZ AUX)
    Blend: AUG-CC-PVTZ-JKFIT
	 Reference Energy          =    -244.7192987509382647 [Eh]
	 Singles Energy            =      -0.0000000000000000 [Eh]
	 Same-Spin Energy          =      -0.2506321659887853 [Eh]
	 Opposite-Spin Energy      =      -0.7543924515949849 [Eh]
	 Correlation Energy        =      -1.0050246175837703 [Eh]
	 Total Energy              =    -245.7243233685220218 [Eh]

	 ================> DF-SCS-MP2 Energies <==================
	-----------------------------------------------------------
	 SCS Same-Spin Scale       =       0.3333333333333333 [-]
	 SCS Opposite-Spin Scale   =       1.2000000000000000 [-]
	 SCS Same-Spin Energy      =      -0.0835440553295951 [Eh]
	 SCS Opposite-Spin Energy  =      -0.9052709419139818 [Eh]
	 SCS Correlation Energy    =      -0.9888149972435769 [Eh]
	 SCS Total Energy          =    -245.7081137481818303 [Eh]
	-----------------------------------------------------------

  Dipole Moment: [D]
     X:     0.7790      Y:    -1.4248      Z:     0.0775     Total:     1.6257

*** Psi4 exiting successfully. Buy a developer a beer!
