                               Psi4 1.3.2 release

  ==> Input File <==

--------------------------------------------------------------------------
#psi4
#
memory 32 gb

molecule  {
0 1
  O       -0.3732950    -1.0875170     0.0000230
  N       -0.3944950     1.1585740    -0.0000440
  C        0.9282580    -0.6566220     0.0000340
  C        0.9194130     0.7048960    -0.0000320
  C       -1.1010560     0.0631240     0.0000150
  H        1.6883170    -1.4215870     0.0000640
  H        1.7555780     1.3888440    -0.0000640
  H       -2.1757616    -0.0455245     0.1500210
units angstrom
no_reorient  #important for SAPT in psi4, default
symmetry c1  #important for SAPT in psi4, default
}

set PROPERTIES_ORIGIN ["COM"]
properties('MP2/aug-cc-pvtz', properties = ['dipole'])
--------------------------------------------------------------------------

    Molecular point group: c1
  Charge       = 0
  Multiplicity = 1
  Basis Set: AUG-CC-PVTZ
    Blend: AUG-CC-PVTZ
  Basis Set: (AUG-CC-PVTZ AUX)
    Blend: AUG-CC-PVTZ-JKFIT

    Orbital Energies [Eh]
    ---------------------

    Doubly Occupied:

       1A    -20.647675     2A    -15.575788     3A    -11.343439
       4A    -11.301598     5A    -11.269543     6A     -1.488480
       7A     -1.236323     8A     -1.034525     9A     -0.843179
      10A     -0.823260    11A     -0.753006    12A     -0.661362
      13A     -0.629033    14A     -0.595940    15A     -0.582971
      16A     -0.469486    17A     -0.458347    18A     -0.347438

  @DF-RHF Final Energy:  -244.71855041876088

   => Energetics <=

    Nuclear Repulsion Energy =            162.6234021788182531
    One-Electron Energy =                -654.5611226927886719
    Two-Electron Energy =                 247.2191700952095346
    Total Energy =                       -244.7185504187608842
  Basis Set: (AUG-CC-PVTZ AUX)
    Blend: AUG-CC-PVTZ-RI
    Molecular point group: c1

    Geometry (in Angstrom), charge = 0, multiplicity = 1:

       Center              X                  Y                   Z               Mass
    ------------   -----------------  -----------------  -----------------  -----------------
         O           -0.355075627652    -1.088773883713    -0.002166908165    15.994914619570
         N           -0.376275627652     1.157317116287    -0.002233908165    14.003074004430
         C            0.946477372348    -0.657878883713    -0.002155908165    12.000000000000
         C            0.937632372348     0.703639116287    -0.002221908165    12.000000000000
         C           -1.082836627652     0.061867116287    -0.002174908165    12.000000000000
         H            1.706536372348    -1.422843883713    -0.002125908165     1.007825032230
         H            1.773797372348     1.387587116287    -0.002253908165     1.007825032230
         H           -2.157542227652    -0.046781383713     0.147831091835     1.007825032230

  Basis Set: AUG-CC-PVTZ
    Blend: AUG-CC-PVTZ
  Basis Set: (AUG-CC-PVTZ AUX)
    Blend: AUG-CC-PVTZ-JKFIT
	 Reference Energy          =    -244.7185504187608842 [Eh]
	 Singles Energy            =      -0.0000000000000000 [Eh]
	 Same-Spin Energy          =      -0.2507113990837960 [Eh]
	 Opposite-Spin Energy      =      -0.7545247379195476 [Eh]
	 Correlation Energy        =      -1.0052361370033436 [Eh]
	 Total Energy              =    -245.7237865557642351 [Eh]

	 ================> DF-SCS-MP2 Energies <==================
	-----------------------------------------------------------
	 SCS Same-Spin Scale       =       0.3333333333333333 [-]
	 SCS Opposite-Spin Scale   =       1.2000000000000000 [-]
	 SCS Same-Spin Energy      =      -0.0835704663612653 [Eh]
	 SCS Opposite-Spin Energy  =      -0.9054296855034570 [Eh]
	 SCS Correlation Energy    =      -0.9890001518647223 [Eh]
	 SCS Total Energy          =    -245.7075505706256138 [Eh]
	-----------------------------------------------------------

  Dipole Moment: [D]
     X:     0.8044      Y:    -1.4163      Z:     0.1192     Total:     1.6331

*** Psi4 exiting successfully. Buy a developer a beer!
