                               Psi4 1.3.2 release

  ==> Input File <==

--------------------------------------------------------------------------
#psi4
#
memory 32 gb

molecule  {
0 1
  O       -0.3732950    -1.0875170     0.0000230
  N       -0.3944950     1.1585740    -0.0000440
  C        0.9282580    -0.6566220     0.0000340
  C        0.9194130     0.7048960    -0.0000320
  C       -1.1010560     0.0631240     0.0000150
  H        1.6883170    -1.4215870     0.0000640
  H        1.7555780     1.3888440    -0.0000640
  H       -2.1757608    -0.0455230     0.2000210
units angstrom
no_reorient  #important for SAPT in psi4, default
symmetry c1  #important for SAPT in psi4, default
}

set PROPERTIES_ORIGIN ["COM"]
properties('MP2/aug-cc-pvtz', properties = ['dipole'])
--------------------------------------------------------------------------

    Molecular point group: c1
  Charge       = 0
  Multiplicity = 1
  Basis Set: AUG-CC-PVTZ
    Blend: AUG-CC-PVTZ
  Basis Set: (AUG-CC-PVTZ AUX)
    Blend: AUG-CC-PVTZ-JKFIT

    Orbital Energies [Eh]
    ---------------------

    Doubly Occupied:

       1A    -20.647669     2A    -15.575988     3A    -11.343971
       4A    -11.301822     5A    -11.269677     6A     -1.488507
       7A     -1.236447     8A     -1.034314     9A     -0.842995
      10A     -0.822556    11A     -0.752351    12A     -0.661824
      13A     -0.628222    14A     -0.594659    15A     -0.583039
      16A     -0.469650    17A     -0.458335    18A     -0.347472

  @DF-RHF Final Energy:  -244.71743487525231

   => Energetics <=

    Nuclear Repulsion Energy =            162.5930693989007807
    One-Electron Energy =                -654.5020118201522337
    Two-Electron Energy =                 247.1915075459991726
    Total Energy =                       -244.7174348752523088
  Basis Set: (AUG-CC-PVTZ AUX)
    Blend: AUG-CC-PVTZ-RI
    Molecular point group: c1

    Geometry (in Angstrom), charge = 0, multiplicity = 1:

       Center              X                  Y                   Z               Mass
    ------------   -----------------  -----------------  -----------------  -----------------
         O           -0.355075639333    -1.088773905615    -0.002896989054    15.994914619570
         N           -0.376275639333     1.157317094385    -0.002963989054    14.003074004430
         C            0.946477360667    -0.657878905615    -0.002885989054    12.000000000000
         C            0.937632360667     0.703639094385    -0.002951989054    12.000000000000
         C           -1.082836639333     0.061867094385    -0.002904989054    12.000000000000
         H            1.706536360667    -1.422843905615    -0.002855989054     1.007825032230
         H            1.773797360667     1.387587094385    -0.002983989054     1.007825032230
         H           -2.157541439333    -0.046779905615     0.197101010946     1.007825032230

  Basis Set: AUG-CC-PVTZ
    Blend: AUG-CC-PVTZ
  Basis Set: (AUG-CC-PVTZ AUX)
    Blend: AUG-CC-PVTZ-JKFIT
	 Reference Energy          =    -244.7174348752523088 [Eh]
	 Singles Energy            =      -0.0000000000000000 [Eh]
	 Same-Spin Energy          =      -0.2507965481969328 [Eh]
	 Opposite-Spin Energy      =      -0.7546907001661715 [Eh]
	 Correlation Energy        =      -1.0054872483631043 [Eh]
	 Total Energy              =    -245.7229221236154046 [Eh]

	 ================> DF-SCS-MP2 Energies <==================
	-----------------------------------------------------------
	 SCS Same-Spin Scale       =       0.3333333333333333 [-]
	 SCS Opposite-Spin Scale   =       1.2000000000000000 [-]
	 SCS Same-Spin Energy      =      -0.0835988493989776 [Eh]
	 SCS Opposite-Spin Energy  =      -0.9056288401994057 [Eh]
	 SCS Correlation Energy    =      -0.9892276895983834 [Eh]
	 SCS Total Energy          =    -245.7066625648506886 [Eh]
	-----------------------------------------------------------

  Dipole Moment: [D]
     X:     0.8193      Y:    -1.4137      Z:     0.1585     Total:     1.6416

*** Psi4 exiting successfully. Buy a developer a beer!
