                               Psi4 1.3.2 release

  ==> Input File <==

--------------------------------------------------------------------------
#psi4
#
memory 32 gb

molecule  {
0 1
  O       -0.3732950    -1.0875170     0.0000230
  N       -0.3944950     1.1585740    -0.0000440
  C        0.9282580    -0.6566220     0.0000340
  C        0.9194130     0.7048960    -0.0000320
  C       -1.1010560     0.0631240     0.0000150
  H        1.6883170    -1.4215870     0.0000640
  H        1.7555793     1.3888578     0.2999360
  H       -2.1757640    -0.0455290     0.0000210
units angstrom
no_reorient  #important for SAPT in psi4, default
symmetry c1  #important for SAPT in psi4, default
}

set PROPERTIES_ORIGIN ["COM"]
properties('MP2/aug-cc-pvtz', properties = ['dipole'])
--------------------------------------------------------------------------

    Molecular point group: c1
  Charge       = 0
  Multiplicity = 1
  Basis Set: AUG-CC-PVTZ
    Blend: AUG-CC-PVTZ
  Basis Set: (AUG-CC-PVTZ AUX)
    Blend: AUG-CC-PVTZ-JKFIT

    Orbital Energies [Eh]
    ---------------------

    Doubly Occupied:

       1A    -20.648459     2A    -15.575712     3A    -11.343114
       4A    -11.302816     5A    -11.272547     6A     -1.489253
       7A     -1.236383     8A     -1.034629     9A     -0.841292
      10A     -0.823747    11A     -0.751170    12A     -0.661985
      13A     -0.629818    14A     -0.593193    15A     -0.578579
      16A     -0.470014    17A     -0.456893    18A     -0.347546

  @DF-RHF Final Energy:  -244.71386879162907

   => Energetics <=

    Nuclear Repulsion Energy =            162.5152457745053596
    One-Electron Energy =                -654.3439303539076946
    Two-Electron Energy =                 247.1148157877732388
    Total Energy =                       -244.7138687916290678
  Basis Set: (AUG-CC-PVTZ AUX)
    Blend: AUG-CC-PVTZ-RI
    Molecular point group: c1

    Geometry (in Angstrom), charge = 0, multiplicity = 1:

       Center              X                  Y                   Z               Mass
    ------------   -----------------  -----------------  -----------------  -----------------
         O           -0.355075611590    -1.088774019508    -0.004357150832    15.994914619570
         N           -0.376275611590     1.157316980492    -0.004424150832    14.003074004430
         C            0.946477388410    -0.657879019508    -0.004346150832    12.000000000000
         C            0.937632388410     0.703638980492    -0.004412150832    12.000000000000
         C           -1.082836611590     0.061866980492    -0.004365150832    12.000000000000
         H            1.706536388410    -1.422844019508    -0.004316150832     1.007825032230
         H            1.773798688410     1.387600780492     0.295555849168     1.007825032230
         H           -2.157544611590    -0.046786019508    -0.004359150832     1.007825032230

  Basis Set: AUG-CC-PVTZ
    Blend: AUG-CC-PVTZ
  Basis Set: (AUG-CC-PVTZ AUX)
    Blend: AUG-CC-PVTZ-JKFIT
	 Reference Energy          =    -244.7138687916290678 [Eh]
	 Singles Energy            =      -0.0000000000000000 [Eh]
	 Same-Spin Energy          =      -0.2508772689835136 [Eh]
	 Opposite-Spin Energy      =      -0.7550437317198513 [Eh]
	 Correlation Energy        =      -1.0059210007033648 [Eh]
	 Total Energy              =    -245.7197897923324206 [Eh]

	 ================> DF-SCS-MP2 Energies <==================
	-----------------------------------------------------------
	 SCS Same-Spin Scale       =       0.3333333333333333 [-]
	 SCS Opposite-Spin Scale   =       1.2000000000000000 [-]
	 SCS Same-Spin Energy      =      -0.0836257563278379 [Eh]
	 SCS Opposite-Spin Energy  =      -0.9060524780638215 [Eh]
	 SCS Correlation Energy    =      -0.9896782343916594 [Eh]
	 SCS Total Energy          =    -245.7035470260207148 [Eh]
	-----------------------------------------------------------

  Dipole Moment: [D]
     X:     0.7335      Y:    -1.4630      Z:     0.2290     Total:     1.6526

*** Psi4 exiting successfully. Buy a developer a beer!
