                               Psi4 1.3.2 release

  ==> Input File <==

--------------------------------------------------------------------------
#psi4
#
memory 32 gb

molecule  {
0 1
  O       -0.3732950    -1.0875170     0.0000230
  N       -0.3944950     1.1585740    -0.0000440
  C        0.9282580    -0.6566220     0.0000340
  C        0.9194130     0.7048960    -0.0000320
  C       -1.1010560     0.0631240     0.0000150
  H        1.6883170    -1.4215870     0.0000640
  H        1.7555780     1.3888440    -0.0000640
  H       -2.1757624    -0.0455260     0.1000210
units angstrom
no_reorient  #important for SAPT in psi4, default
symmetry c1  #important for SAPT in psi4, default
}

set PROPERTIES_ORIGIN ["COM"]
properties('MP2/aug-cc-pvtz', properties = ['dipole'])
--------------------------------------------------------------------------

    Molecular point group: c1
  Charge       = 0
  Multiplicity = 1
  Basis Set: AUG-CC-PVTZ
    Blend: AUG-CC-PVTZ
  Basis Set: (AUG-CC-PVTZ AUX)
    Blend: AUG-CC-PVTZ-JKFIT

    Orbital Energies [Eh]
    ---------------------

    Doubly Occupied:

       1A    -20.647682     2A    -15.575643     3A    -11.343055
       4A    -11.301437     5A    -11.269446     6A     -1.488461
       7A     -1.236235     8A     -1.034682     9A     -0.843331
      10A     -0.823774    11A     -0.753478    12A     -0.661000
      13A     -0.629677    14A     -0.596823    15A     -0.582922
      16A     -0.469366    17A     -0.458356    18A     -0.347414

  @DF-RHF Final Energy:  -244.71931050155902

   => Energetics <=

    Nuclear Repulsion Energy =            162.6453853508461691
    One-Electron Energy =                -654.6038279979800336
    Two-Electron Energy =                 247.2391321455748709
    Total Energy =                       -244.7193105015590220
  Basis Set: (AUG-CC-PVTZ AUX)
    Blend: AUG-CC-PVTZ-RI
    Molecular point group: c1

    Geometry (in Angstrom), charge = 0, multiplicity = 1:

       Center              X                  Y                   Z               Mass
    ------------   -----------------  -----------------  -----------------  -----------------
         O           -0.355075615970    -1.088773861810    -0.001436827275    15.994914619570
         N           -0.376275615970     1.157317138190    -0.001503827275    14.003074004430
         C            0.946477384030    -0.657878861810    -0.001425827275    12.000000000000
         C            0.937632384030     0.703639138190    -0.001491827275    12.000000000000
         C           -1.082836615970     0.061867138190    -0.001444827275    12.000000000000
         H            1.706536384030    -1.422843861810    -0.001395827275     1.007825032230
         H            1.773797384030     1.387587138190    -0.001523827275     1.007825032230
         H           -2.157543015970    -0.046782861810     0.098561172725     1.007825032230

  Basis Set: AUG-CC-PVTZ
    Blend: AUG-CC-PVTZ
  Basis Set: (AUG-CC-PVTZ AUX)
    Blend: AUG-CC-PVTZ-JKFIT
	 Reference Energy          =    -244.7193105015590220 [Eh]
	 Singles Energy            =      -0.0000000000000000 [Eh]
	 Same-Spin Energy          =      -0.2506499833962818 [Eh]
	 Opposite-Spin Energy      =      -0.7544090912379426 [Eh]
	 Correlation Energy        =      -1.0050590746342243 [Eh]
	 Total Energy              =    -245.7243695761932543 [Eh]

	 ================> DF-SCS-MP2 Energies <==================
	-----------------------------------------------------------
	 SCS Same-Spin Scale       =       0.3333333333333333 [-]
	 SCS Opposite-Spin Scale   =       1.2000000000000000 [-]
	 SCS Same-Spin Energy      =      -0.0835499944654272 [Eh]
	 SCS Opposite-Spin Energy  =      -0.9052909094855311 [Eh]
	 SCS Correlation Energy    =      -0.9888409039509584 [Eh]
	 SCS Total Energy          =    -245.7081514055099944 [Eh]
	-----------------------------------------------------------

  Dipole Moment: [D]
     X:     0.7936      Y:    -1.4182      Z:     0.0797     Total:     1.6271

*** Psi4 exiting successfully. Buy a developer a beer!
