                               Psi4 1.3.2 release

  ==> Input File <==

--------------------------------------------------------------------------
#psi4
#
memory 32 gb

molecule  {
0 1
  O       -0.3732950    -1.0875170     0.0000230
  N       -0.3944950     1.1585740    -0.0000440
  C        0.9282580    -0.6566220     0.0000340
  C        0.9194130     0.7048960    -0.0000320
  C       -1.1010560     0.0631240     0.0000150
  H        1.6883170    -1.4215870     0.0000640
  H        1.7555780     1.3888440    -0.0000640
  H       -2.1757632    -0.0455275     0.0500210
units angstrom
no_reorient  #important for SAPT in psi4, default
symmetry c1  #important for SAPT in psi4, default
}

set PROPERTIES_ORIGIN ["COM"]
properties('MP2/aug-cc-pvtz', properties = ['dipole'])
--------------------------------------------------------------------------

    Molecular point group: c1
  Charge       = 0
  Multiplicity = 1
  Basis Set: AUG-CC-PVTZ
    Blend: AUG-CC-PVTZ
  Basis Set: (AUG-CC-PVTZ AUX)
    Blend: AUG-CC-PVTZ-JKFIT

    Orbital Energies [Eh]
    ---------------------

    Doubly Occupied:

       1A    -20.647687     2A    -15.575556     3A    -11.342824
       4A    -11.301339     5A    -11.269388     6A     -1.488451
       7A     -1.236181     8A     -1.034780     9A     -0.843431
      10A     -0.824086    11A     -0.753763    12A     -0.660768
      13A     -0.630092    14A     -0.597339    15A     -0.582892
      16A     -0.469293    17A     -0.458363    18A     -0.347399

  @DF-RHF Final Energy:  -244.71975097837316

   => Energetics <=

    Nuclear Repulsion Energy =            162.6587045442341832
    One-Electron Energy =                -654.6296468295673776
    Two-Electron Energy =                 247.2511913069600382
    Total Energy =                       -244.7197509783731562
  Basis Set: (AUG-CC-PVTZ AUX)
    Blend: AUG-CC-PVTZ-RI
    Molecular point group: c1

    Geometry (in Angstrom), charge = 0, multiplicity = 1:

       Center              X                  Y                   Z               Mass
    ------------   -----------------  -----------------  -----------------  -----------------
         O           -0.355075604289    -1.088773839908    -0.000706746386    15.994914619570
         N           -0.376275604289     1.157317160092    -0.000773746386    14.003074004430
         C            0.946477395711    -0.657878839908    -0.000695746386    12.000000000000
         C            0.937632395711     0.703639160092    -0.000761746386    12.000000000000
         C           -1.082836604289     0.061867160092    -0.000714746386    12.000000000000
         H            1.706536395711    -1.422843839908    -0.000665746386     1.007825032230
         H            1.773797395711     1.387587160092    -0.000793746386     1.007825032230
         H           -2.157543804289    -0.046784339908     0.049291253614     1.007825032230

  Basis Set: AUG-CC-PVTZ
    Blend: AUG-CC-PVTZ
  Basis Set: (AUG-CC-PVTZ AUX)
    Blend: AUG-CC-PVTZ-JKFIT
	 Reference Energy          =    -244.7197509783731562 [Eh]
	 Singles Energy            =      -0.0000000000000000 [Eh]
	 Same-Spin Energy          =      -0.2506129149800567 [Eh]
	 Opposite-Spin Energy      =      -0.7543412034880562 [Eh]
	 Correlation Energy        =      -1.0049541184681130 [Eh]
	 Total Energy              =    -245.7247050968412623 [Eh]

	 ================> DF-SCS-MP2 Energies <==================
	-----------------------------------------------------------
	 SCS Same-Spin Scale       =       0.3333333333333333 [-]
	 SCS Opposite-Spin Scale   =       1.2000000000000000 [-]
	 SCS Same-Spin Energy      =      -0.0835376383266856 [Eh]
	 SCS Opposite-Spin Energy  =      -0.9052094441856674 [Eh]
	 SCS Correlation Energy    =      -0.9887470825123530 [Eh]
	 SCS Total Energy          =    -245.7084980608855176 [Eh]
	-----------------------------------------------------------

  Dipole Moment: [D]
     X:     0.7871      Y:    -1.4194      Z:     0.0399     Total:     1.6235

*** Psi4 exiting successfully. Buy a developer a beer!
