                               Psi4 1.3.2 release

  ==> Input File <==

--------------------------------------------------------------------------
#psi4
#
memory 32 gb

molecule  {
0 1
  O       -0.3732950    -1.0875170     0.0000230
  N       -0.3944950     1.1585740    -0.0000440
  C        0.9282580    -0.6566220     0.0000340
  C        0.9194130     0.7048960    -0.0000320
  C       -1.1010560     0.0631240     0.0000150
  H        1.6883170    -1.4215870     0.0000640
  H        1.7555780     1.3888440    -0.0000640
  H       -2.1757591    -0.0455200     0.3000210
units angstrom
no_reorient  #important for SAPT in psi4, default
symmetry c1  #important for SAPT in psi4, default
}

set PROPERTIES_ORIGIN ["COM"]
properties('MP2/aug-cc-pvtz', properties = ['dipole'])
--------------------------------------------------------------------------

    Molecular point group: c1
  Charge       = 0
  Multiplicity = 1
  Basis Set: AUG-CC-PVTZ
    Blend: AUG-CC-PVTZ
  Basis Set: (AUG-CC-PVTZ AUX)
    Blend: AUG-CC-PVTZ-JKFIT

    Orbital Energies [Eh]
    ---------------------

    Doubly Occupied:

       1A    -20.647668     2A    -15.576550     3A    -11.345458
       4A    -11.302443     5A    -11.270055     6A     -1.488592
       7A     -1.236793     8A     -1.033776     9A     -0.842615
      10A     -0.820666    11A     -0.750532    12A     -0.662917
      13A     -0.626388    14A     -0.590766    15A     -0.583220
      16A     -0.470093    17A     -0.458310    18A     -0.347575

  @DF-RHF Final Energy:  -244.71395511715812

   => Energetics <=

    Nuclear Repulsion Energy =            162.5091184312429959
    One-Electron Energy =                -654.3373148177307712
    Two-Electron Energy =                 247.1142412693296535
    Total Energy =                       -244.7139551171581218
  Basis Set: (AUG-CC-PVTZ AUX)
    Blend: AUG-CC-PVTZ-RI
    Molecular point group: c1

    Geometry (in Angstrom), charge = 0, multiplicity = 1:

       Center              X                  Y                   Z               Mass
    ------------   -----------------  -----------------  -----------------  -----------------
         O           -0.355075664156    -1.088773949420    -0.004357150832    15.994914619570
         N           -0.376275664156     1.157317050580    -0.004424150832    14.003074004430
         C            0.946477335844    -0.657878949420    -0.004346150832    12.000000000000
         C            0.937632335844     0.703639050580    -0.004412150832    12.000000000000
         C           -1.082836664156     0.061867050580    -0.004365150832    12.000000000000
         H            1.706536335844    -1.422843949420    -0.004316150832     1.007825032230
         H            1.773797335844     1.387587050580    -0.004444150832     1.007825032230
         H           -2.157539764156    -0.046776949420     0.295640849168     1.007825032230

  Basis Set: AUG-CC-PVTZ
    Blend: AUG-CC-PVTZ
  Basis Set: (AUG-CC-PVTZ AUX)
    Blend: AUG-CC-PVTZ-JKFIT
	 Reference Energy          =    -244.7139551171581218 [Eh]
	 Singles Energy            =      -0.0000000000000000 [Eh]
	 Same-Spin Energy          =      -0.2510342214138392 [Eh]
	 Opposite-Spin Energy      =      -0.7551810871306182 [Eh]
	 Correlation Energy        =      -1.0062153085444574 [Eh]
	 Total Energy              =    -245.7201704257025767 [Eh]

	 ================> DF-SCS-MP2 Energies <==================
	-----------------------------------------------------------
	 SCS Same-Spin Scale       =       0.3333333333333333 [-]
	 SCS Opposite-Spin Scale   =       1.2000000000000000 [-]
	 SCS Same-Spin Energy      =      -0.0836780738046131 [Eh]
	 SCS Opposite-Spin Energy  =      -0.9062173045567418 [Eh]
	 SCS Correlation Energy    =      -0.9898953783613549 [Eh]
	 SCS Total Energy          =    -245.7038504955194753 [Eh]
	-----------------------------------------------------------

  Dipole Moment: [D]
     X:     0.8609      Y:    -1.4065      Z:     0.2360     Total:     1.6659

*** Psi4 exiting successfully. Buy a developer a beer!
