                               Psi4 1.3.2 release

  ==> Input File <==

--------------------------------------------------------------------------
#psi4
#
memory 32 gb

molecule  {
0 1
  O       -0.3732950    -1.0875170     0.0000230
  N       -0.3944950     1.1585740    -0.0000440
  C        0.9282580    -0.6566220     0.0000340
  C        0.9194130     0.7048960    -0.0000320
  C       -1.1010560     0.0631240     0.0000150
  H        1.6883170    -1.4215870     0.0000640
  H        1.7555780     1.3888440    -0.0000640
  H       -2.1757599    -0.0455215     0.2500210
units angstrom
no_reorient  #important for SAPT in psi4, default
symmetry c1  #important for SAPT in psi4, default
}

set PROPERTIES_ORIGIN ["COM"]
properties('MP2/aug-cc-pvtz', properties = ['dipole'])
--------------------------------------------------------------------------

    Molecular point group: c1
  Charge       = 0
  Multiplicity = 1
  Basis Set: AUG-CC-PVTZ
    Blend: AUG-CC-PVTZ
  Basis Set: (AUG-CC-PVTZ AUX)
    Blend: AUG-CC-PVTZ-JKFIT

    Orbital Energies [Eh]
    ---------------------

    Doubly Occupied:

       1A    -20.647665     2A    -15.576243     3A    -11.344646
       4A    -11.302104     5A    -11.269848     6A     -1.488544
       7A     -1.236603     8A     -1.034061     9A     -0.842801
      10A     -0.821683    11A     -0.751523    12A     -0.662353
      13A     -0.627316    14A     -0.592945    15A     -0.583124
      16A     -0.469853    17A     -0.458322    18A     -0.347518

  @DF-RHF Final Energy:  -244.71591930901400

   => Energetics <=

    Nuclear Repulsion Energy =            162.5548066505865563
    One-Electron Energy =                -654.4271451120124539
    Two-Electron Energy =                 247.1564191524118996
    Total Energy =                       -244.7159193090139979
  Basis Set: (AUG-CC-PVTZ AUX)
    Blend: AUG-CC-PVTZ-RI
    Molecular point group: c1

    Geometry (in Angstrom), charge = 0, multiplicity = 1:

       Center              X                  Y                   Z               Mass
    ------------   -----------------  -----------------  -----------------  -----------------
         O           -0.355075652474    -1.088773927517    -0.003627069943    15.994914619570
         N           -0.376275652474     1.157317072483    -0.003694069943    14.003074004430
         C            0.946477347526    -0.657878927517    -0.003616069943    12.000000000000
         C            0.937632347526     0.703639072483    -0.003682069943    12.000000000000
         C           -1.082836652474     0.061867072483    -0.003635069943    12.000000000000
         H            1.706536347526    -1.422843927517    -0.003586069943     1.007825032230
         H            1.773797347526     1.387587072483    -0.003714069943     1.007825032230
         H           -2.157540552474    -0.046778427517     0.246370930057     1.007825032230

  Basis Set: AUG-CC-PVTZ
    Blend: AUG-CC-PVTZ
  Basis Set: (AUG-CC-PVTZ AUX)
    Blend: AUG-CC-PVTZ-JKFIT
	 Reference Energy          =    -244.7159193090139979 [Eh]
	 Singles Energy            =      -0.0000000000000000 [Eh]
	 Same-Spin Energy          =      -0.2509045359603215 [Eh]
	 Opposite-Spin Energy      =      -0.7549090711856843 [Eh]
	 Correlation Energy        =      -1.0058136071460058 [Eh]
	 Total Energy              =    -245.7217329161599935 [Eh]

	 ================> DF-SCS-MP2 Energies <==================
	-----------------------------------------------------------
	 SCS Same-Spin Scale       =       0.3333333333333333 [-]
	 SCS Opposite-Spin Scale   =       1.2000000000000000 [-]
	 SCS Same-Spin Energy      =      -0.0836348453201071 [Eh]
	 SCS Opposite-Spin Energy  =      -0.9058908854228211 [Eh]
	 SCS Correlation Energy    =      -0.9895257307429283 [Eh]
	 SCS Total Energy          =    -245.7054450397569383 [Eh]
	-----------------------------------------------------------

  Dipole Moment: [D]
     X:     0.8383      Y:    -1.4104      Z:     0.1975     Total:     1.6525

*** Psi4 exiting successfully. Buy a developer a beer!
