                               Psi4 1.3.2 release

  ==> Input File <==

--------------------------------------------------------------------------
#psi4
#
memory 32 gb

molecule  {
0 1
  O       -0.3732950    -1.0875170     0.0000230
  N       -0.3944950     1.1585740    -0.0000440
  C        0.9282580    -0.6566220     0.0000340
  C        0.9194130     0.7048960    -0.0000320
  C       -1.1010560     0.0631240     0.0000150
  H        1.6883197    -1.4215951    -0.1999360
  H        1.7555780     1.3888440    -0.0000640
  H       -2.1757640    -0.0455290     0.0000210
units angstrom
no_reorient  #important for SAPT in psi4, default
symmetry c1  #important for SAPT in psi4, default
}

set PROPERTIES_ORIGIN ["COM"]
properties('MP2/aug-cc-pvtz', properties = ['dipole'])
--------------------------------------------------------------------------

    Molecular point group: c1
  Charge       = 0
  Multiplicity = 1
  Basis Set: AUG-CC-PVTZ
    Blend: AUG-CC-PVTZ
  Basis Set: (AUG-CC-PVTZ AUX)
    Blend: AUG-CC-PVTZ-JKFIT

    Orbital Energies [Eh]
    ---------------------

    Doubly Occupied:

       1A    -20.647587     2A    -15.575836     3A    -11.343292
       4A    -11.302403     5A    -11.270021     6A     -1.488498
       7A     -1.236528     8A     -1.034371     9A     -0.843210
      10A     -0.823119    11A     -0.752478    12A     -0.661973
      13A     -0.625302    14A     -0.597912    15A     -0.582056
      16A     -0.469431    17A     -0.458593    18A     -0.347482

  @DF-RHF Final Energy:  -244.71769753589308

   => Energetics <=

    Nuclear Repulsion Energy =            162.5944365549185875
    One-Electron Energy =                -654.5040818195536758
    Two-Electron Energy =                 247.1919477287419795
    Total Energy =                       -244.7176975358930804
  Basis Set: (AUG-CC-PVTZ AUX)
    Blend: AUG-CC-PVTZ-RI
    Molecular point group: c1

    Geometry (in Angstrom), charge = 0, multiplicity = 1:

       Center              X                  Y                   Z               Mass
    ------------   -----------------  -----------------  -----------------  -----------------
         O           -0.355075632032    -1.088773699732     0.002943658060    15.994914619570
         N           -0.376275632032     1.157317300268     0.002876658060    14.003074004430
         C            0.946477367968    -0.657878699732     0.002954658060    12.000000000000
         C            0.937632367968     0.703639300268     0.002888658060    12.000000000000
         C           -1.082836632032     0.061867300268     0.002935658060    12.000000000000
         H            1.706539067968    -1.422851799732    -0.197015341940     1.007825032230
         H            1.773797367968     1.387587300268     0.002856658060     1.007825032230
         H           -2.157544632032    -0.046785699732     0.002941658060     1.007825032230

  Basis Set: AUG-CC-PVTZ
    Blend: AUG-CC-PVTZ
  Basis Set: (AUG-CC-PVTZ AUX)
    Blend: AUG-CC-PVTZ-JKFIT
	 Reference Energy          =    -244.7176975358930804 [Eh]
	 Singles Energy            =      -0.0000000000000000 [Eh]
	 Same-Spin Energy          =      -0.2507264519219159 [Eh]
	 Opposite-Spin Energy      =      -0.7546102697889412 [Eh]
	 Correlation Energy        =      -1.0053367217108571 [Eh]
	 Total Energy              =    -245.7230342576039277 [Eh]

	 ================> DF-SCS-MP2 Energies <==================
	-----------------------------------------------------------
	 SCS Same-Spin Scale       =       0.3333333333333333 [-]
	 SCS Opposite-Spin Scale   =       1.2000000000000000 [-]
	 SCS Same-Spin Energy      =      -0.0835754839739720 [Eh]
	 SCS Opposite-Spin Energy  =      -0.9055323237467294 [Eh]
	 SCS Correlation Energy    =      -0.9891078077207014 [Eh]
	 SCS Total Energy          =    -245.7068053436137802 [Eh]
	-----------------------------------------------------------

  Dipole Moment: [D]
     X:     0.7637      Y:    -1.3938      Z:    -0.1798     Total:     1.5995

*** Psi4 exiting successfully. Buy a developer a beer!
