                               Psi4 1.3.2 release

  ==> Input File <==

--------------------------------------------------------------------------
#psi4
#
memory 32 gb

molecule  {
0 1
  O       -0.3732950    -1.0875170     0.0000230
  N       -0.3944950     1.1585740    -0.0000440
  C        0.9282580    -0.6566220     0.0000340
  C        0.9194130     0.7048960    -0.0000320
  C       -1.1010560     0.0631240     0.0000150
  H        1.6883190    -1.4215930    -0.1499360
  H        1.7555780     1.3888440    -0.0000640
  H       -2.1757640    -0.0455290     0.0000210
units angstrom
no_reorient  #important for SAPT in psi4, default
symmetry c1  #important for SAPT in psi4, default
}

set PROPERTIES_ORIGIN ["COM"]
properties('MP2/aug-cc-pvtz', properties = ['dipole'])
--------------------------------------------------------------------------

    Molecular point group: c1
  Charge       = 0
  Multiplicity = 1
  Basis Set: AUG-CC-PVTZ
    Blend: AUG-CC-PVTZ
  Basis Set: (AUG-CC-PVTZ AUX)
    Blend: AUG-CC-PVTZ-JKFIT

    Orbital Energies [Eh]
    ---------------------

    Doubly Occupied:

       1A    -20.647628     2A    -15.575702     3A    -11.343055
       4A    -11.301926     5A    -11.269737     6A     -1.488474
       7A     -1.236369     8A     -1.034558     9A     -0.843309
      10A     -0.823575    11A     -0.753070    12A     -0.661467
      13A     -0.627379    14A     -0.597737    15A     -0.582439
      16A     -0.469361    17A     -0.458493    18A     -0.347443

  @DF-RHF Final Energy:  -244.71869986120490

   => Energetics <=

    Nuclear Repulsion Energy =            162.6241697566207165
    One-Electron Energy =                -654.5622906569404904
    Two-Electron Energy =                 247.2194210391148488
    Total Energy =                       -244.7186998612048967
  Basis Set: (AUG-CC-PVTZ AUX)
    Blend: AUG-CC-PVTZ-RI
    Molecular point group: c1

    Geometry (in Angstrom), charge = 0, multiplicity = 1:

       Center              X                  Y                   Z               Mass
    ------------   -----------------  -----------------  -----------------  -----------------
         O           -0.355075621811    -1.088773730396     0.002213577171    15.994914619570
         N           -0.376275621811     1.157317269604     0.002146577171    14.003074004430
         C            0.946477378189    -0.657878730396     0.002224577171    12.000000000000
         C            0.937632378189     0.703639269604     0.002158577171    12.000000000000
         C           -1.082836621811     0.061867269604     0.002205577171    12.000000000000
         H            1.706538378189    -1.422849730396    -0.147745422829     1.007825032230
         H            1.773797378189     1.387587269604     0.002126577171     1.007825032230
         H           -2.157544621811    -0.046785730396     0.002211577171     1.007825032230

  Basis Set: AUG-CC-PVTZ
    Blend: AUG-CC-PVTZ
  Basis Set: (AUG-CC-PVTZ AUX)
    Blend: AUG-CC-PVTZ-JKFIT
	 Reference Energy          =    -244.7186998612048967 [Eh]
	 Singles Energy            =      -0.0000000000000000 [Eh]
	 Same-Spin Energy          =      -0.2506718429888135 [Eh]
	 Opposite-Spin Energy      =      -0.7544799197953260 [Eh]
	 Correlation Energy        =      -1.0051517627841395 [Eh]
	 Total Energy              =    -245.7238516239890487 [Eh]

	 ================> DF-SCS-MP2 Energies <==================
	-----------------------------------------------------------
	 SCS Same-Spin Scale       =       0.3333333333333333 [-]
	 SCS Opposite-Spin Scale   =       1.2000000000000000 [-]
	 SCS Same-Spin Energy      =      -0.0835572809962712 [Eh]
	 SCS Opposite-Spin Energy  =      -0.9053759037543911 [Eh]
	 SCS Correlation Energy    =      -0.9889331847506623 [Eh]
	 SCS Total Energy          =    -245.7076330459555606 [Eh]
	-----------------------------------------------------------

  Dipole Moment: [D]
     X:     0.7729      Y:    -1.4050      Z:    -0.1354     Total:     1.6093

*** Psi4 exiting successfully. Buy a developer a beer!
