                               Psi4 1.3.2 release

  ==> Input File <==

--------------------------------------------------------------------------
#psi4
#
memory 32 gb

molecule  {
0 1
  O       -0.3732950    -1.0875170     0.0000230
  N       -0.3944950     1.1585740    -0.0000440
  C        0.9282580    -0.6566220     0.0000340
  C        0.9194130     0.7048960    -0.0000320
  C       -1.1010560     0.0631240     0.0000150
  H        1.6883170    -1.4215870     0.0000640
  H        1.7555787     1.3888509     0.1499360
  H       -2.1757640    -0.0455290     0.0000210
units angstrom
no_reorient  #important for SAPT in psi4, default
symmetry c1  #important for SAPT in psi4, default
}

set PROPERTIES_ORIGIN ["COM"]
properties('MP2/aug-cc-pvtz', properties = ['dipole'])
--------------------------------------------------------------------------

    Molecular point group: c1
  Charge       = 0
  Multiplicity = 1
  Basis Set: AUG-CC-PVTZ
    Blend: AUG-CC-PVTZ
  Basis Set: (AUG-CC-PVTZ AUX)
    Blend: AUG-CC-PVTZ-JKFIT

    Orbital Energies [Eh]
    ---------------------

    Doubly Occupied:

       1A    -20.647883     2A    -15.575569     3A    -11.342837
       4A    -11.301691     5A    -11.270180     6A     -1.488651
       7A     -1.236216     8A     -1.034755     9A     -0.842834
      10A     -0.824083    11A     -0.753147    12A     -0.661050
      13A     -0.630069    14A     -0.596130    15A     -0.582110
      16A     -0.469472    17A     -0.457975    18A     -0.347430

  @DF-RHF Final Energy:  -244.71852480325069

   => Energetics <=

    Nuclear Repulsion Energy =            162.6249551785295182
    One-Electron Energy =                -654.5627973082486051
    Two-Electron Energy =                 247.2193173264684276
    Total Energy =                       -244.7185248032506877
  Basis Set: (AUG-CC-PVTZ AUX)
    Blend: AUG-CC-PVTZ-RI
    Molecular point group: c1

    Geometry (in Angstrom), charge = 0, multiplicity = 1:

       Center              X                  Y                   Z               Mass
    ------------   -----------------  -----------------  -----------------  -----------------
         O           -0.355075602829    -1.088773918756    -0.002166908165    15.994914619570
         N           -0.376275602829     1.157317081244    -0.002233908165    14.003074004430
         C            0.946477397171    -0.657878918756    -0.002155908165    12.000000000000
         C            0.937632397171     0.703639081244    -0.002221908165    12.000000000000
         C           -1.082836602829     0.061867081244    -0.002174908165    12.000000000000
         H            1.706536397171    -1.422843918756    -0.002125908165     1.007825032230
         H            1.773798097171     1.387593981244     0.147746091835     1.007825032230
         H           -2.157544602829    -0.046785918756    -0.002168908165     1.007825032230

  Basis Set: AUG-CC-PVTZ
    Blend: AUG-CC-PVTZ
  Basis Set: (AUG-CC-PVTZ AUX)
    Blend: AUG-CC-PVTZ-JKFIT
	 Reference Energy          =    -244.7185248032506877 [Eh]
	 Singles Energy            =      -0.0000000000000000 [Eh]
	 Same-Spin Energy          =      -0.2506713967984325 [Eh]
	 Opposite-Spin Energy      =      -0.7544881780426562 [Eh]
	 Correlation Energy        =      -1.0051595748410889 [Eh]
	 Total Energy              =    -245.7236843780917752 [Eh]

	 ================> DF-SCS-MP2 Energies <==================
	-----------------------------------------------------------
	 SCS Same-Spin Scale       =       0.3333333333333333 [-]
	 SCS Opposite-Spin Scale   =       1.2000000000000000 [-]
	 SCS Same-Spin Energy      =      -0.0835571322661442 [Eh]
	 SCS Opposite-Spin Energy  =      -0.9053858136511874 [Eh]
	 SCS Correlation Energy    =      -0.9889429459173316 [Eh]
	 SCS Total Energy          =    -245.7074677491680177 [Eh]
	-----------------------------------------------------------

  Dipole Moment: [D]
     X:     0.7718      Y:    -1.4309      Z:     0.1160     Total:     1.6299

*** Psi4 exiting successfully. Buy a developer a beer!
