                               Psi4 1.3.2 release

  ==> Input File <==

--------------------------------------------------------------------------
#psi4
#
memory 32 gb

molecule  {
0 1
  O       -0.3732950    -1.0875170     0.0000230
  N       -0.3944950     1.1585740    -0.0000440
  C        0.9282580    -0.6566220     0.0000340
  C        0.9194130     0.7048960    -0.0000320
  C       -1.1010560     0.0631240     0.0000150
  H        1.6883170    -1.4215870     0.0000640
  H        1.7555780     1.3888440    -0.0000640
  H       -2.1757640    -0.0455290     0.0000210
units angstrom
no_reorient  #important for SAPT in psi4, default
symmetry c1  #important for SAPT in psi4, default
}

set PROPERTIES_ORIGIN ["COM"]
properties('MP2/aug-cc-pvtz', properties = ['dipole'])
--------------------------------------------------------------------------

    Molecular point group: c1
  Charge       = 0
  Multiplicity = 1
  Basis Set: AUG-CC-PVTZ
    Blend: AUG-CC-PVTZ
  Basis Set: (AUG-CC-PVTZ AUX)
    Blend: AUG-CC-PVTZ-JKFIT

    Orbital Energies [Eh]
    ---------------------

    Doubly Occupied:

       1A    -20.647688     2A    -15.575527     3A    -11.342747
       4A    -11.301307     5A    -11.269368     6A     -1.488447
       7A     -1.236164     8A     -1.034813     9A     -0.843466
      10A     -0.824191    11A     -0.753858    12A     -0.660688
      13A     -0.630235    14A     -0.597509    15A     -0.582882
      16A     -0.469269    17A     -0.458365    18A     -0.347395

  @DF-RHF Final Energy:  -244.71989509135551

   => Energetics <=

    Nuclear Repulsion Energy =            162.6631648537504873
    One-Electron Energy =                -654.6382835051460916
    Two-Electron Energy =                 247.2552235600401218
    Total Energy =                       -244.7198950913555109
  Basis Set: (AUG-CC-PVTZ AUX)
    Blend: AUG-CC-PVTZ-RI
    Molecular point group: c1

    Geometry (in Angstrom), charge = 0, multiplicity = 1:

       Center              X                  Y                   Z               Mass
    ------------   -----------------  -----------------  -----------------  -----------------
         O           -0.355075592608    -1.088773818005     0.000023334503    15.994914619570
         N           -0.376275592608     1.157317181995    -0.000043665497    14.003074004430
         C            0.946477407392    -0.657878818005     0.000034334503    12.000000000000
         C            0.937632407392     0.703639181995    -0.000031665497    12.000000000000
         C           -1.082836592608     0.061867181995     0.000015334503    12.000000000000
         H            1.706536407392    -1.422843818005     0.000064334503     1.007825032230
         H            1.773797407392     1.387587181995    -0.000063665497     1.007825032230
         H           -2.157544592608    -0.046785818005     0.000021334503     1.007825032230

  Basis Set: AUG-CC-PVTZ
    Blend: AUG-CC-PVTZ
  Basis Set: (AUG-CC-PVTZ AUX)
    Blend: AUG-CC-PVTZ-JKFIT
	 Reference Energy          =    -244.7198950913555109 [Eh]
	 Singles Energy            =      -0.0000000000000000 [Eh]
	 Same-Spin Energy          =      -0.2506005332753689 [Eh]
	 Opposite-Spin Energy      =      -0.7543188802019061 [Eh]
	 Correlation Energy        =      -1.0049194134772750 [Eh]
	 Total Energy              =    -245.7248145048327785 [Eh]

	 ================> DF-SCS-MP2 Energies <==================
	-----------------------------------------------------------
	 SCS Same-Spin Scale       =       0.3333333333333333 [-]
	 SCS Opposite-Spin Scale   =       1.2000000000000000 [-]
	 SCS Same-Spin Energy      =      -0.0835335110917896 [Eh]
	 SCS Opposite-Spin Energy  =      -0.9051826562422872 [Eh]
	 SCS Correlation Energy    =      -0.9887161673340769 [Eh]
	 SCS Total Energy          =    -245.7086112586895865 [Eh]
	-----------------------------------------------------------

  Dipole Moment: [D]
     X:     0.7849      Y:    -1.4198      Z:     0.0001     Total:     1.6223

*** Psi4 exiting successfully. Buy a developer a beer!
