                               Psi4 1.3.2 release

  ==> Input File <==

--------------------------------------------------------------------------
#psi4
#
memory 32 gb

molecule  {
0 1
  O       -0.3732950    -1.0875170     0.0000230
  N       -0.3944950     1.1585740    -0.0000440
  C        0.9282580    -0.6566220     0.0000340
  C        0.9194130     0.7048960    -0.0000320
  C       -1.1010560     0.0631240     0.0000150
  H        1.6883170    -1.4215870     0.0000640
  H        1.7555789     1.3888532     0.1999360
  H       -2.1757640    -0.0455290     0.0000210
units angstrom
no_reorient  #important for SAPT in psi4, default
symmetry c1  #important for SAPT in psi4, default
}

set PROPERTIES_ORIGIN ["COM"]
properties('MP2/aug-cc-pvtz', properties = ['dipole'])
--------------------------------------------------------------------------

    Molecular point group: c1
  Charge       = 0
  Multiplicity = 1
  Basis Set: AUG-CC-PVTZ
    Blend: AUG-CC-PVTZ
  Basis Set: (AUG-CC-PVTZ AUX)
    Blend: AUG-CC-PVTZ-JKFIT

    Orbital Energies [Eh]
    ---------------------

    Doubly Occupied:

       1A    -20.648034     2A    -15.575603     3A    -11.342908
       4A    -11.301987     5A    -11.270804     6A     -1.488808
       7A     -1.236258     8A     -1.034715     9A     -0.842386
      10A     -0.823997    11A     -0.752612    12A     -0.661312
      13A     -0.629973    14A     -0.595191    15A     -0.581372
      16A     -0.469621    17A     -0.457682    18A     -0.347458

  @DF-RHF Final Energy:  -244.71739130416822

   => Energetics <=

    Nuclear Repulsion Energy =            162.5958223420855973
    One-Electron Energy =                -654.5049828457299554
    Two-Electron Energy =                 247.1917691994761128
    Total Energy =                       -244.7173913041682169
  Basis Set: (AUG-CC-PVTZ AUX)
    Blend: AUG-CC-PVTZ-RI
    Molecular point group: c1

    Geometry (in Angstrom), charge = 0, multiplicity = 1:

       Center              X                  Y                   Z               Mass
    ------------   -----------------  -----------------  -----------------  -----------------
         O           -0.355075605749    -1.088773952340    -0.002896989054    15.994914619570
         N           -0.376275605749     1.157317047660    -0.002963989054    14.003074004430
         C            0.946477394251    -0.657878952340    -0.002885989054    12.000000000000
         C            0.937632394251     0.703639047660    -0.002951989054    12.000000000000
         C           -1.082836605749     0.061867047660    -0.002904989054    12.000000000000
         H            1.706536394251    -1.422843952340    -0.002855989054     1.007825032230
         H            1.773798294251     1.387596247660     0.197016010946     1.007825032230
         H           -2.157544605749    -0.046785952340    -0.002898989054     1.007825032230

  Basis Set: AUG-CC-PVTZ
    Blend: AUG-CC-PVTZ
  Basis Set: (AUG-CC-PVTZ AUX)
    Blend: AUG-CC-PVTZ-JKFIT
	 Reference Energy          =    -244.7173913041682169 [Eh]
	 Singles Energy            =      -0.0000000000000000 [Eh]
	 Same-Spin Energy          =      -0.2507257275393510 [Eh]
	 Opposite-Spin Energy      =      -0.7546272661089857 [Eh]
	 Correlation Energy        =      -1.0053529936483367 [Eh]
	 Total Energy              =    -245.7227442978165470 [Eh]

	 ================> DF-SCS-MP2 Energies <==================
	-----------------------------------------------------------
	 SCS Same-Spin Scale       =       0.3333333333333333 [-]
	 SCS Opposite-Spin Scale   =       1.2000000000000000 [-]
	 SCS Same-Spin Energy      =      -0.0835752425131170 [Eh]
	 SCS Opposite-Spin Energy  =      -0.9055527193307827 [Eh]
	 SCS Correlation Energy    =      -0.9891279618438997 [Eh]
	 SCS Total Energy          =    -245.7065192660121227 [Eh]
	-----------------------------------------------------------

  Dipole Moment: [D]
     X:     0.7617      Y:    -1.4395      Z:     0.1541     Total:     1.6359

*** Psi4 exiting successfully. Buy a developer a beer!
