                               Psi4 1.3.2 release

  ==> Input File <==

--------------------------------------------------------------------------
#psi4
#
memory 32 gb

molecule  {
0 1
  O       -0.3732950    -1.0875170     0.0000230
  N       -0.3944950     1.1585740    -0.0000440
  C        0.9282580    -0.6566220     0.0000340
  C        0.9194130     0.7048960    -0.0000320
  C       -1.1010560     0.0631240     0.0000150
  H        1.6883170    -1.4215870     0.0000640
  H        1.7555791     1.3888555     0.2499360
  H       -2.1757640    -0.0455290     0.0000210
units angstrom
no_reorient  #important for SAPT in psi4, default
symmetry c1  #important for SAPT in psi4, default
}

set PROPERTIES_ORIGIN ["COM"]
properties('MP2/aug-cc-pvtz', properties = ['dipole'])
--------------------------------------------------------------------------

    Molecular point group: c1
  Charge       = 0
  Multiplicity = 1
  Basis Set: AUG-CC-PVTZ
    Blend: AUG-CC-PVTZ
  Basis Set: (AUG-CC-PVTZ AUX)
    Blend: AUG-CC-PVTZ-JKFIT

    Orbital Energies [Eh]
    ---------------------

    Doubly Occupied:

       1A    -20.648226     2A    -15.575650     3A    -11.343000
       4A    -11.302363     5A    -11.271596     6A     -1.489009
       7A     -1.236313     8A     -1.034672     9A     -0.841861
      10A     -0.823885    11A     -0.751947    12A     -0.661628
      13A     -0.629884    14A     -0.594167    15A     -0.580237
      16A     -0.469804    17A     -0.457320    18A     -0.347497

  @DF-RHF Final Energy:  -244.71585499187265

   => Energetics <=

    Nuclear Repulsion Energy =            162.5590876946592118
    One-Electron Energy =                -654.4317666402956775
    Two-Electron Energy =                 247.1568239537638476
    Total Energy =                       -244.7158549918726465
  Basis Set: (AUG-CC-PVTZ AUX)
    Blend: AUG-CC-PVTZ-RI
    Molecular point group: c1

    Geometry (in Angstrom), charge = 0, multiplicity = 1:

       Center              X                  Y                   Z               Mass
    ------------   -----------------  -----------------  -----------------  -----------------
         O           -0.355075608669    -1.088773985924    -0.003627069943    15.994914619570
         N           -0.376275608669     1.157317014076    -0.003694069943    14.003074004430
         C            0.946477391331    -0.657878985924    -0.003616069943    12.000000000000
         C            0.937632391331     0.703639014076    -0.003682069943    12.000000000000
         C           -1.082836608669     0.061867014076    -0.003635069943    12.000000000000
         H            1.706536391331    -1.422843985924    -0.003586069943     1.007825032230
         H            1.773798491331     1.387598514076     0.246285930057     1.007825032230
         H           -2.157544608669    -0.046785985924    -0.003629069943     1.007825032230

  Basis Set: AUG-CC-PVTZ
    Blend: AUG-CC-PVTZ
  Basis Set: (AUG-CC-PVTZ AUX)
    Blend: AUG-CC-PVTZ-JKFIT
	 Reference Energy          =    -244.7158549918726465 [Eh]
	 Singles Energy            =      -0.0000000000000000 [Eh]
	 Same-Spin Energy          =      -0.2507945842554162 [Eh]
	 Opposite-Spin Energy      =      -0.7548120472376119 [Eh]
	 Correlation Energy        =      -1.0056066314930281 [Eh]
	 Total Energy              =    -245.7214616233656841 [Eh]

	 ================> DF-SCS-MP2 Energies <==================
	-----------------------------------------------------------
	 SCS Same-Spin Scale       =       0.3333333333333333 [-]
	 SCS Opposite-Spin Scale   =       1.2000000000000000 [-]
	 SCS Same-Spin Energy      =      -0.0835981947518054 [Eh]
	 SCS Opposite-Spin Energy  =      -0.9057744566851342 [Eh]
	 SCS Correlation Energy    =      -0.9893726514369396 [Eh]
	 SCS Total Energy          =    -245.7052276433095983 [Eh]
	-----------------------------------------------------------

  Dipole Moment: [D]
     X:     0.7490      Y:    -1.4502      Z:     0.1918     Total:     1.6434

*** Psi4 exiting successfully. Buy a developer a beer!
