                               Psi4 1.3.2 release

  ==> Input File <==

--------------------------------------------------------------------------
#psi4
#
memory 32 gb

molecule  {
0 1
  O       -0.3732950    -1.0875170     0.0000230
  N       -0.3944950     1.1585740    -0.0000440
  C        0.9282580    -0.6566220     0.0000340
  C        0.9194130     0.7048960    -0.0000320
  C       -1.1010560     0.0631240     0.0000150
  H        1.6883210    -1.4215991    -0.2999360
  H        1.7555780     1.3888440    -0.0000640
  H       -2.1757640    -0.0455290     0.0000210
units angstrom
no_reorient  #important for SAPT in psi4, default
symmetry c1  #important for SAPT in psi4, default
}

set PROPERTIES_ORIGIN ["COM"]
properties('MP2/aug-cc-pvtz', properties = ['dipole'])
--------------------------------------------------------------------------

    Molecular point group: c1
  Charge       = 0
  Multiplicity = 1
  Basis Set: AUG-CC-PVTZ
    Blend: AUG-CC-PVTZ
  Basis Set: (AUG-CC-PVTZ AUX)
    Blend: AUG-CC-PVTZ-JKFIT

    Orbital Energies [Eh]
    ---------------------

    Doubly Occupied:

       1A    -20.647490     2A    -15.576217     3A    -11.343954
       4A    -11.303742     5A    -11.270814     6A     -1.488574
       7A     -1.236976     8A     -1.033889     9A     -0.843019
      10A     -0.821927    11A     -0.750885    12A     -0.663091
      13A     -0.619946    14A     -0.598399    15A     -0.580750
      16A     -0.469620    17A     -0.458877    18A     -0.347601

  @DF-RHF Final Energy:  -244.71452762708850

   => Energetics <=

    Nuclear Repulsion Energy =            162.5121909868609862
    One-Electron Energy =                -654.3418965133230358
    Two-Electron Energy =                 247.1151778993735206
    Total Energy =                       -244.7145276270885006
  Basis Set: (AUG-CC-PVTZ AUX)
    Blend: AUG-CC-PVTZ-RI
    Molecular point group: c1

    Geometry (in Angstrom), charge = 0, multiplicity = 1:

       Center              X                  Y                   Z               Mass
    ------------   -----------------  -----------------  -----------------  -----------------
         O           -0.355075651014    -1.088773641326     0.004403819839    15.994914619570
         N           -0.376275651014     1.157317358674     0.004336819839    14.003074004430
         C            0.946477348986    -0.657878641326     0.004414819839    12.000000000000
         C            0.937632348986     0.703639358674     0.004348819839    12.000000000000
         C           -1.082836651014     0.061867358674     0.004395819839    12.000000000000
         H            1.706540348986    -1.422855741326    -0.295555180161     1.007825032230
         H            1.773797348986     1.387587358674     0.004316819839     1.007825032230
         H           -2.157544651014    -0.046785641326     0.004401819839     1.007825032230

  Basis Set: AUG-CC-PVTZ
    Blend: AUG-CC-PVTZ
  Basis Set: (AUG-CC-PVTZ AUX)
    Blend: AUG-CC-PVTZ-JKFIT
	 Reference Energy          =    -244.7145276270885006 [Eh]
	 Singles Energy            =      -0.0000000000000000 [Eh]
	 Same-Spin Energy          =      -0.2508785536559535 [Eh]
	 Opposite-Spin Energy      =      -0.7549960409665177 [Eh]
	 Correlation Energy        =      -1.0058745946224712 [Eh]
	 Total Energy              =    -245.7204022217109696 [Eh]

	 ================> DF-SCS-MP2 Energies <==================
	-----------------------------------------------------------
	 SCS Same-Spin Scale       =       0.3333333333333333 [-]
	 SCS Opposite-Spin Scale   =       1.2000000000000000 [-]
	 SCS Same-Spin Energy      =      -0.0836261845519845 [Eh]
	 SCS Opposite-Spin Energy  =      -0.9059952491598212 [Eh]
	 SCS Correlation Energy    =      -0.9896214337118057 [Eh]
	 SCS Total Energy          =    -245.7041490608003187 [Eh]
	-----------------------------------------------------------

  Dipole Moment: [D]
     X:     0.7381      Y:    -1.3630      Z:    -0.2667     Total:     1.5728

*** Psi4 exiting successfully. Buy a developer a beer!
