                               Psi4 1.3.2 release

  ==> Input File <==

--------------------------------------------------------------------------
#psi4
#
memory 32 gb

molecule  {
0 1
  O       -0.3732950    -1.0875170     0.0000230
  N       -0.3944950     1.1585740    -0.0000440
  C        0.9282580    -0.6566220     0.0000340
  C        0.9194130     0.7048960    -0.0000320
  C       -1.1010560     0.0631240     0.0000150
  H        1.6883170    -1.4215870     0.0000640
  H        1.7555782     1.3888463     0.0499360
  H       -2.1757640    -0.0455290     0.0000210
units angstrom
no_reorient  #important for SAPT in psi4, default
symmetry c1  #important for SAPT in psi4, default
}

set PROPERTIES_ORIGIN ["COM"]
properties('MP2/aug-cc-pvtz', properties = ['dipole'])
--------------------------------------------------------------------------

    Molecular point group: c1
  Charge       = 0
  Multiplicity = 1
  Basis Set: AUG-CC-PVTZ
    Blend: AUG-CC-PVTZ
  Basis Set: (AUG-CC-PVTZ AUX)
    Blend: AUG-CC-PVTZ-JKFIT

    Orbital Energies [Eh]
    ---------------------

    Doubly Occupied:

       1A    -20.647710     2A    -15.575532     3A    -11.342757
       4A    -11.301350     5A    -11.269459     6A     -1.488470
       7A     -1.236169     8A     -1.034806     9A     -0.843392
      10A     -0.824179    11A     -0.753777    12A     -0.660729
      13A     -0.630214    14A     -0.597347    15A     -0.582806
      16A     -0.469292    17A     -0.458321    18A     -0.347398

  @DF-RHF Final Energy:  -244.71974798210275

   => Energetics <=

    Nuclear Repulsion Energy =            162.6588762076552541
    One-Electron Energy =                -654.6298305050637509
    Two-Electron Energy =                 247.2512063153057795
    Total Energy =                       -244.7197479821027457
  Basis Set: (AUG-CC-PVTZ AUX)
    Blend: AUG-CC-PVTZ-RI
    Molecular point group: c1

    Geometry (in Angstrom), charge = 0, multiplicity = 1:

       Center              X                  Y                   Z               Mass
    ------------   -----------------  -----------------  -----------------  -----------------
         O           -0.355075595528    -1.088773851589    -0.000706746386    15.994914619570
         N           -0.376275595528     1.157317148411    -0.000773746386    14.003074004430
         C            0.946477404472    -0.657878851589    -0.000695746386    12.000000000000
         C            0.937632404472     0.703639148411    -0.000761746386    12.000000000000
         C           -1.082836595528     0.061867148411    -0.000714746386    12.000000000000
         H            1.706536404472    -1.422843851589    -0.000665746386     1.007825032230
         H            1.773797604472     1.387589448411     0.049206253614     1.007825032230
         H           -2.157544595528    -0.046785851589    -0.000708746386     1.007825032230

  Basis Set: AUG-CC-PVTZ
    Blend: AUG-CC-PVTZ
  Basis Set: (AUG-CC-PVTZ AUX)
    Blend: AUG-CC-PVTZ-JKFIT
	 Reference Energy          =    -244.7197479821027457 [Eh]
	 Singles Energy            =      -0.0000000000000000 [Eh]
	 Same-Spin Energy          =      -0.2506084601072748 [Eh]
	 Opposite-Spin Energy      =      -0.7543369734009876 [Eh]
	 Correlation Energy        =      -1.0049454335082624 [Eh]
	 Total Energy              =    -245.7246934156110001 [Eh]

	 ================> DF-SCS-MP2 Energies <==================
	-----------------------------------------------------------
	 SCS Same-Spin Scale       =       0.3333333333333333 [-]
	 SCS Opposite-Spin Scale   =       1.2000000000000000 [-]
	 SCS Same-Spin Energy      =      -0.0835361533690916 [Eh]
	 SCS Opposite-Spin Energy  =      -0.9052043680811851 [Eh]
	 SCS Correlation Energy    =      -0.9887405214502767 [Eh]
	 SCS Total Energy          =    -245.7084885035530135 [Eh]
	-----------------------------------------------------------

  Dipole Moment: [D]
     X:     0.7834      Y:    -1.4210      Z:     0.0389     Total:     1.6231

*** Psi4 exiting successfully. Buy a developer a beer!
