                               Psi4 1.4a3.dev225

  ==> Input File <==

--------------------------------------------------------------------------
#psi4
#
memory 32 gb

molecule  {
0 1
  N        1.0403590     1.7585850     0.4480670
  N       -1.4127300     0.3491150    -0.9675270
  C        1.4250477     0.4415976     0.1554783
  C        0.5527320    -0.6722560    -0.0106210
  C       -0.9186100    -0.5202420    -0.0565280
  C        2.8125800     0.1896900     0.0596670
  C        1.0833880    -1.9615060    -0.1891330
  C       -0.0603440     1.9659620     1.3769540
  C        0.9893550     2.6529850    -0.7051320
  C        3.3262790    -1.0852460    -0.1634600
  C        2.4571340    -2.1737070    -0.2736000
  C       -1.7443650    -1.2899030     0.7755260
  C       -3.1277320    -1.1648060     0.6664840
  C       -2.7501460     0.4600780    -1.0541460
  C       -3.6446450    -0.2696140    -0.2693330
  H        3.4771330     1.0370890     0.2130050
  H        0.3959040    -2.7961940    -0.3173570
  H       -1.0565290     1.9282880     0.9155270
  H        0.0644020     2.9550460     1.8334400
  H       -0.0079680     1.2163630     2.1705520
  H        0.9831900     3.6889080    -0.3483400
  H        0.1002970     2.4765200    -1.3270240
  H        1.8830790     2.5039500    -1.3156910
  H        4.4021620    -1.2332020    -0.2239060
  H        2.8456380    -3.1770500    -0.4305570
  H       -1.2975550    -1.9637590     1.5022950
  H       -3.7883330    -1.7471360     1.3046070
  H       -3.1157890     1.1676090    -1.7971140
  H       -4.7159820    -0.1358610    -0.3911380
units angstrom
no_reorient  #important for SAPT in psi4, default
symmetry c1  #important for SAPT in psi4, default
}

set PROPERTIES_ORIGIN ["COM"]
properties('MP2/aug-cc-pvtz', properties = ['dipole'])
--------------------------------------------------------------------------

    Molecular point group: c1
  Charge       = 0
  Multiplicity = 1
  Basis Set: AUG-CC-PVTZ
    Blend: AUG-CC-PVTZ
  Basis Set: (AUG-CC-PVTZ AUX)
    Blend: AUG-CC-PVTZ-JKFIT

    Orbital Energies [Eh]
    ---------------------

    Doubly Occupied:

       1A    -15.566234     2A    -15.546319     3A    -11.286114
       4A    -11.279493     5A    -11.269629     6A    -11.263776
       7A    -11.243977     8A    -11.242817     9A    -11.239779
      10A    -11.237369    11A    -11.236213    12A    -11.235315
      13A    -11.233767    14A    -11.228878    15A    -11.225177
      16A     -1.261271    17A     -1.235035    18A     -1.136054
      19A     -1.089255    20A     -1.060147    21A     -1.004803
      22A     -0.991621    23A     -0.945935    24A     -0.886151
      25A     -0.862546    26A     -0.854088    27A     -0.807798
      28A     -0.779816    29A     -0.717333    30A     -0.681453
      31A     -0.667961    32A     -0.659637    33A     -0.642092
      34A     -0.631463    35A     -0.613530    36A     -0.601596
      37A     -0.586783    38A     -0.582473    39A     -0.575819
      40A     -0.552177    41A     -0.542056    42A     -0.526616
      43A     -0.523971    44A     -0.506481    45A     -0.499307
      46A     -0.488550    47A     -0.487339    48A     -0.419760
      49A     -0.386993    50A     -0.371144    51A     -0.359415
      52A     -0.318637    53A     -0.301827

  @DF-RHF Final Energy:  -609.51106824134615

   => Energetics <=

    Nuclear Repulsion Energy =            950.4248347906982417
    One-Electron Energy =               -2712.8842283804774524
    Two-Electron Energy =                1152.9483253484331726
    Total Energy =                       -609.5110682413460381
  Basis Set: (AUG-CC-PVTZ AUX)
    Blend: AUG-CC-PVTZ-RI
    Molecular point group: c1

    Geometry (in Angstrom), charge = 0, multiplicity = 1:

       Center              X                  Y                   Z               Mass
    ------------   -----------------  -----------------  -----------------  -----------------
         N            1.041546577577     1.787065479365     0.456778418320    14.003074004430
         N           -1.411542422423     0.377595479365    -0.958815581680    14.003074004430
         C            1.426235277577     0.470078079365     0.164189718320    12.000000000000
         C            0.553919577577    -0.643775520635    -0.001909581680    12.000000000000
         C           -0.917422422423    -0.491761520635    -0.047816581680    12.000000000000
         C            2.813767577577     0.218170479365     0.068378418320    12.000000000000
         C            1.084575577577    -1.933025520635    -0.180421581680    12.000000000000
         C           -0.059156422423     1.994442479365     1.385665418320    12.000000000000
         C            0.990542577577     2.681465479365    -0.696420581680    12.000000000000
         C            3.327466577577    -1.056765520635    -0.154748581680    12.000000000000
         C            2.458321577577    -2.145226520635    -0.264888581680    12.000000000000
         C           -1.743177422423    -1.261422520635     0.784237418320    12.000000000000
         C           -3.126544422423    -1.136325520635     0.675195418320    12.000000000000
         C           -2.748958422423     0.488558479365    -1.045434581680    12.000000000000
         C           -3.643457422423    -0.241133520635    -0.260621581680    12.000000000000
         H            3.478320577577     1.065569479365     0.221716418320     1.007825032230
         H            0.397091577577    -2.767713520635    -0.308645581680     1.007825032230
         H           -1.055341422423     1.956768479365     0.924238418320     1.007825032230
         H            0.065589577577     2.983526479365     1.842151418320     1.007825032230
         H           -0.006780422423     1.244843479365     2.179263418320     1.007825032230
         H            0.984377577577     3.717388479365    -0.339628581680     1.007825032230
         H            0.101484577577     2.505000479365    -1.318312581680     1.007825032230
         H            1.884266577577     2.532430479365    -1.306979581680     1.007825032230
         H            4.403349577577    -1.204721520635    -0.215194581680     1.007825032230
         H            2.846825577577    -3.148569520635    -0.421845581680     1.007825032230
         H           -1.296367422423    -1.935278520635     1.511006418320     1.007825032230
         H           -3.787145422423    -1.718655520635     1.313318418320     1.007825032230
         H           -3.114601422423     1.196089479365    -1.788402581680     1.007825032230
         H           -4.714794422423    -0.107380520635    -0.382426581680     1.007825032230

  Basis Set: AUG-CC-PVTZ
    Blend: AUG-CC-PVTZ
  Basis Set: (AUG-CC-PVTZ AUX)
    Blend: AUG-CC-PVTZ-JKFIT
	 Reference Energy          =    -609.5110682413461518 [Eh]
	 Singles Energy            =      -0.0000000000000000 [Eh]
	 Same-Spin Energy          =      -0.6836205005928876 [Eh]
	 Opposite-Spin Energy      =      -2.1358062114752876 [Eh]
	 Correlation Energy        =      -2.8194267120681751 [Eh]
	 Total Energy              =    -612.3304949534143589 [Eh]

	 ================> DF-SCS-MP2 Energies <==================
	-----------------------------------------------------------
	 SCS Same-Spin Scale       =       0.3333333333333333 [-]
	 SCS Opposite-Spin Scale   =       1.2000000000000000 [-]
	 SCS Same-Spin Energy      =      -0.2278735001976292 [Eh]
	 SCS Opposite-Spin Energy  =      -2.5629674537703449 [Eh]
	 SCS Correlation Energy    =      -2.7908409539679742 [Eh]
	 SCS Total Energy          =    -612.3019091953141242 [Eh]
	-----------------------------------------------------------

  Dipole Moment: [D]
     X:    -1.9719      Y:    -0.6760      Z:     0.8670     Total:     2.2576

*** Psi4 exiting successfully. Buy a developer a beer!
