                               Psi4 1.3.2 release

  ==> Input File <==

--------------------------------------------------------------------------
#psi4
#
memory 32 gb

molecule  {
0 1
  N        0.9714217     1.7487089     0.3741360
  N       -1.4127300     0.3491150    -0.9675270
  C        1.4305320     0.4228220     0.1513070
  C        0.5527320    -0.6722560    -0.0106210
  C       -0.9186100    -0.5202420    -0.0565280
  C        2.8125800     0.1896900     0.0596670
  C        1.0833880    -1.9615060    -0.1891330
  C       -0.0603440     1.9659620     1.3769540
  C        0.9893550     2.6529850    -0.7051320
  C        3.3262790    -1.0852460    -0.1634600
  C        2.4571340    -2.1737070    -0.2736000
  C       -1.7443650    -1.2899030     0.7755260
  C       -3.1277320    -1.1648060     0.6664840
  C       -2.7501460     0.4600780    -1.0541460
  C       -3.6446450    -0.2696140    -0.2693330
  H        3.4771330     1.0370890     0.2130050
  H        0.3959040    -2.7961940    -0.3173570
  H       -1.0565290     1.9282880     0.9155270
  H        0.0644020     2.9550460     1.8334400
  H       -0.0079680     1.2163630     2.1705520
  H        0.9831900     3.6889080    -0.3483400
  H        0.1002970     2.4765200    -1.3270240
  H        1.8830790     2.5039500    -1.3156910
  H        4.4021620    -1.2332020    -0.2239060
  H        2.8456380    -3.1770500    -0.4305570
  H       -1.2975550    -1.9637590     1.5022950
  H       -3.7883330    -1.7471360     1.3046070
  H       -3.1157890     1.1676090    -1.7971140
  H       -4.7159820    -0.1358610    -0.3911380
units angstrom
no_reorient  #important for SAPT in psi4, default
symmetry c1  #important for SAPT in psi4, default
}

set PROPERTIES_ORIGIN ["COM"]
properties('MP2/aug-cc-pvtz', properties = ['dipole'])
--------------------------------------------------------------------------

    Molecular point group: c1
  Charge       = 0
  Multiplicity = 1
  Basis Set: AUG-CC-PVTZ
    Blend: AUG-CC-PVTZ
  Basis Set: (AUG-CC-PVTZ AUX)
    Blend: AUG-CC-PVTZ-JKFIT

    Orbital Energies [Eh]
    ---------------------

    Doubly Occupied:

       1A    -15.565788     2A    -15.537854     3A    -11.286137
       4A    -11.278950     5A    -11.269782     6A    -11.263446
       7A    -11.243577     8A    -11.242730     9A    -11.238453
      10A    -11.237856    11A    -11.236415    12A    -11.235071
      13A    -11.229999    14A    -11.229734    15A    -11.226536
      16A     -1.261128    17A     -1.235145    18A     -1.139224
      19A     -1.088882    20A     -1.060658    21A     -1.006934
      22A     -0.993246    23A     -0.949642    24A     -0.882923
      25A     -0.862632    26A     -0.853067    27A     -0.808601
      28A     -0.779697    29A     -0.717806    30A     -0.682647
      31A     -0.668342    32A     -0.659322    33A     -0.644111
      34A     -0.631304    35A     -0.615799    36A     -0.602499
      37A     -0.588582    38A     -0.584751    39A     -0.576198
      40A     -0.551563    41A     -0.541794    42A     -0.526642
      43A     -0.522843    44A     -0.510959    45A     -0.496660
      46A     -0.492083    47A     -0.489918    48A     -0.419301
      49A     -0.385795    50A     -0.364806    51A     -0.357538
      52A     -0.319088    53A     -0.299711

  @DF-RHF Final Energy:  -609.50947028116934

   => Energetics <=

    Nuclear Repulsion Energy =            951.7899703461558829
    One-Electron Energy =               -2715.6105368904673014
    Two-Electron Energy =                1154.3110962631421899
    Total Energy =                       -609.5094702811693423
  Basis Set: (AUG-CC-PVTZ AUX)
    Blend: AUG-CC-PVTZ-RI
    Molecular point group: c1

    Geometry (in Angstrom), charge = 0, multiplicity = 1:

       Center              X                  Y                   Z               Mass
    ------------   -----------------  -----------------  -----------------  -----------------
         N            0.977149667463     1.779024685512     0.388325615518    14.003074004430
         N           -1.407002032537     0.379430785512    -0.953337384482    14.003074004430
         C            1.436259967463     0.453137785512     0.165496615518    12.000000000000
         C            0.558459967463    -0.641940214488     0.003568615518    12.000000000000
         C           -0.912882032537    -0.489926214488    -0.042338384482    12.000000000000
         C            2.818307967463     0.220005785512     0.073856615518    12.000000000000
         C            1.089115967463    -1.931190214488    -0.174943384482    12.000000000000
         C           -0.054616032537     1.996277785512     1.391143615518    12.000000000000
         C            0.995082967463     2.683300785512    -0.690942384482    12.000000000000
         C            3.332006967463    -1.054930214488    -0.149270384482    12.000000000000
         C            2.462861967463    -2.143391214488    -0.259410384482    12.000000000000
         C           -1.738637032537    -1.259587214488     0.789715615518    12.000000000000
         C           -3.122004032537    -1.134490214488     0.680673615518    12.000000000000
         C           -2.744418032537     0.490393785512    -1.039956384482    12.000000000000
         C           -3.638917032537    -0.239298214488    -0.255143384482    12.000000000000
         H            3.482860967463     1.067404785512     0.227194615518     1.007825032230
         H            0.401631967463    -2.765878214488    -0.303167384482     1.007825032230
         H           -1.050801032537     1.958603785512     0.929716615518     1.007825032230
         H            0.070129967463     2.985361785512     1.847629615518     1.007825032230
         H           -0.002240032537     1.246678785512     2.184741615518     1.007825032230
         H            0.988917967463     3.719223785512    -0.334150384482     1.007825032230
         H            0.106024967463     2.506835785512    -1.312834384482     1.007825032230
         H            1.888806967463     2.534265785512    -1.301501384482     1.007825032230
         H            4.407889967463    -1.202886214488    -0.209716384482     1.007825032230
         H            2.851365967463    -3.146734214488    -0.416367384482     1.007825032230
         H           -1.291827032537    -1.933443214488     1.516484615518     1.007825032230
         H           -3.782605032537    -1.716820214488     1.318796615518     1.007825032230
         H           -3.110061032537     1.197924785512    -1.782924384482     1.007825032230
         H           -4.710254032537    -0.105545214488    -0.376948384482     1.007825032230

  Basis Set: AUG-CC-PVTZ
    Blend: AUG-CC-PVTZ
  Basis Set: (AUG-CC-PVTZ AUX)
    Blend: AUG-CC-PVTZ-JKFIT
	 Reference Energy          =    -609.5094702811693423 [Eh]
	 Singles Energy            =      -0.0000000000000000 [Eh]
	 Same-Spin Energy          =      -0.6835526964108771 [Eh]
	 Opposite-Spin Energy      =      -2.1349548651499255 [Eh]
	 Correlation Energy        =      -2.8185075615608026 [Eh]
	 Total Energy              =    -612.3279778427300926 [Eh]

	 ================> DF-SCS-MP2 Energies <==================
	-----------------------------------------------------------
	 SCS Same-Spin Scale       =       0.3333333333333333 [-]
	 SCS Opposite-Spin Scale   =       1.2000000000000000 [-]
	 SCS Same-Spin Energy      =      -0.2278508988036257 [Eh]
	 SCS Opposite-Spin Energy  =      -2.5619458381799105 [Eh]
	 SCS Correlation Energy    =      -2.7897967369835364 [Eh]
	 SCS Total Energy          =    -612.2992670181529320 [Eh]
	-----------------------------------------------------------

  Dipole Moment: [D]
     X:    -1.7741      Y:    -0.7628      Z:     1.0268     Total:     2.1872

*** Psi4 exiting successfully. Buy a developer a beer!
