                               Psi4 1.3.2 release

  ==> Input File <==

--------------------------------------------------------------------------
#psi4
#
memory 32 gb

molecule  {
0 1
  N        1.0403590     1.7585850     0.4480670
  N       -1.4127300     0.3491150    -0.9675270
  C        1.4305320     0.4228220     0.1513070
  C        0.5527320    -0.6722560    -0.0106210
  C       -0.9186100    -0.5202420    -0.0565280
  C        2.8125800     0.1896900     0.0596670
  C        1.0833880    -1.9615060    -0.1891330
  C       -0.0692860     1.9843602     1.3619034
  C        0.9893550     2.6529850    -0.7051320
  C        3.3262790    -1.0852460    -0.1634600
  C        2.4571340    -2.1737070    -0.2736000
  C       -1.7443650    -1.2899030     0.7755260
  C       -3.1277320    -1.1648060     0.6664840
  C       -2.7501460     0.4600780    -1.0541460
  C       -3.6446450    -0.2696140    -0.2693330
  H        3.4771330     1.0370890     0.2130050
  H        0.3959040    -2.7961940    -0.3173570
  H       -1.0565290     1.9282880     0.9155270
  H        0.0644020     2.9550460     1.8334400
  H       -0.0079680     1.2163630     2.1705520
  H        0.9831900     3.6889080    -0.3483400
  H        0.1002970     2.4765200    -1.3270240
  H        1.8830790     2.5039500    -1.3156910
  H        4.4021620    -1.2332020    -0.2239060
  H        2.8456380    -3.1770500    -0.4305570
  H       -1.2975550    -1.9637590     1.5022950
  H       -3.7883330    -1.7471360     1.3046070
  H       -3.1157890     1.1676090    -1.7971140
  H       -4.7159820    -0.1358610    -0.3911380
units angstrom
no_reorient  #important for SAPT in psi4, default
symmetry c1  #important for SAPT in psi4, default
}

set PROPERTIES_ORIGIN ["COM"]
properties('MP2/aug-cc-pvtz', properties = ['dipole'])
--------------------------------------------------------------------------

    Molecular point group: c1
  Charge       = 0
  Multiplicity = 1
  Basis Set: AUG-CC-PVTZ
    Blend: AUG-CC-PVTZ
  Basis Set: (AUG-CC-PVTZ AUX)
    Blend: AUG-CC-PVTZ-JKFIT

    Orbital Energies [Eh]
    ---------------------

    Doubly Occupied:

       1A    -15.566643     2A    -15.545500     3A    -11.286827
       4A    -11.279727     5A    -11.268627     6A    -11.264043
       7A    -11.244288     8A    -11.243259     9A    -11.239590
      10A    -11.236679    11A    -11.236277    12A    -11.234308
      13A    -11.233524    14A    -11.229511    15A    -11.225319
      16A     -1.261208    17A     -1.230261    18A     -1.137929
      19A     -1.089568    20A     -1.060946    21A     -1.006189
      22A     -0.992934    23A     -0.943261    24A     -0.884354
      25A     -0.862957    26A     -0.853454    27A     -0.809670
      28A     -0.780250    29A     -0.718071    30A     -0.680979
      31A     -0.668389    32A     -0.658803    33A     -0.641766
      34A     -0.630724    35A     -0.612259    36A     -0.601881
      37A     -0.588084    38A     -0.582781    39A     -0.576483
      40A     -0.552325    41A     -0.541994    42A     -0.526733
      43A     -0.524907    44A     -0.501640    45A     -0.497005
      46A     -0.489797    47A     -0.487086    48A     -0.420217
      49A     -0.387107    50A     -0.371064    51A     -0.360136
      52A     -0.319382    53A     -0.304249

  @DF-RHF Final Energy:  -609.51123252353580

   => Energetics <=

    Nuclear Repulsion Energy =            950.3759700903987095
    One-Electron Energy =               -2712.7924832447215522
    Two-Electron Energy =                1152.9052806307870469
    Total Energy =                       -609.5112325235356820
  Basis Set: (AUG-CC-PVTZ AUX)
    Blend: AUG-CC-PVTZ-RI
    Molecular point group: c1

    Geometry (in Angstrom), charge = 0, multiplicity = 1:

       Center              X                  Y                   Z               Mass
    ------------   -----------------  -----------------  -----------------  -----------------
         N            1.041756012773     1.787088338735     0.457942701624    14.003074004430
         N           -1.411332987227     0.377618338735    -0.957651298376    14.003074004430
         C            1.431929012773     0.451325338735     0.161182701624    12.000000000000
         C            0.554129012773    -0.643752661265    -0.000745298376    12.000000000000
         C           -0.917212987227    -0.491738661265    -0.046652298376    12.000000000000
         C            2.813977012773     0.218193338735     0.069542701624    12.000000000000
         C            1.084785012773    -1.933002661265    -0.179257298376    12.000000000000
         C           -0.067888987227     2.012863538735     1.371779101624    12.000000000000
         C            0.990752012773     2.681488338735    -0.695256298376    12.000000000000
         C            3.327676012773    -1.056742661265    -0.153584298376    12.000000000000
         C            2.458531012773    -2.145203661265    -0.263724298376    12.000000000000
         C           -1.742967987227    -1.261399661265     0.785401701624    12.000000000000
         C           -3.126334987227    -1.136302661265     0.676359701624    12.000000000000
         C           -2.748748987227     0.488581338735    -1.044270298376    12.000000000000
         C           -3.643247987227    -0.241110661265    -0.259457298376    12.000000000000
         H            3.478530012773     1.065592338735     0.222880701624     1.007825032230
         H            0.397301012773    -2.767690661265    -0.307481298376     1.007825032230
         H           -1.055131987227     1.956791338735     0.925402701624     1.007825032230
         H            0.065799012773     2.983549338735     1.843315701624     1.007825032230
         H           -0.006570987227     1.244866338735     2.180427701624     1.007825032230
         H            0.984587012773     3.717411338735    -0.338464298376     1.007825032230
         H            0.101694012773     2.505023338735    -1.317148298376     1.007825032230
         H            1.884476012773     2.532453338735    -1.305815298376     1.007825032230
         H            4.403559012773    -1.204698661265    -0.214030298376     1.007825032230
         H            2.847035012773    -3.148546661265    -0.420681298376     1.007825032230
         H           -1.296157987227    -1.935255661265     1.512170701624     1.007825032230
         H           -3.786935987227    -1.718632661265     1.314482701624     1.007825032230
         H           -3.114391987227     1.196112338735    -1.787238298376     1.007825032230
         H           -4.714584987227    -0.107357661265    -0.381262298376     1.007825032230

  Basis Set: AUG-CC-PVTZ
    Blend: AUG-CC-PVTZ
  Basis Set: (AUG-CC-PVTZ AUX)
    Blend: AUG-CC-PVTZ-JKFIT
	 Reference Energy          =    -609.5112325235357957 [Eh]
	 Singles Energy            =      -0.0000000000000000 [Eh]
	 Same-Spin Energy          =      -0.6833749151709716 [Eh]
	 Opposite-Spin Energy      =      -2.1355845137799765 [Eh]
	 Correlation Energy        =      -2.8189594289509481 [Eh]
	 Total Energy              =    -612.3301919524867571 [Eh]

	 ================> DF-SCS-MP2 Energies <==================
	-----------------------------------------------------------
	 SCS Same-Spin Scale       =       0.3333333333333333 [-]
	 SCS Opposite-Spin Scale   =       1.2000000000000000 [-]
	 SCS Same-Spin Energy      =      -0.2277916383903238 [Eh]
	 SCS Opposite-Spin Energy  =      -2.5627014165359716 [Eh]
	 SCS Correlation Energy    =      -2.7904930549262956 [Eh]
	 SCS Total Energy          =    -612.3017255784620829 [Eh]
	-----------------------------------------------------------

  Dipole Moment: [D]
     X:    -1.9608      Y:    -0.7670      Z:     0.8430     Total:     2.2679

*** Psi4 exiting successfully. Buy a developer a beer!
