                               Psi4 1.3.2 release

  ==> Input File <==

--------------------------------------------------------------------------
#psi4
#
memory 32 gb

molecule  {
0 1
  N        1.0403590     1.7585850     0.4480670
  N       -1.4127300     0.3491150    -0.9675270
  C        1.4031105     0.5167000     0.1721634
  C        0.5527320    -0.6722560    -0.0106210
  C       -0.9186100    -0.5202420    -0.0565280
  C        2.8125800     0.1896900     0.0596670
  C        1.0833880    -1.9615060    -0.1891330
  C       -0.0603440     1.9659620     1.3769540
  C        0.9893550     2.6529850    -0.7051320
  C        3.3262790    -1.0852460    -0.1634600
  C        2.4571340    -2.1737070    -0.2736000
  C       -1.7443650    -1.2899030     0.7755260
  C       -3.1277320    -1.1648060     0.6664840
  C       -2.7501460     0.4600780    -1.0541460
  C       -3.6446450    -0.2696140    -0.2693330
  H        3.4771330     1.0370890     0.2130050
  H        0.3959040    -2.7961940    -0.3173570
  H       -1.0565290     1.9282880     0.9155270
  H        0.0644020     2.9550460     1.8334400
  H       -0.0079680     1.2163630     2.1705520
  H        0.9831900     3.6889080    -0.3483400
  H        0.1002970     2.4765200    -1.3270240
  H        1.8830790     2.5039500    -1.3156910
  H        4.4021620    -1.2332020    -0.2239060
  H        2.8456380    -3.1770500    -0.4305570
  H       -1.2975550    -1.9637590     1.5022950
  H       -3.7883330    -1.7471360     1.3046070
  H       -3.1157890     1.1676090    -1.7971140
  H       -4.7159820    -0.1358610    -0.3911380
units angstrom
no_reorient  #important for SAPT in psi4, default
symmetry c1  #important for SAPT in psi4, default
}

set PROPERTIES_ORIGIN ["COM"]
properties('MP2/aug-cc-pvtz', properties = ['dipole'])
--------------------------------------------------------------------------

    Molecular point group: c1
  Charge       = 0
  Multiplicity = 1
  Basis Set: AUG-CC-PVTZ
    Blend: AUG-CC-PVTZ
  Basis Set: (AUG-CC-PVTZ AUX)
    Blend: AUG-CC-PVTZ-JKFIT

    Orbital Energies [Eh]
    ---------------------

    Doubly Occupied:

       1A    -15.565126     2A    -15.550643     3A    -11.283636
       4A    -11.278904     5A    -11.275598     6A    -11.262887
       7A    -11.243016     8A    -11.242718     9A    -11.241413
      10A    -11.241220    11A    -11.240269    12A    -11.234258
      13A    -11.231731    14A    -11.225804    15A    -11.224846
      16A     -1.268932    17A     -1.252293    18A     -1.128903
      19A     -1.088295    20A     -1.057243    21A     -1.000809
      22A     -0.987226    23A     -0.953204    24A     -0.897485
      25A     -0.861164    26A     -0.855674    27A     -0.800684
      28A     -0.777861    29A     -0.714537    30A     -0.684529
      31A     -0.667944    32A     -0.662605    33A     -0.645423
      34A     -0.632978    35A     -0.623285    36A     -0.599086
      37A     -0.584230    38A     -0.580333    39A     -0.573937
      40A     -0.553781    41A     -0.544033    42A     -0.531019
      43A     -0.525589    44A     -0.512296    45A     -0.503912
      46A     -0.484244    47A     -0.479906    48A     -0.418480
      49A     -0.387387    50A     -0.374341    51A     -0.357138
      52A     -0.316212    53A     -0.291563

  @DF-RHF Final Energy:  -609.49630540290264

   => Energetics <=

    Nuclear Repulsion Energy =            950.4987134475195489
    One-Electron Energy =               -2712.9487792153818191
    Two-Electron Energy =                1152.9537603649596349
    Total Energy =                       -609.4963054029026353
  Basis Set: (AUG-CC-PVTZ AUX)
    Blend: AUG-CC-PVTZ-RI
    Molecular point group: c1

    Geometry (in Angstrom), charge = 0, multiplicity = 1:

       Center              X                  Y                   Z               Mass
    ------------   -----------------  -----------------  -----------------  -----------------
         N            1.042875328414     1.782516476904     0.455767790684    14.003074004430
         N           -1.410213671586     0.373046476904    -0.959826209316    14.003074004430
         C            1.405626828414     0.540631476904     0.179864190684    12.000000000000
         C            0.555248328414    -0.648324523096    -0.002920209316    12.000000000000
         C           -0.916093671586    -0.496310523096    -0.048827209316    12.000000000000
         C            2.815096328414     0.213621476904     0.067367790684    12.000000000000
         C            1.085904328414    -1.937574523096    -0.181432209316    12.000000000000
         C           -0.057827671586     1.989893476904     1.384654790684    12.000000000000
         C            0.991871328414     2.676916476904    -0.697431209316    12.000000000000
         C            3.328795328414    -1.061314523096    -0.155759209316    12.000000000000
         C            2.459650328414    -2.149775523096    -0.265899209316    12.000000000000
         C           -1.741848671586    -1.265971523096     0.783226790684    12.000000000000
         C           -3.125215671586    -1.140874523096     0.674184790684    12.000000000000
         C           -2.747629671586     0.484009476904    -1.046445209316    12.000000000000
         C           -3.642128671586    -0.245682523096    -0.261632209316    12.000000000000
         H            3.479649328414     1.061020476904     0.220705790684     1.007825032230
         H            0.398420328414    -2.772262523096    -0.309656209316     1.007825032230
         H           -1.054012671586     1.952219476904     0.923227790684     1.007825032230
         H            0.066918328414     2.978977476904     1.841140790684     1.007825032230
         H           -0.005451671586     1.240294476904     2.178252790684     1.007825032230
         H            0.985706328414     3.712839476904    -0.340639209316     1.007825032230
         H            0.102813328414     2.500451476904    -1.319323209316     1.007825032230
         H            1.885595328414     2.527881476904    -1.307990209316     1.007825032230
         H            4.404678328414    -1.209270523096    -0.216205209316     1.007825032230
         H            2.848154328414    -3.153118523096    -0.422856209316     1.007825032230
         H           -1.295038671586    -1.939827523096     1.509995790684     1.007825032230
         H           -3.785816671586    -1.723204523096     1.312307790684     1.007825032230
         H           -3.113272671586     1.191540476904    -1.789413209316     1.007825032230
         H           -4.713465671586    -0.111929523096    -0.383437209316     1.007825032230

  Basis Set: AUG-CC-PVTZ
    Blend: AUG-CC-PVTZ
  Basis Set: (AUG-CC-PVTZ AUX)
    Blend: AUG-CC-PVTZ-JKFIT
	 Reference Energy          =    -609.4963054029026353 [Eh]
	 Singles Energy            =      -0.0000000000000000 [Eh]
	 Same-Spin Energy          =      -0.6851314106001319 [Eh]
	 Opposite-Spin Energy      =      -2.1377267933257849 [Eh]
	 Correlation Energy        =      -2.8228582039259167 [Eh]
	 Total Energy              =    -612.3191636068285106 [Eh]

	 ================> DF-SCS-MP2 Energies <==================
	-----------------------------------------------------------
	 SCS Same-Spin Scale       =       0.3333333333333333 [-]
	 SCS Opposite-Spin Scale   =       1.2000000000000000 [-]
	 SCS Same-Spin Energy      =      -0.2283771368667106 [Eh]
	 SCS Opposite-Spin Energy  =      -2.5652721519909418 [Eh]
	 SCS Correlation Energy    =      -2.7936492888576523 [Eh]
	 SCS Total Energy          =    -612.2899546917602720 [Eh]
	-----------------------------------------------------------

  Dipole Moment: [D]
     X:    -2.0844      Y:    -0.2543      Z:     0.9450     Total:     2.3027

*** Psi4 exiting successfully. Buy a developer a beer!
