                               Psi4 1.3.2 release

  ==> Input File <==

--------------------------------------------------------------------------
#psi4
#
memory 32 gb

molecule  {
0 1
  N        1.0403590     1.7585850     0.4480670
  N       -1.4127300     0.3491150    -0.9675270
  C        1.4305320     0.4228220     0.1513070
  C        0.5527320    -0.6722560    -0.0106210
  C       -0.9186100    -0.5202420    -0.0565280
  C        2.8125800     0.1896900     0.0596670
  C        1.0833880    -1.9615060    -0.1891330
  C       -0.0603440     1.9659620     1.3769540
  C        0.9893550     2.6529850    -0.7051320
  C        3.3262790    -1.0852460    -0.1634600
  C        2.4571340    -2.1737070    -0.2736000
  C       -1.7443650    -1.2899030     0.7755260
  C       -3.1277320    -1.1648060     0.6664840
  C       -2.7501460     0.4600780    -1.0541460
  C       -3.6446450    -0.2696140    -0.2693330
  H        3.4771330     1.0370890     0.2130050
  H        0.3959040    -2.7961940    -0.3173570
  H       -1.0565290     1.9282880     0.9155270
  H        0.0644020     2.9550460     1.8334400
  H       -0.0079680     1.2163630     2.1705520
  H        0.9831900     3.6889080    -0.3483400
  H        0.1002970     2.4765200    -1.3270240
  H        1.8830790     2.5039500    -1.3156910
  H        4.4021620    -1.2332020    -0.2239060
  H        2.8456380    -3.1770500    -0.4305570
  H       -1.2975550    -1.9637590     1.5022950
  H       -3.7883330    -1.7471360     1.3046070
  H       -3.1157890     1.1676090    -1.7971140
  H       -4.7159820    -0.1358610    -0.3911380
units angstrom
no_reorient  #important for SAPT in psi4, default
symmetry c1  #important for SAPT in psi4, default
}

set PROPERTIES_ORIGIN ["COM"]
properties('MP2/aug-cc-pvtz', properties = ['dipole'])
--------------------------------------------------------------------------

    Molecular point group: c1
  Charge       = 0
  Multiplicity = 1
  Basis Set: AUG-CC-PVTZ
    Blend: AUG-CC-PVTZ
  Basis Set: (AUG-CC-PVTZ AUX)
    Blend: AUG-CC-PVTZ-JKFIT

    Orbital Energies [Eh]
    ---------------------

    Doubly Occupied:

       1A    -15.566492     2A    -15.545313     3A    -11.286722
       4A    -11.279634     5A    -11.268263     6A    -11.263984
       7A    -11.244202     8A    -11.243190     9A    -11.239508
      10A    -11.236646    11A    -11.236191    12A    -11.234231
      13A    -11.233995    14A    -11.229465    15A    -11.225157
      16A     -1.261075    17A     -1.230133    18A     -1.137759
      19A     -1.089481    20A     -1.060876    21A     -1.005843
      22A     -0.992794    23A     -0.944338    24A     -0.884022
      25A     -0.862865    26A     -0.853078    27A     -0.809607
      28A     -0.780166    29A     -0.718014    30A     -0.681179
      31A     -0.668223    32A     -0.658726    33A     -0.641558
      34A     -0.630773    35A     -0.611595    36A     -0.602100
      37A     -0.588012    38A     -0.582414    39A     -0.576026
      40A     -0.551916    41A     -0.541816    42A     -0.525883
      43A     -0.523558    44A     -0.505378    45A     -0.498443
      46A     -0.490404    47A     -0.486975    48A     -0.420087
      49A     -0.386984    50A     -0.370106    51A     -0.359866
      52A     -0.319180    53A     -0.304078

  @DF-RHF Final Energy:  -609.51200525140212

   => Energetics <=

    Nuclear Repulsion Energy =            950.4266986057656368
    One-Electron Energy =               -2712.9007578124987958
    Two-Electron Energy =                1152.9620539553311573
    Total Energy =                       -609.5120052514021154
  Basis Set: (AUG-CC-PVTZ AUX)
    Blend: AUG-CC-PVTZ-RI
    Molecular point group: c1

    Geometry (in Angstrom), charge = 0, multiplicity = 1:

       Center              X                  Y                   Z               Mass
    ------------   -----------------  -----------------  -----------------  -----------------
         N            1.041214389868     1.788202729981     0.457031076743    14.003074004430
         N           -1.411874610132     0.378732729981    -0.958562923257    14.003074004430
         C            1.431387389868     0.452439729981     0.160271076743    12.000000000000
         C            0.553587389868    -0.642638270019    -0.001656923257    12.000000000000
         C           -0.917754610132    -0.490624270019    -0.047563923257    12.000000000000
         C            2.813435389868     0.219307729981     0.068631076743    12.000000000000
         C            1.084243389868    -1.931888270019    -0.180168923257    12.000000000000
         C           -0.059488610132     1.995579729981     1.385918076743    12.000000000000
         C            0.990210389868     2.682602729981    -0.696167923257    12.000000000000
         C            3.327134389868    -1.055628270019    -0.154495923257    12.000000000000
         C            2.457989389868    -2.144089270019    -0.264635923257    12.000000000000
         C           -1.743509610132    -1.260285270019     0.784490076743    12.000000000000
         C           -3.126876610132    -1.135188270019     0.675448076743    12.000000000000
         C           -2.749290610132     0.489695729981    -1.045181923257    12.000000000000
         C           -3.643789610132    -0.239996270019    -0.260368923257    12.000000000000
         H            3.477988389868     1.066706729981     0.221969076743     1.007825032230
         H            0.396759389868    -2.766576270019    -0.308392923257     1.007825032230
         H           -1.055673610132     1.957905729981     0.924491076743     1.007825032230
         H            0.065257389868     2.984663729981     1.842404076743     1.007825032230
         H           -0.007112610132     1.245980729981     2.179516076743     1.007825032230
         H            0.984045389868     3.718525729981    -0.339375923257     1.007825032230
         H            0.101152389868     2.506137729981    -1.318059923257     1.007825032230
         H            1.883934389868     2.533567729981    -1.306726923257     1.007825032230
         H            4.403017389868    -1.203584270019    -0.214941923257     1.007825032230
         H            2.846493389868    -3.147432270019    -0.421592923257     1.007825032230
         H           -1.296699610132    -1.934141270019     1.511259076743     1.007825032230
         H           -3.787477610132    -1.717518270019     1.313571076743     1.007825032230
         H           -3.114933610132     1.197226729981    -1.788149923257     1.007825032230
         H           -4.715126610132    -0.106243270019    -0.382173923257     1.007825032230

  Basis Set: AUG-CC-PVTZ
    Blend: AUG-CC-PVTZ
  Basis Set: (AUG-CC-PVTZ AUX)
    Blend: AUG-CC-PVTZ-JKFIT
	 Reference Energy          =    -609.5120052514021154 [Eh]
	 Singles Energy            =      -0.0000000000000000 [Eh]
	 Same-Spin Energy          =      -0.6833620438474015 [Eh]
	 Opposite-Spin Energy      =      -2.1355145005079690 [Eh]
	 Correlation Energy        =      -2.8188765443553705 [Eh]
	 Total Energy              =    -612.3308817957574774 [Eh]

	 ================> DF-SCS-MP2 Energies <==================
	-----------------------------------------------------------
	 SCS Same-Spin Scale       =       0.3333333333333333 [-]
	 SCS Opposite-Spin Scale   =       1.2000000000000000 [-]
	 SCS Same-Spin Energy      =      -0.2277873479491338 [Eh]
	 SCS Opposite-Spin Energy  =      -2.5626174006095628 [Eh]
	 SCS Correlation Energy    =      -2.7904047485586965 [Eh]
	 SCS Total Energy          =    -612.3024099999607870 [Eh]
	-----------------------------------------------------------

  Dipole Moment: [D]
     X:    -1.9480      Y:    -0.7698      Z:     0.8497     Total:     2.2604

*** Psi4 exiting successfully. Buy a developer a beer!
