                               Psi4 1.4a3.dev225

  ==> Input File <==

--------------------------------------------------------------------------
#psi4
#
memory 32 gb

molecule  {
0 1
  N        1.0403590     1.7585850     0.4480670
  N       -1.4127300     0.3491150    -0.9675270
  C        1.4442428     0.3758830     0.1408788
  C        0.5527320    -0.6722560    -0.0106210
  C       -0.9186100    -0.5202420    -0.0565280
  C        2.8125800     0.1896900     0.0596670
  C        1.0833880    -1.9615060    -0.1891330
  C       -0.0603440     1.9659620     1.3769540
  C        0.9893550     2.6529850    -0.7051320
  C        3.3262790    -1.0852460    -0.1634600
  C        2.4571340    -2.1737070    -0.2736000
  C       -1.7443650    -1.2899030     0.7755260
  C       -3.1277320    -1.1648060     0.6664840
  C       -2.7501460     0.4600780    -1.0541460
  C       -3.6446450    -0.2696140    -0.2693330
  H        3.4771330     1.0370890     0.2130050
  H        0.3959040    -2.7961940    -0.3173570
  H       -1.0565290     1.9282880     0.9155270
  H        0.0644020     2.9550460     1.8334400
  H       -0.0079680     1.2163630     2.1705520
  H        0.9831900     3.6889080    -0.3483400
  H        0.1002970     2.4765200    -1.3270240
  H        1.8830790     2.5039500    -1.3156910
  H        4.4021620    -1.2332020    -0.2239060
  H        2.8456380    -3.1770500    -0.4305570
  H       -1.2975550    -1.9637590     1.5022950
  H       -3.7883330    -1.7471360     1.3046070
  H       -3.1157890     1.1676090    -1.7971140
  H       -4.7159820    -0.1358610    -0.3911380
units angstrom
no_reorient  #important for SAPT in psi4, default
symmetry c1  #important for SAPT in psi4, default
}

set PROPERTIES_ORIGIN ["COM"]
properties('MP2/aug-cc-pvtz', properties = ['dipole'])
--------------------------------------------------------------------------

    Molecular point group: c1
  Charge       = 0
  Multiplicity = 1
  Basis Set: AUG-CC-PVTZ
    Blend: AUG-CC-PVTZ
  Basis Set: (AUG-CC-PVTZ AUX)
    Blend: AUG-CC-PVTZ-JKFIT

    Orbital Energies [Eh]
    ---------------------

    Doubly Occupied:

       1A    -15.567115     2A    -15.542781     3A    -11.288234
       4A    -11.279978     5A    -11.265158     6A    -11.264490
       7A    -11.244743     8A    -11.244094     9A    -11.238830
      10A    -11.237536    11A    -11.235358    12A    -11.233448
      13A    -11.230958    14A    -11.230697    15A    -11.225034
      16A     -1.261113    17A     -1.219229    18A     -1.141788
      19A     -1.090026    20A     -1.062746    21A     -1.008387
      22A     -0.995826    23A     -0.940637    24A     -0.880226
      25A     -0.863641    26A     -0.849447    27A     -0.814150
      28A     -0.780831    29A     -0.719693    30A     -0.681056
      31A     -0.669058    32A     -0.656892    33A     -0.640733
      34A     -0.628606    35A     -0.607604    36A     -0.603080
      37A     -0.591120    38A     -0.581880    39A     -0.576185
      40A     -0.551425    41A     -0.541442    42A     -0.524926
      43A     -0.522313    44A     -0.503951    45A     -0.499015
      46A     -0.494353    47A     -0.481164    48A     -0.420875
      49A     -0.387089    50A     -0.367610    51A     -0.360645
      52A     -0.320439    53A     -0.309120

  @DF-RHF Final Energy:  -609.51002930662992

   => Energetics <=

    Nuclear Repulsion Energy =            950.4621180689990751
    One-Electron Energy =               -2712.9907376342875978
    Two-Electron Energy =                1153.0185902586583779
    Total Energy =                       -609.5100293066300310
  Basis Set: (AUG-CC-PVTZ AUX)
    Blend: AUG-CC-PVTZ-RI
    Molecular point group: c1

    Geometry (in Angstrom), charge = 0, multiplicity = 1:

       Center              X                  Y                   Z               Mass
    ------------   -----------------  -----------------  -----------------  -----------------
         N            1.040383917567     1.791045856519     0.457662719773    14.003074004430
         N           -1.412705082433     0.381575856519    -0.957931280227    14.003074004430
         C            1.444267717567     0.408343856519     0.150474519773    12.000000000000
         C            0.552756917567    -0.639795143481    -0.001025280227    12.000000000000
         C           -0.918585082433    -0.487781143481    -0.046932280227    12.000000000000
         C            2.812604917567     0.222150856519     0.069262719773    12.000000000000
         C            1.083412917567    -1.929045143481    -0.179537280227    12.000000000000
         C           -0.060319082433     1.998422856519     1.386549719773    12.000000000000
         C            0.989379917567     2.685445856519    -0.695536280227    12.000000000000
         C            3.326303917567    -1.052785143481    -0.153864280227    12.000000000000
         C            2.457158917567    -2.141246143481    -0.264004280227    12.000000000000
         C           -1.744340082433    -1.257442143481     0.785121719773    12.000000000000
         C           -3.127707082433    -1.132345143481     0.676079719773    12.000000000000
         C           -2.750121082433     0.492538856519    -1.044550280227    12.000000000000
         C           -3.644620082433    -0.237153143481    -0.259737280227    12.000000000000
         H            3.477157917567     1.069549856519     0.222600719773     1.007825032230
         H            0.395928917567    -2.763733143481    -0.307761280227     1.007825032230
         H           -1.056504082433     1.960748856519     0.925122719773     1.007825032230
         H            0.064426917567     2.987506856519     1.843035719773     1.007825032230
         H           -0.007943082433     1.248823856519     2.180147719773     1.007825032230
         H            0.983214917567     3.721368856519    -0.338744280227     1.007825032230
         H            0.100321917567     2.508980856519    -1.317428280227     1.007825032230
         H            1.883103917567     2.536410856519    -1.306095280227     1.007825032230
         H            4.402186917567    -1.200741143481    -0.214310280227     1.007825032230
         H            2.845662917567    -3.144589143481    -0.420961280227     1.007825032230
         H           -1.297530082433    -1.931298143481     1.511890719773     1.007825032230
         H           -3.788308082433    -1.714675143481     1.314202719773     1.007825032230
         H           -3.115764082433     1.200069856519    -1.787518280227     1.007825032230
         H           -4.715957082433    -0.103400143481    -0.381542280227     1.007825032230

  Basis Set: AUG-CC-PVTZ
    Blend: AUG-CC-PVTZ
  Basis Set: (AUG-CC-PVTZ AUX)
    Blend: AUG-CC-PVTZ-JKFIT
	 Reference Energy          =    -609.5100293066299173 [Eh]
	 Singles Energy            =      -0.0000000000000000 [Eh]
	 Same-Spin Energy          =      -0.6829303366255501 [Eh]
	 Opposite-Spin Energy      =      -2.1351298165344175 [Eh]
	 Correlation Energy        =      -2.8180601531599674 [Eh]
	 Total Energy              =    -612.3280894597899078 [Eh]

	 ================> DF-SCS-MP2 Energies <==================
	-----------------------------------------------------------
	 SCS Same-Spin Scale       =       0.3333333333333333 [-]
	 SCS Opposite-Spin Scale   =       1.2000000000000000 [-]
	 SCS Same-Spin Energy      =      -0.2276434455418500 [Eh]
	 SCS Opposite-Spin Energy  =      -2.5621557798413011 [Eh]
	 SCS Correlation Energy    =      -2.7897992253831512 [Eh]
	 SCS Total Energy          =    -612.2998285320130663 [Eh]
	-----------------------------------------------------------

  Dipole Moment: [D]
     X:    -1.8949      Y:    -0.9868      Z:     0.8094     Total:     2.2846

*** Psi4 exiting successfully. Buy a developer a beer!
