                               Psi4 1.3.2 release

  ==> Input File <==

--------------------------------------------------------------------------
#psi4
#
memory 32 gb

molecule  {
0 1
  N        1.0403590     1.7585850     0.4480670
  N       -1.4127300     0.3491150    -0.9675270
  C        1.4305320     0.4228220     0.1513070
  C        0.5527320    -0.6722560    -0.0106210
  C       -0.9186100    -0.5202420    -0.0565280
  C        2.8125800     0.1896900     0.0596670
  C        1.0833880    -1.9615060    -0.1891330
  C       -0.0510667     1.9475006     1.3917217
  C        0.9893550     2.6529850    -0.7051320
  C        3.3262790    -1.0852460    -0.1634600
  C        2.4571340    -2.1737070    -0.2736000
  C       -1.7443650    -1.2899030     0.7755260
  C       -3.1277320    -1.1648060     0.6664840
  C       -2.7501460     0.4600780    -1.0541460
  C       -3.6446450    -0.2696140    -0.2693330
  H        3.4771330     1.0370890     0.2130050
  H        0.3959040    -2.7961940    -0.3173570
  H       -1.0565290     1.9282880     0.9155270
  H        0.0644020     2.9550460     1.8334400
  H       -0.0079680     1.2163630     2.1705520
  H        0.9831900     3.6889080    -0.3483400
  H        0.1002970     2.4765200    -1.3270240
  H        1.8830790     2.5039500    -1.3156910
  H        4.4021620    -1.2332020    -0.2239060
  H        2.8456380    -3.1770500    -0.4305570
  H       -1.2975550    -1.9637590     1.5022950
  H       -3.7883330    -1.7471360     1.3046070
  H       -3.1157890     1.1676090    -1.7971140
  H       -4.7159820    -0.1358610    -0.3911380
units angstrom
no_reorient  #important for SAPT in psi4, default
symmetry c1  #important for SAPT in psi4, default
}

set PROPERTIES_ORIGIN ["COM"]
properties('MP2/aug-cc-pvtz', properties = ['dipole'])
--------------------------------------------------------------------------

    Molecular point group: c1
  Charge       = 0
  Multiplicity = 1
  Basis Set: AUG-CC-PVTZ
    Blend: AUG-CC-PVTZ
  Basis Set: (AUG-CC-PVTZ AUX)
    Blend: AUG-CC-PVTZ-JKFIT

    Orbital Energies [Eh]
    ---------------------

    Doubly Occupied:

       1A    -15.566339     2A    -15.545222     3A    -11.286617
       4A    -11.279537     5A    -11.267923     6A    -11.263920
       7A    -11.244111     8A    -11.243116     9A    -11.239441
      10A    -11.236626    11A    -11.236332    12A    -11.234530
      13A    -11.234169    14A    -11.229434    15A    -11.225015
      16A     -1.260946    17A     -1.230077    18A     -1.137612
      19A     -1.089388    20A     -1.060811    21A     -1.005528
      22A     -0.992661    23A     -0.945557    24A     -0.883733
      25A     -0.862775    26A     -0.852756    27A     -0.809561
      28A     -0.780191    29A     -0.718001    30A     -0.681545
      31A     -0.668073    32A     -0.658802    33A     -0.641510
      34A     -0.631053    35A     -0.610819    36A     -0.602261
      37A     -0.587966    38A     -0.582145    39A     -0.575617
      40A     -0.551647    41A     -0.541688    42A     -0.525883
      43A     -0.521538    44A     -0.510207    45A     -0.498417
      46A     -0.490558    47A     -0.486590    48A     -0.419957
      49A     -0.386862    50A     -0.369173    51A     -0.359533
      52A     -0.318977    53A     -0.303910

  @DF-RHF Final Energy:  -609.51128700216566

   => Energetics <=

    Nuclear Repulsion Energy =            950.4803190724767319
    One-Electron Energy =               -2713.0098878897965733
    Two-Electron Energy =                1153.0182818151542961
    Total Energy =                       -609.5112870021655453
  Basis Set: (AUG-CC-PVTZ AUX)
    Blend: AUG-CC-PVTZ-RI
    Molecular point group: c1

    Geometry (in Angstrom), charge = 0, multiplicity = 1:

       Center              X                  Y                   Z               Mass
    ------------   -----------------  -----------------  -----------------  -----------------
         N            1.040652457619     1.789320949293     0.456136587304    14.003074004430
         N           -1.412436542381     0.379850949293    -0.959457412696    14.003074004430
         C            1.430825457619     0.453557949293     0.159376587304    12.000000000000
         C            0.553025457619    -0.641520050707    -0.002551412696    12.000000000000
         C           -0.918316542381    -0.489506050707    -0.048458412696    12.000000000000
         C            2.812873457619     0.220425949293     0.067736587304    12.000000000000
         C            1.083681457619    -1.930770050707    -0.181063412696    12.000000000000
         C           -0.050773242381     1.978236549293     1.399791287304    12.000000000000
         C            0.989648457619     2.683720949293    -0.697062412696    12.000000000000
         C            3.326572457619    -1.054510050707    -0.155390412696    12.000000000000
         C            2.457427457619    -2.142971050707    -0.265530412696    12.000000000000
         C           -1.744071542381    -1.259167050707     0.783595587304    12.000000000000
         C           -3.127438542381    -1.134070050707     0.674553587304    12.000000000000
         C           -2.749852542381     0.490813949293    -1.046076412696    12.000000000000
         C           -3.644351542381    -0.238878050707    -0.261263412696    12.000000000000
         H            3.477426457619     1.067824949293     0.221074587304     1.007825032230
         H            0.396197457619    -2.765458050707    -0.309287412696     1.007825032230
         H           -1.056235542381     1.959023949293     0.923596587304     1.007825032230
         H            0.064695457619     2.985781949293     1.841509587304     1.007825032230
         H           -0.007674542381     1.247098949293     2.178621587304     1.007825032230
         H            0.983483457619     3.719643949293    -0.340270412696     1.007825032230
         H            0.100590457619     2.507255949293    -1.318954412696     1.007825032230
         H            1.883372457619     2.534685949293    -1.307621412696     1.007825032230
         H            4.402455457619    -1.202466050707    -0.215836412696     1.007825032230
         H            2.845931457619    -3.146314050707    -0.422487412696     1.007825032230
         H           -1.297261542381    -1.933023050707     1.510364587304     1.007825032230
         H           -3.788039542381    -1.716400050707     1.312676587304     1.007825032230
         H           -3.115495542381     1.198344949293    -1.789044412696     1.007825032230
         H           -4.715688542381    -0.105125050707    -0.383068412696     1.007825032230

  Basis Set: AUG-CC-PVTZ
    Blend: AUG-CC-PVTZ
  Basis Set: (AUG-CC-PVTZ AUX)
    Blend: AUG-CC-PVTZ-JKFIT
	 Reference Energy          =    -609.5112870021656590 [Eh]
	 Singles Energy            =      -0.0000000000000000 [Eh]
	 Same-Spin Energy          =      -0.6833802366318114 [Eh]
	 Opposite-Spin Energy      =      -2.1355268358566928 [Eh]
	 Correlation Energy        =      -2.8189070724885044 [Eh]
	 Total Energy              =    -612.3301940746541732 [Eh]

	 ================> DF-SCS-MP2 Energies <==================
	-----------------------------------------------------------
	 SCS Same-Spin Scale       =       0.3333333333333333 [-]
	 SCS Opposite-Spin Scale   =       1.2000000000000000 [-]
	 SCS Same-Spin Energy      =      -0.2277934122106038 [Eh]
	 SCS Opposite-Spin Energy  =      -2.5626322030280311 [Eh]
	 SCS Correlation Energy    =      -2.7904256152386351 [Eh]
	 SCS Total Energy          =    -612.3017126174042914 [Eh]
	-----------------------------------------------------------

  Dipole Moment: [D]
     X:    -1.9331      Y:    -0.7726      Z:     0.8536     Total:     2.2499

*** Psi4 exiting successfully. Buy a developer a beer!
