                               Psi4 1.3.2 release

  ==> Input File <==

--------------------------------------------------------------------------
#psi4
#
memory 32 gb

molecule  {
0 1
  N        0.9350461     1.7441650     0.3389810
  N       -1.4127300     0.3491150    -0.9675270
  C        1.4305320     0.4228220     0.1513070
  C        0.5527320    -0.6722560    -0.0106210
  C       -0.9186100    -0.5202420    -0.0565280
  C        2.8125800     0.1896900     0.0596670
  C        1.0833880    -1.9615060    -0.1891330
  C       -0.0603440     1.9659620     1.3769540
  C        0.9893550     2.6529850    -0.7051320
  C        3.3262790    -1.0852460    -0.1634600
  C        2.4571340    -2.1737070    -0.2736000
  C       -1.7443650    -1.2899030     0.7755260
  C       -3.1277320    -1.1648060     0.6664840
  C       -2.7501460     0.4600780    -1.0541460
  C       -3.6446450    -0.2696140    -0.2693330
  H        3.4771330     1.0370890     0.2130050
  H        0.3959040    -2.7961940    -0.3173570
  H       -1.0565290     1.9282880     0.9155270
  H        0.0644020     2.9550460     1.8334400
  H       -0.0079680     1.2163630     2.1705520
  H        0.9831900     3.6889080    -0.3483400
  H        0.1002970     2.4765200    -1.3270240
  H        1.8830790     2.5039500    -1.3156910
  H        4.4021620    -1.2332020    -0.2239060
  H        2.8456380    -3.1770500    -0.4305570
  H       -1.2975550    -1.9637590     1.5022950
  H       -3.7883330    -1.7471360     1.3046070
  H       -3.1157890     1.1676090    -1.7971140
  H       -4.7159820    -0.1358610    -0.3911380
units angstrom
no_reorient  #important for SAPT in psi4, default
symmetry c1  #important for SAPT in psi4, default
}

set PROPERTIES_ORIGIN ["COM"]
properties('MP2/aug-cc-pvtz', properties = ['dipole'])
--------------------------------------------------------------------------

    Molecular point group: c1
  Charge       = 0
  Multiplicity = 1
  Basis Set: AUG-CC-PVTZ
    Blend: AUG-CC-PVTZ
  Basis Set: (AUG-CC-PVTZ AUX)
    Blend: AUG-CC-PVTZ-JKFIT

    Orbital Energies [Eh]
    ---------------------

    Doubly Occupied:

       1A    -15.565415     2A    -15.534904     3A    -11.285846
       4A    -11.278584     5A    -11.270777     6A    -11.263156
       7A    -11.243236     8A    -11.242485     9A    -11.238647
      10A    -11.238119    11A    -11.236372    12A    -11.235598
      13A    -11.229951    14A    -11.228084    15A    -11.227412
      16A     -1.261226    17A     -1.237171    18A     -1.140063
      19A     -1.088562    20A     -1.060592    21A     -1.007544
      22A     -0.993496    23A     -0.952166    24A     -0.882102
      25A     -0.862569    26A     -0.852862    27A     -0.808060
      28A     -0.779552    29A     -0.717731    30A     -0.683452
      31A     -0.668423    32A     -0.659505    33A     -0.645281
      34A     -0.631527    35A     -0.617905    36A     -0.602770
      37A     -0.589244    38A     -0.585686    39A     -0.576093
      40A     -0.551260    41A     -0.541713    42A     -0.527961
      43A     -0.523005    44A     -0.512163    45A     -0.495529
      46A     -0.492500    47A     -0.490259    48A     -0.418875
      49A     -0.385300    50A     -0.363402    51A     -0.355964
      52A     -0.319175    53A     -0.297162

  @DF-RHF Final Energy:  -609.50499165443796

   => Energetics <=

    Nuclear Repulsion Energy =            952.3939914117332819
    One-Electron Energy =               -2716.8050960881455467
    Two-Electron Energy =                1154.9061130219743063
    Total Energy =                       -609.5049916544380721
  Basis Set: (AUG-CC-PVTZ AUX)
    Blend: AUG-CC-PVTZ-RI
    Molecular point group: c1

    Geometry (in Angstrom), charge = 0, multiplicity = 1:

       Center              X                  Y                   Z               Mass
    ------------   -----------------  -----------------  -----------------  -----------------
         N            0.943345141955     1.774801954246     0.355655416422    14.003074004430
         N           -1.404430958045     0.379751954246    -0.950852583578    14.003074004430
         C            1.438831041955     0.453458954246     0.167981416422    12.000000000000
         C            0.561031041955    -0.641619045754     0.006053416422    12.000000000000
         C           -0.910310958045    -0.489605045754    -0.039853583578    12.000000000000
         C            2.820879041955     0.220326954246     0.076341416422    12.000000000000
         C            1.091687041955    -1.930869045754    -0.172458583578    12.000000000000
         C           -0.052044958045     1.996598954246     1.393628416422    12.000000000000
         C            0.997654041955     2.683621954246    -0.688457583578    12.000000000000
         C            3.334578041955    -1.054609045754    -0.146785583578    12.000000000000
         C            2.465433041955    -2.143070045754    -0.256925583578    12.000000000000
         C           -1.736065958045    -1.259266045754     0.792200416422    12.000000000000
         C           -3.119432958045    -1.134169045754     0.683158416422    12.000000000000
         C           -2.741846958045     0.490714954246    -1.037471583578    12.000000000000
         C           -3.636345958045    -0.238977045754    -0.252658583578    12.000000000000
         H            3.485432041955     1.067725954246     0.229679416422     1.007825032230
         H            0.404203041955    -2.765557045754    -0.300682583578     1.007825032230
         H           -1.048229958045     1.958924954246     0.932201416422     1.007825032230
         H            0.072701041955     2.985682954246     1.850114416422     1.007825032230
         H            0.000331041955     1.246999954246     2.187226416422     1.007825032230
         H            0.991489041955     3.719544954246    -0.331665583578     1.007825032230
         H            0.108596041955     2.507156954246    -1.310349583578     1.007825032230
         H            1.891378041955     2.534586954246    -1.299016583578     1.007825032230
         H            4.410461041955    -1.202565045754    -0.207231583578     1.007825032230
         H            2.853937041955    -3.146413045754    -0.413882583578     1.007825032230
         H           -1.289255958045    -1.933122045754     1.518969416422     1.007825032230
         H           -3.780033958045    -1.716499045754     1.321281416422     1.007825032230
         H           -3.107489958045     1.198245954246    -1.780439583578     1.007825032230
         H           -4.707682958045    -0.105224045754    -0.374463583578     1.007825032230

  Basis Set: AUG-CC-PVTZ
    Blend: AUG-CC-PVTZ
  Basis Set: (AUG-CC-PVTZ AUX)
    Blend: AUG-CC-PVTZ-JKFIT
	 Reference Energy          =    -609.5049916544379585 [Eh]
	 Singles Energy            =      -0.0000000000000000 [Eh]
	 Same-Spin Energy          =      -0.6837774322799934 [Eh]
	 Opposite-Spin Energy      =      -2.1350140987328960 [Eh]
	 Correlation Energy        =      -2.8187915310128897 [Eh]
	 Total Energy              =    -612.3237831854507931 [Eh]

	 ================> DF-SCS-MP2 Energies <==================
	-----------------------------------------------------------
	 SCS Same-Spin Scale       =       0.3333333333333333 [-]
	 SCS Opposite-Spin Scale   =       1.2000000000000000 [-]
	 SCS Same-Spin Energy      =      -0.2279258107599978 [Eh]
	 SCS Opposite-Spin Energy  =      -2.5620169184794750 [Eh]
	 SCS Correlation Energy    =      -2.7899427292394727 [Eh]
	 SCS Total Energy          =    -612.2949343836774005 [Eh]
	-----------------------------------------------------------

  Dipole Moment: [D]
     X:    -1.6802      Y:    -0.7690      Z:     1.1145     Total:     2.1579

*** Psi4 exiting successfully. Buy a developer a beer!
