                               Psi4 1.3.2 release

  ==> Input File <==

--------------------------------------------------------------------------
#psi4
#
memory 32 gb

molecule  {
0 1
  N        1.0728367     1.7639051     0.4867529
  N       -1.4127300     0.3491150    -0.9675270
  C        1.4305320     0.4228220     0.1513070
  C        0.5527320    -0.6722560    -0.0106210
  C       -0.9186100    -0.5202420    -0.0565280
  C        2.8125800     0.1896900     0.0596670
  C        1.0833880    -1.9615060    -0.1891330
  C       -0.0603440     1.9659620     1.3769540
  C        0.9893550     2.6529850    -0.7051320
  C        3.3262790    -1.0852460    -0.1634600
  C        2.4571340    -2.1737070    -0.2736000
  C       -1.7443650    -1.2899030     0.7755260
  C       -3.1277320    -1.1648060     0.6664840
  C       -2.7501460     0.4600780    -1.0541460
  C       -3.6446450    -0.2696140    -0.2693330
  H        3.4771330     1.0370890     0.2130050
  H        0.3959040    -2.7961940    -0.3173570
  H       -1.0565290     1.9282880     0.9155270
  H        0.0644020     2.9550460     1.8334400
  H       -0.0079680     1.2163630     2.1705520
  H        0.9831900     3.6889080    -0.3483400
  H        0.1002970     2.4765200    -1.3270240
  H        1.8830790     2.5039500    -1.3156910
  H        4.4021620    -1.2332020    -0.2239060
  H        2.8456380    -3.1770500    -0.4305570
  H       -1.2975550    -1.9637590     1.5022950
  H       -3.7883330    -1.7471360     1.3046070
  H       -3.1157890     1.1676090    -1.7971140
  H       -4.7159820    -0.1358610    -0.3911380
units angstrom
no_reorient  #important for SAPT in psi4, default
symmetry c1  #important for SAPT in psi4, default
}

set PROPERTIES_ORIGIN ["COM"]
properties('MP2/aug-cc-pvtz', properties = ['dipole'])
--------------------------------------------------------------------------

    Molecular point group: c1
  Charge       = 0
  Multiplicity = 1
  Basis Set: AUG-CC-PVTZ
    Blend: AUG-CC-PVTZ
  Basis Set: (AUG-CC-PVTZ AUX)
    Blend: AUG-CC-PVTZ-JKFIT

    Orbital Energies [Eh]
    ---------------------

    Doubly Occupied:

       1A    -15.566821     2A    -15.549751     3A    -11.287011
       4A    -11.279951     5A    -11.267832     6A    -11.264232
       7A    -11.244483     8A    -11.243404     9A    -11.240181
      10A    -11.236826    11A    -11.236054    12A    -11.235389
      13A    -11.233923    14A    -11.229396    15A    -11.224645
      16A     -1.261109    17A     -1.227160    18A     -1.137138
      19A     -1.089757    20A     -1.061019    21A     -1.005397
      22A     -0.992608    23A     -0.941642    24A     -0.884312
      25A     -0.863025    26A     -0.852916    27A     -0.810073
      28A     -0.780483    29A     -0.718145    30A     -0.680555
      31A     -0.668197    32A     -0.658323    33A     -0.640263
      34A     -0.630457    35A     -0.609557    36A     -0.601967
      37A     -0.587945    38A     -0.581401    39A     -0.575566
      40A     -0.551977    41A     -0.541777    42A     -0.526540
      43A     -0.523590    44A     -0.503074    45A     -0.498466
      46A     -0.488738    47A     -0.484129    48A     -0.420444
      49A     -0.387844    50A     -0.373916    51A     -0.360574
      52A     -0.319343    53A     -0.305676

  @DF-RHF Final Energy:  -609.50990217248147

   => Energetics <=

    Nuclear Repulsion Energy =            949.6740889038829891
    One-Electron Energy =               -2711.3979844852688075
    Two-Electron Energy =                1152.2139934089045710
    Total Energy =                       -609.5099021724813610
  Basis Set: (AUG-CC-PVTZ AUX)
    Blend: AUG-CC-PVTZ-RI
    Molecular point group: c1

    Geometry (in Angstrom), charge = 0, multiplicity = 1:

       Center              X                  Y                   Z               Mass
    ------------   -----------------  -----------------  -----------------  -----------------
         N            1.071396523994     1.793146798427     0.492982607257    14.003074004430
         N           -1.414170176006     0.378356698427    -0.961297292743    14.003074004430
         C            1.429091823994     0.452063698427     0.157536707257    12.000000000000
         C            0.551291823994    -0.643014301573    -0.004391292743    12.000000000000
         C           -0.920050176006    -0.491000301573    -0.050298292743    12.000000000000
         C            2.811139823994     0.218931698427     0.065896707257    12.000000000000
         C            1.081947823994    -1.932264301573    -0.182903292743    12.000000000000
         C           -0.061784176006     1.995203698427     1.383183707257    12.000000000000
         C            0.987914823994     2.682226698427    -0.698902292743    12.000000000000
         C            3.324838823994    -1.056004301573    -0.157230292743    12.000000000000
         C            2.455693823994    -2.144465301573    -0.267370292743    12.000000000000
         C           -1.745805176006    -1.260661301573     0.781755707257    12.000000000000
         C           -3.129172176006    -1.135564301573     0.672713707257    12.000000000000
         C           -2.751586176006     0.489319698427    -1.047916292743    12.000000000000
         C           -3.646085176006    -0.240372301573    -0.263103292743    12.000000000000
         H            3.475692823994     1.066330698427     0.219234707257     1.007825032230
         H            0.394463823994    -2.766952301573    -0.311127292743     1.007825032230
         H           -1.057969176006     1.957529698427     0.921756707257     1.007825032230
         H            0.062961823994     2.984287698427     1.839669707257     1.007825032230
         H           -0.009408176006     1.245604698427     2.176781707257     1.007825032230
         H            0.981749823994     3.718149698427    -0.342110292743     1.007825032230
         H            0.098856823994     2.505761698427    -1.320794292743     1.007825032230
         H            1.881638823994     2.533191698427    -1.309461292743     1.007825032230
         H            4.400721823994    -1.203960301573    -0.217676292743     1.007825032230
         H            2.844197823994    -3.147808301573    -0.424327292743     1.007825032230
         H           -1.298995176006    -1.934517301573     1.508524707257     1.007825032230
         H           -3.789773176006    -1.717894301573     1.310836707257     1.007825032230
         H           -3.117229176006     1.196850698427    -1.790884292743     1.007825032230
         H           -4.717422176006    -0.106619301573    -0.384908292743     1.007825032230

  Basis Set: AUG-CC-PVTZ
    Blend: AUG-CC-PVTZ
  Basis Set: (AUG-CC-PVTZ AUX)
    Blend: AUG-CC-PVTZ-JKFIT
	 Reference Energy          =    -609.5099021724814747 [Eh]
	 Singles Energy            =      -0.0000000000000000 [Eh]
	 Same-Spin Energy          =      -0.6834186107954066 [Eh]
	 Opposite-Spin Energy      =      -2.1361689057300586 [Eh]
	 Correlation Energy        =      -2.8195875165254654 [Eh]
	 Total Energy              =    -612.3294896890068912 [Eh]

	 ================> DF-SCS-MP2 Energies <==================
	-----------------------------------------------------------
	 SCS Same-Spin Scale       =       0.3333333333333333 [-]
	 SCS Opposite-Spin Scale   =       1.2000000000000000 [-]
	 SCS Same-Spin Energy      =      -0.2278062035984688 [Eh]
	 SCS Opposite-Spin Energy  =      -2.5634026868760702 [Eh]
	 SCS Correlation Energy    =      -2.7912088904745391 [Eh]
	 SCS Total Energy          =    -612.3011110629560108 [Eh]
	-----------------------------------------------------------

  Dipole Moment: [D]
     X:    -2.0258      Y:    -0.7817      Z:     0.7644     Total:     2.3020

*** Psi4 exiting successfully. Buy a developer a beer!
