                               Psi4 1.3.2 release

  ==> Input File <==

--------------------------------------------------------------------------
#psi4
#
memory 32 gb

molecule  {
0 1
  N        1.0403590     1.7585850     0.4480670
  N       -1.4127300     0.3491150    -0.9675270
  C        1.4579535     0.3289440     0.1304506
  C        0.5527320    -0.6722560    -0.0106210
  C       -0.9186100    -0.5202420    -0.0565280
  C        2.8125800     0.1896900     0.0596670
  C        1.0833880    -1.9615060    -0.1891330
  C       -0.0603440     1.9659620     1.3769540
  C        0.9893550     2.6529850    -0.7051320
  C        3.3262790    -1.0852460    -0.1634600
  C        2.4571340    -2.1737070    -0.2736000
  C       -1.7443650    -1.2899030     0.7755260
  C       -3.1277320    -1.1648060     0.6664840
  C       -2.7501460     0.4600780    -1.0541460
  C       -3.6446450    -0.2696140    -0.2693330
  H        3.4771330     1.0370890     0.2130050
  H        0.3959040    -2.7961940    -0.3173570
  H       -1.0565290     1.9282880     0.9155270
  H        0.0644020     2.9550460     1.8334400
  H       -0.0079680     1.2163630     2.1705520
  H        0.9831900     3.6889080    -0.3483400
  H        0.1002970     2.4765200    -1.3270240
  H        1.8830790     2.5039500    -1.3156910
  H        4.4021620    -1.2332020    -0.2239060
  H        2.8456380    -3.1770500    -0.4305570
  H       -1.2975550    -1.9637590     1.5022950
  H       -3.7883330    -1.7471360     1.3046070
  H       -3.1157890     1.1676090    -1.7971140
  H       -4.7159820    -0.1358610    -0.3911380
units angstrom
no_reorient  #important for SAPT in psi4, default
symmetry c1  #important for SAPT in psi4, default
}

set PROPERTIES_ORIGIN ["COM"]
properties('MP2/aug-cc-pvtz', properties = ['dipole'])
--------------------------------------------------------------------------

    Molecular point group: c1
  Charge       = 0
  Multiplicity = 1
  Basis Set: AUG-CC-PVTZ
    Blend: AUG-CC-PVTZ
  Basis Set: (AUG-CC-PVTZ AUX)
    Blend: AUG-CC-PVTZ-JKFIT

    Orbital Energies [Eh]
    ---------------------

    Doubly Occupied:

       1A    -15.567716     2A    -15.540070     3A    -11.289748
       4A    -11.280318     5A    -11.264982     6A    -11.262603
       7A    -11.245267     8A    -11.244969     9A    -11.239225
      10A    -11.237268    11A    -11.236488    12A    -11.231677
      13A    -11.230904    14A    -11.228195    15A    -11.224927
      16A     -1.261458    17A     -1.210665    18A     -1.145276
      19A     -1.090554    20A     -1.064740    21A     -1.010780
      22A     -0.999011    23A     -0.937252    24A     -0.878297
      25A     -0.864417    26A     -0.844720    27A     -0.818656
      28A     -0.781235    29A     -0.721350    30A     -0.681537
      31A     -0.670062    32A     -0.656024    33A     -0.640579
      34A     -0.626168    35A     -0.604949    36A     -0.603447
      37A     -0.593527    38A     -0.581224    39A     -0.575785
      40A     -0.551114    41A     -0.541274    42A     -0.524900
      43A     -0.520810    44A     -0.505718    45A     -0.501788
      46A     -0.495188    47A     -0.471104    48A     -0.421609
      49A     -0.387323    50A     -0.366148    51A     -0.360372
      52A     -0.321581    53A     -0.313256

  @DF-RHF Final Energy:  -609.50236207922092

   => Energetics <=

    Nuclear Repulsion Energy =            950.5362082626261326
    One-Electron Energy =               -2713.1406260876196939
    Two-Electron Energy =                1153.1020557457727591
    Total Energy =                       -609.5023620792208021
  Basis Set: (AUG-CC-PVTZ AUX)
    Blend: AUG-CC-PVTZ-RI
    Molecular point group: c1

    Geometry (in Angstrom), charge = 0, multiplicity = 1:

       Center              X                  Y                   Z               Mass
    ------------   -----------------  -----------------  -----------------  -----------------
         N            1.039553451323     1.793888983058     0.458294362803    14.003074004430
         N           -1.413535548677     0.384418983058    -0.957299637197    14.003074004430
         C            1.457147951323     0.364247983058     0.140677962803    12.000000000000
         C            0.551926451323    -0.636952016942    -0.000393637197    12.000000000000
         C           -0.919415548677    -0.484938016942    -0.046300637197    12.000000000000
         C            2.811774451323     0.224993983058     0.069894362803    12.000000000000
         C            1.082582451323    -1.926202016942    -0.178905637197    12.000000000000
         C           -0.061149548677     2.001265983058     1.387181362803    12.000000000000
         C            0.988549451323     2.688288983058    -0.694904637197    12.000000000000
         C            3.325473451323    -1.049942016942    -0.153232637197    12.000000000000
         C            2.456328451323    -2.138403016942    -0.263372637197    12.000000000000
         C           -1.745170548677    -1.254599016942     0.785753362803    12.000000000000
         C           -3.128537548677    -1.129502016942     0.676711362803    12.000000000000
         C           -2.750951548677     0.495381983058    -1.043918637197    12.000000000000
         C           -3.645450548677    -0.234310016942    -0.259105637197    12.000000000000
         H            3.476327451323     1.072392983058     0.223232362803     1.007825032230
         H            0.395098451323    -2.760890016942    -0.307129637197     1.007825032230
         H           -1.057334548677     1.963591983058     0.925754362803     1.007825032230
         H            0.063596451323     2.990349983058     1.843667362803     1.007825032230
         H           -0.008773548677     1.251666983058     2.180779362803     1.007825032230
         H            0.982384451323     3.724211983058    -0.338112637197     1.007825032230
         H            0.099491451323     2.511823983058    -1.316796637197     1.007825032230
         H            1.882273451323     2.539253983058    -1.305463637197     1.007825032230
         H            4.401356451323    -1.197898016942    -0.213678637197     1.007825032230
         H            2.844832451323    -3.141746016942    -0.420329637197     1.007825032230
         H           -1.298360548677    -1.928455016942     1.512522362803     1.007825032230
         H           -3.789138548677    -1.711832016942     1.314834362803     1.007825032230
         H           -3.116594548677     1.202912983058    -1.786886637197     1.007825032230
         H           -4.716787548677    -0.100557016942    -0.380910637197     1.007825032230

  Basis Set: AUG-CC-PVTZ
    Blend: AUG-CC-PVTZ
  Basis Set: (AUG-CC-PVTZ AUX)
    Blend: AUG-CC-PVTZ-JKFIT
	 Reference Energy          =    -609.5023620792209158 [Eh]
	 Singles Energy            =      -0.0000000000000000 [Eh]
	 Same-Spin Energy          =      -0.6828046918807674 [Eh]
	 Opposite-Spin Energy      =      -2.1352407728005871 [Eh]
	 Correlation Energy        =      -2.8180454646813544 [Eh]
	 Total Energy              =    -612.3204075439023200 [Eh]

	 ================> DF-SCS-MP2 Energies <==================
	-----------------------------------------------------------
	 SCS Same-Spin Scale       =       0.3333333333333333 [-]
	 SCS Opposite-Spin Scale   =       1.2000000000000000 [-]
	 SCS Same-Spin Energy      =      -0.2276015639602558 [Eh]
	 SCS Opposite-Spin Energy  =      -2.5622889273607043 [Eh]
	 SCS Correlation Energy    =      -2.7898904913209601 [Eh]
	 SCS Total Energy          =    -612.2922525705419048 [Eh]
	-----------------------------------------------------------

  Dipole Moment: [D]
     X:    -1.8495      Y:    -1.1836      Z:     0.7727     Total:     2.3278

*** Psi4 exiting successfully. Buy a developer a beer!
