                               Psi4 1.4a3.dev225

  ==> Input File <==

--------------------------------------------------------------------------
#psi4
#
memory 32 gb

molecule  {
0 1
  N        1.0403590     1.7585850     0.4480670
  N       -1.4127300     0.3491150    -0.9675270
  C        1.4168212     0.4697610     0.1617352
  C        0.5527320    -0.6722560    -0.0106210
  C       -0.9186100    -0.5202420    -0.0565280
  C        2.8125800     0.1896900     0.0596670
  C        1.0833880    -1.9615060    -0.1891330
  C       -0.0603440     1.9659620     1.3769540
  C        0.9893550     2.6529850    -0.7051320
  C        3.3262790    -1.0852460    -0.1634600
  C        2.4571340    -2.1737070    -0.2736000
  C       -1.7443650    -1.2899030     0.7755260
  C       -3.1277320    -1.1648060     0.6664840
  C       -2.7501460     0.4600780    -1.0541460
  C       -3.6446450    -0.2696140    -0.2693330
  H        3.4771330     1.0370890     0.2130050
  H        0.3959040    -2.7961940    -0.3173570
  H       -1.0565290     1.9282880     0.9155270
  H        0.0644020     2.9550460     1.8334400
  H       -0.0079680     1.2163630     2.1705520
  H        0.9831900     3.6889080    -0.3483400
  H        0.1002970     2.4765200    -1.3270240
  H        1.8830790     2.5039500    -1.3156910
  H        4.4021620    -1.2332020    -0.2239060
  H        2.8456380    -3.1770500    -0.4305570
  H       -1.2975550    -1.9637590     1.5022950
  H       -3.7883330    -1.7471360     1.3046070
  H       -3.1157890     1.1676090    -1.7971140
  H       -4.7159820    -0.1358610    -0.3911380
units angstrom
no_reorient  #important for SAPT in psi4, default
symmetry c1  #important for SAPT in psi4, default
}

set PROPERTIES_ORIGIN ["COM"]
properties('MP2/aug-cc-pvtz', properties = ['dipole'])
--------------------------------------------------------------------------

    Molecular point group: c1
  Charge       = 0
  Multiplicity = 1
  Basis Set: AUG-CC-PVTZ
    Blend: AUG-CC-PVTZ
  Basis Set: (AUG-CC-PVTZ AUX)
    Blend: AUG-CC-PVTZ-JKFIT

    Orbital Energies [Eh]
    ---------------------

    Doubly Occupied:

       1A    -15.565834     2A    -15.547862     3A    -11.285196
       4A    -11.279278     5A    -11.271786     6A    -11.263454
       7A    -11.243630     8A    -11.242239     9A    -11.240095
      10A    -11.239243    11A    -11.237434    12A    -11.235524
      13A    -11.233043    14A    -11.227872    15A    -11.225146
      16A     -1.262164    17A     -1.242618    18A     -1.133426
      19A     -1.088908    20A     -1.059062    21A     -1.003251
      22A     -0.989911    23A     -0.948482    24A     -0.889953
      25A     -0.862049    26A     -0.855110    27A     -0.805101
      28A     -0.779192    29A     -0.716298    30A     -0.682188
      31A     -0.667705    32A     -0.661010    33A     -0.643118
      34A     -0.632265    35A     -0.616800    36A     -0.600742
      37A     -0.585285    38A     -0.582157    39A     -0.575337
      40A     -0.552659    41A     -0.542563    42A     -0.528047
      43A     -0.524575    44A     -0.508435    45A     -0.501266
      46A     -0.486785    47A     -0.485247    48A     -0.419266
      49A     -0.387075    50A     -0.372587    51A     -0.358645
      52A     -0.317778    53A     -0.298211

  @DF-RHF Final Energy:  -609.50767662248438

   => Energetics <=

    Nuclear Repulsion Energy =            950.4365829809692059
    One-Electron Energy =               -2712.8827106151084081
    Two-Electron Energy =                1152.9384510116549336
    Total Energy =                       -609.5076766224842686
  Basis Set: (AUG-CC-PVTZ AUX)
    Blend: AUG-CC-PVTZ-RI
    Molecular point group: c1

    Geometry (in Angstrom), charge = 0, multiplicity = 1:

       Center              X                  Y                   Z               Mass
    ------------   -----------------  -----------------  -----------------  -----------------
         N            1.042044862169     1.785359603442     0.456399433714    14.003074004430
         N           -1.411044137831     0.375889603442    -0.959194566286    14.003074004430
         C            1.418507062169     0.496535603442     0.170067633714    12.000000000000
         C            0.554417862169    -0.645481396558    -0.002288566286    12.000000000000
         C           -0.916924137831    -0.493467396558    -0.048195566286    12.000000000000
         C            2.814265862169     0.216464603442     0.067999433714    12.000000000000
         C            1.085073862169    -1.934731396558    -0.180800566286    12.000000000000
         C           -0.058658137831     1.992736603442     1.385286433714    12.000000000000
         C            0.991040862169     2.679759603442    -0.696799566286    12.000000000000
         C            3.327964862169    -1.058471396558    -0.155127566286    12.000000000000
         C            2.458819862169    -2.146932396558    -0.265267566286    12.000000000000
         C           -1.742679137831    -1.263128396558     0.783858433714    12.000000000000
         C           -3.126046137831    -1.138031396558     0.674816433714    12.000000000000
         C           -2.748460137831     0.486852603442    -1.045813566286    12.000000000000
         C           -3.642959137831    -0.242839396558    -0.261000566286    12.000000000000
         H            3.478818862169     1.063863603442     0.221337433714     1.007825032230
         H            0.397589862169    -2.769419396558    -0.309024566286     1.007825032230
         H           -1.054843137831     1.955062603442     0.923859433714     1.007825032230
         H            0.066087862169     2.981820603442     1.841772433714     1.007825032230
         H           -0.006282137831     1.243137603442     2.178884433714     1.007825032230
         H            0.984875862169     3.715682603442    -0.340007566286     1.007825032230
         H            0.101982862169     2.503294603442    -1.318691566286     1.007825032230
         H            1.884764862169     2.530724603442    -1.307358566286     1.007825032230
         H            4.403847862169    -1.206427396558    -0.215573566286     1.007825032230
         H            2.847323862169    -3.150275396558    -0.422224566286     1.007825032230
         H           -1.295869137831    -1.936984396558     1.510627433714     1.007825032230
         H           -3.786647137831    -1.720361396558     1.312939433714     1.007825032230
         H           -3.114103137831     1.194383603442    -1.788781566286     1.007825032230
         H           -4.714296137831    -0.109086396558    -0.382805566286     1.007825032230

  Basis Set: AUG-CC-PVTZ
    Blend: AUG-CC-PVTZ
  Basis Set: (AUG-CC-PVTZ AUX)
    Blend: AUG-CC-PVTZ-JKFIT
	 Reference Energy          =    -609.5076766224843823 [Eh]
	 Singles Energy            =      -0.0000000000000000 [Eh]
	 Same-Spin Energy          =      -0.6840989641947870 [Eh]
	 Opposite-Spin Energy      =      -2.1363878878950189 [Eh]
	 Correlation Energy        =      -2.8204868520898057 [Eh]
	 Total Energy              =    -612.3281634745742394 [Eh]

	 ================> DF-SCS-MP2 Energies <==================
	-----------------------------------------------------------
	 SCS Same-Spin Scale       =       0.3333333333333333 [-]
	 SCS Opposite-Spin Scale   =       1.2000000000000000 [-]
	 SCS Same-Spin Energy      =      -0.2280329880649290 [Eh]
	 SCS Opposite-Spin Energy  =      -2.5636654654740227 [Eh]
	 SCS Correlation Energy    =      -2.7916984535389515 [Eh]
	 SCS Total Energy          =    -612.2993750760233524 [Eh]
	-----------------------------------------------------------

  Dipole Moment: [D]
     X:    -2.0107      Y:    -0.5269      Z:     0.8946     Total:     2.2630

*** Psi4 exiting successfully. Buy a developer a beer!
