                               Psi4 1.3.2 release

  ==> Input File <==

--------------------------------------------------------------------------
#psi4
#
memory 32 gb

molecule  {
0 1
  N        1.0403590     1.7585850     0.4480670
  N       -1.4127300     0.3491150    -0.9675270
  C        1.4305320     0.4228220     0.1513070
  C        0.5527320    -0.6722560    -0.0106210
  C       -0.9186100    -0.5202420    -0.0565280
  C        2.8125800     0.1896900     0.0596670
  C        1.0833880    -1.9615060    -0.1891330
  C       -0.0212520     1.8917937     1.4342825
  C        0.9893550     2.6529850    -0.7051320
  C        3.3262790    -1.0852460    -0.1634600
  C        2.4571340    -2.1737070    -0.2736000
  C       -1.7443650    -1.2899030     0.7755260
  C       -3.1277320    -1.1648060     0.6664840
  C       -2.7501460     0.4600780    -1.0541460
  C       -3.6446450    -0.2696140    -0.2693330
  H        3.4771330     1.0370890     0.2130050
  H        0.3959040    -2.7961940    -0.3173570
  H       -1.0565290     1.9282880     0.9155270
  H        0.0644020     2.9550460     1.8334400
  H       -0.0079680     1.2163630     2.1705520
  H        0.9831900     3.6889080    -0.3483400
  H        0.1002970     2.4765200    -1.3270240
  H        1.8830790     2.5039500    -1.3156910
  H        4.4021620    -1.2332020    -0.2239060
  H        2.8456380    -3.1770500    -0.4305570
  H       -1.2975550    -1.9637590     1.5022950
  H       -3.7883330    -1.7471360     1.3046070
  H       -3.1157890     1.1676090    -1.7971140
  H       -4.7159820    -0.1358610    -0.3911380
units angstrom
no_reorient  #important for SAPT in psi4, default
symmetry c1  #important for SAPT in psi4, default
}

set PROPERTIES_ORIGIN ["COM"]
properties('MP2/aug-cc-pvtz', properties = ['dipole'])
--------------------------------------------------------------------------

    Molecular point group: c1
  Charge       = 0
  Multiplicity = 1
  Basis Set: AUG-CC-PVTZ
    Blend: AUG-CC-PVTZ
  Basis Set: (AUG-CC-PVTZ AUX)
    Blend: AUG-CC-PVTZ-JKFIT

    Orbital Energies [Eh]
    ---------------------

    Doubly Occupied:

       1A    -15.565866     2A    -15.545548     3A    -11.286309
       4A    -11.279232     5A    -11.267064     6A    -11.263692
       7A    -11.243810     8A    -11.242858     9A    -11.239338
      10A    -11.238096    11A    -11.236640    12A    -11.236518
      13A    -11.234071    14A    -11.229426    15A    -11.224710
      16A     -1.260584    17A     -1.230330    18A     -1.137313
      19A     -1.089080    20A     -1.060646    21A     -1.004776
      22A     -0.992319    23A     -0.950153    24A     -0.883168
      25A     -0.862512    26A     -0.852268    27A     -0.809523
      28A     -0.781096    29A     -0.718293    30A     -0.683841
      31A     -0.667696    32A     -0.659881    33A     -0.642543
      34A     -0.632308    35A     -0.607987    36A     -0.602583
      37A     -0.587987    38A     -0.582057    39A     -0.574902
      40A     -0.551763    41A     -0.541898    42A     -0.530478
      43A     -0.521600    44A     -0.510298    45A     -0.497175
      46A     -0.490486    47A     -0.484487    48A     -0.419578
      49A     -0.386494    50A     -0.366670    51A     -0.358021
      52A     -0.318353    53A     -0.303401

  @DF-RHF Final Energy:  -609.49914471122509

   => Energetics <=

    Nuclear Repulsion Energy =            950.6615138961650473
    One-Electron Energy =               -2713.3458622836342329
    Two-Electron Energy =                1153.1852036762438729
    Total Energy =                       -609.4991447112251990
  Basis Set: (AUG-CC-PVTZ AUX)
    Blend: AUG-CC-PVTZ-RI
    Molecular point group: c1

    Geometry (in Angstrom), charge = 0, multiplicity = 1:

       Center              X                  Y                   Z               Mass
    ------------   -----------------  -----------------  -----------------  -----------------
         N            1.038846561354     1.792695153383     0.453558651260    14.003074004430
         N           -1.414242438646     0.383225153383    -0.962035348740    14.003074004430
         C            1.429019561354     0.456932153383     0.156798651260    12.000000000000
         C            0.551219561354    -0.638145846617    -0.005129348740    12.000000000000
         C           -0.920122438646    -0.486131846617    -0.051036348740    12.000000000000
         C            2.811067561354     0.223800153383     0.065158651260    12.000000000000
         C            1.081875561354    -1.927395846617    -0.183641348740    12.000000000000
         C           -0.022764438646     1.925903853383     1.439774151260    12.000000000000
         C            0.987842561354     2.687095153383    -0.699640348740    12.000000000000
         C            3.324766561354    -1.051135846617    -0.157968348740    12.000000000000
         C            2.455621561354    -2.139596846617    -0.268108348740    12.000000000000
         C           -1.745877438646    -1.255792846617     0.781017651260    12.000000000000
         C           -3.129244438646    -1.130695846617     0.671975651260    12.000000000000
         C           -2.751658438646     0.494188153383    -1.048654348740    12.000000000000
         C           -3.646157438646    -0.235503846617    -0.263841348740    12.000000000000
         H            3.475620561354     1.071199153383     0.218496651260     1.007825032230
         H            0.394391561354    -2.762083846617    -0.311865348740     1.007825032230
         H           -1.058041438646     1.962398153383     0.921018651260     1.007825032230
         H            0.062889561354     2.989156153383     1.838931651260     1.007825032230
         H           -0.009480438646     1.250473153383     2.176043651260     1.007825032230
         H            0.981677561354     3.723018153383    -0.342848348740     1.007825032230
         H            0.098784561354     2.510630153383    -1.321532348740     1.007825032230
         H            1.881566561354     2.538060153383    -1.310199348740     1.007825032230
         H            4.400649561354    -1.199091846617    -0.218414348740     1.007825032230
         H            2.844125561354    -3.142939846617    -0.425065348740     1.007825032230
         H           -1.299067438646    -1.929648846617     1.507786651260     1.007825032230
         H           -3.789845438646    -1.713025846617     1.310098651260     1.007825032230
         H           -3.117301438646     1.201719153383    -1.791622348740     1.007825032230
         H           -4.717494438646    -0.101750846617    -0.385646348740     1.007825032230

  Basis Set: AUG-CC-PVTZ
    Blend: AUG-CC-PVTZ
  Basis Set: (AUG-CC-PVTZ AUX)
    Blend: AUG-CC-PVTZ-JKFIT
	 Reference Energy          =    -609.4991447112250853 [Eh]
	 Singles Energy            =      -0.0000000000000000 [Eh]
	 Same-Spin Energy          =      -0.6836257057440962 [Eh]
	 Opposite-Spin Energy      =      -2.1360858808160836 [Eh]
	 Correlation Energy        =      -2.8197115865601798 [Eh]
	 Total Energy              =    -612.3188562977852598 [Eh]

	 ================> DF-SCS-MP2 Energies <==================
	-----------------------------------------------------------
	 SCS Same-Spin Scale       =       0.3333333333333333 [-]
	 SCS Opposite-Spin Scale   =       1.2000000000000000 [-]
	 SCS Same-Spin Energy      =      -0.2278752352480320 [Eh]
	 SCS Opposite-Spin Energy  =      -2.5633030569793003 [Eh]
	 SCS Correlation Energy    =      -2.7911782922273325 [Eh]
	 SCS Total Energy          =    -612.2903230034523858 [Eh]
	-----------------------------------------------------------

  Dipole Moment: [D]
     X:    -1.8746      Y:    -0.7814      Z:     0.8480     Total:     2.2009

*** Psi4 exiting successfully. Buy a developer a beer!
