                               Psi4 1.3.2 release

  ==> Input File <==

--------------------------------------------------------------------------
#psi4
#
memory 32 gb

molecule  {
0 1
  N        1.0403590     1.7585850     0.4480670
  N       -1.4127300     0.3491150    -0.9675270
  C        1.4305320     0.4228220     0.1513070
  C        0.5527320    -0.6722560    -0.0106210
  C       -0.9186100    -0.5202420    -0.0565280
  C        2.8125800     0.1896900     0.0596670
  C        1.0833880    -1.9615060    -0.1891330
  C        0.0002464     1.8544434     1.4611615
  C        0.9893550     2.6529850    -0.7051320
  C        3.3262790    -1.0852460    -0.1634600
  C        2.4571340    -2.1737070    -0.2736000
  C       -1.7443650    -1.2899030     0.7755260
  C       -3.1277320    -1.1648060     0.6664840
  C       -2.7501460     0.4600780    -1.0541460
  C       -3.6446450    -0.2696140    -0.2693330
  H        3.4771330     1.0370890     0.2130050
  H        0.3959040    -2.7961940    -0.3173570
  H       -1.0565290     1.9282880     0.9155270
  H        0.0644020     2.9550460     1.8334400
  H       -0.0079680     1.2163630     2.1705520
  H        0.9831900     3.6889080    -0.3483400
  H        0.1002970     2.4765200    -1.3270240
  H        1.8830790     2.5039500    -1.3156910
  H        4.4021620    -1.2332020    -0.2239060
  H        2.8456380    -3.1770500    -0.4305570
  H       -1.2975550    -1.9637590     1.5022950
  H       -3.7883330    -1.7471360     1.3046070
  H       -3.1157890     1.1676090    -1.7971140
  H       -4.7159820    -0.1358610    -0.3911380
units angstrom
no_reorient  #important for SAPT in psi4, default
symmetry c1  #important for SAPT in psi4, default
}

set PROPERTIES_ORIGIN ["COM"]
properties('MP2/aug-cc-pvtz', properties = ['dipole'])
--------------------------------------------------------------------------

    Molecular point group: c1
  Charge       = 0
  Multiplicity = 1
  Basis Set: AUG-CC-PVTZ
    Blend: AUG-CC-PVTZ
  Basis Set: (AUG-CC-PVTZ AUX)
    Blend: AUG-CC-PVTZ-JKFIT

    Orbital Energies [Eh]
    ---------------------

    Doubly Occupied:

       1A    -15.565542     2A    -15.546279     3A    -11.286112
       4A    -11.279017     5A    -11.266636     6A    -11.263514
       7A    -11.243588     8A    -11.242659     9A    -11.240375
      10A    -11.239354    11A    -11.238150    12A    -11.236716
      13A    -11.234085    14A    -11.229497    15A    -11.224614
      16A     -1.260370    17A     -1.230837    18A     -1.137232
      19A     -1.088851    20A     -1.060566    21A     -1.004438
      22A     -0.992147    23A     -0.954079    24A     -0.883122
      25A     -0.862355    26A     -0.852511    27A     -0.809594
      28A     -0.782557    29A     -0.718843    30A     -0.686451
      31A     -0.667494    32A     -0.661100    33A     -0.644025
      34A     -0.632764    35A     -0.606065    36A     -0.602844
      37A     -0.588177    38A     -0.582745    39A     -0.574808
      40A     -0.552588    41A     -0.542989    42A     -0.534684
      43A     -0.521775    44A     -0.504912    45A     -0.495773
      46A     -0.490410    47A     -0.481994    48A     -0.419333
      49A     -0.386252    50A     -0.365373    51A     -0.356469
      52A     -0.317918    53A     -0.303025

  @DF-RHF Final Energy:  -609.48173321055708

   => Energetics <=

    Nuclear Repulsion Energy =            950.8018332927432539
    One-Electron Energy =               -2713.5799168309445122
    Two-Electron Energy =                1153.2963503276441770
    Total Energy =                       -609.4817332105571950
  Basis Set: (AUG-CC-PVTZ AUX)
    Blend: AUG-CC-PVTZ-RI
    Molecular point group: c1

    Geometry (in Angstrom), charge = 0, multiplicity = 1:

       Center              X                  Y                   Z               Mass
    ------------   -----------------  -----------------  -----------------  -----------------
         N            1.037544388926     1.794957485966     0.451930572301    14.003074004430
         N           -1.415544611074     0.385487485966    -0.963663427699    14.003074004430
         C            1.427717388926     0.459194485966     0.155170572301    12.000000000000
         C            0.549917388926    -0.635883514034    -0.006757427699    12.000000000000
         C           -0.921424611074    -0.483869514034    -0.052664427699    12.000000000000
         C            2.809765388926     0.226062485966     0.063530572301    12.000000000000
         C            1.080573388926    -1.925133514034    -0.185269427699    12.000000000000
         C           -0.002568211074     1.890815885966     1.465025072301    12.000000000000
         C            0.986540388926     2.689357485966    -0.701268427699    12.000000000000
         C            3.323464388926    -1.048873514034    -0.159596427699    12.000000000000
         C            2.454319388926    -2.137334514034    -0.269736427699    12.000000000000
         C           -1.747179611074    -1.253530514034     0.779389572301    12.000000000000
         C           -3.130546611074    -1.128433514034     0.670347572301    12.000000000000
         C           -2.752960611074     0.496450485966    -1.050282427699    12.000000000000
         C           -3.647459611074    -0.233241514034    -0.265469427699    12.000000000000
         H            3.474318388926     1.073461485966     0.216868572301     1.007825032230
         H            0.393089388926    -2.759821514034    -0.313493427699     1.007825032230
         H           -1.059343611074     1.964660485966     0.919390572301     1.007825032230
         H            0.061587388926     2.991418485966     1.837303572301     1.007825032230
         H           -0.010782611074     1.252735485966     2.174415572301     1.007825032230
         H            0.980375388926     3.725280485966    -0.344476427699     1.007825032230
         H            0.097482388926     2.512892485966    -1.323160427699     1.007825032230
         H            1.880264388926     2.540322485966    -1.311827427699     1.007825032230
         H            4.399347388926    -1.196829514034    -0.220042427699     1.007825032230
         H            2.842823388926    -3.140677514034    -0.426693427699     1.007825032230
         H           -1.300369611074    -1.927386514034     1.506158572301     1.007825032230
         H           -3.791147611074    -1.710763514034     1.308470572301     1.007825032230
         H           -3.118603611074     1.203981485966    -1.793250427699     1.007825032230
         H           -4.718796611074    -0.099488514034    -0.387274427699     1.007825032230

  Basis Set: AUG-CC-PVTZ
    Blend: AUG-CC-PVTZ
  Basis Set: (AUG-CC-PVTZ AUX)
    Blend: AUG-CC-PVTZ-JKFIT
	 Reference Energy          =    -609.4817332105570813 [Eh]
	 Singles Energy            =      -0.0000000000000000 [Eh]
	 Same-Spin Energy          =      -0.6839528857509334 [Eh]
	 Opposite-Spin Energy      =      -2.1369159721869795 [Eh]
	 Correlation Energy        =      -2.8208688579379126 [Eh]
	 Total Energy              =    -612.3026020684950481 [Eh]

	 ================> DF-SCS-MP2 Energies <==================
	-----------------------------------------------------------
	 SCS Same-Spin Scale       =       0.3333333333333333 [-]
	 SCS Opposite-Spin Scale   =       1.2000000000000000 [-]
	 SCS Same-Spin Energy      =      -0.2279842952503111 [Eh]
	 SCS Opposite-Spin Energy  =      -2.5642991666243753 [Eh]
	 SCS Correlation Energy    =      -2.7922834618746863 [Eh]
	 SCS Total Energy          =    -612.2740166724317987 [Eh]
	-----------------------------------------------------------

  Dipole Moment: [D]
     X:    -1.8244      Y:    -0.7879      Z:     0.8293     Total:     2.1533

*** Psi4 exiting successfully. Buy a developer a beer!
