                               Psi4 1.3.2 release

  ==> Input File <==

--------------------------------------------------------------------------
#psi4
#
memory 32 gb

molecule  {
0 1
  N        1.0403590     1.7585850     0.4480670
  N       -1.4127300     0.3491150    -0.9675270
  C        1.3756890     0.6105779     0.1930198
  C        0.5527320    -0.6722560    -0.0106210
  C       -0.9186100    -0.5202420    -0.0565280
  C        2.8125800     0.1896900     0.0596670
  C        1.0833880    -1.9615060    -0.1891330
  C       -0.0603440     1.9659620     1.3769540
  C        0.9893550     2.6529850    -0.7051320
  C        3.3262790    -1.0852460    -0.1634600
  C        2.4571340    -2.1737070    -0.2736000
  C       -1.7443650    -1.2899030     0.7755260
  C       -3.1277320    -1.1648060     0.6664840
  C       -2.7501460     0.4600780    -1.0541460
  C       -3.6446450    -0.2696140    -0.2693330
  H        3.4771330     1.0370890     0.2130050
  H        0.3959040    -2.7961940    -0.3173570
  H       -1.0565290     1.9282880     0.9155270
  H        0.0644020     2.9550460     1.8334400
  H       -0.0079680     1.2163630     2.1705520
  H        0.9831900     3.6889080    -0.3483400
  H        0.1002970     2.4765200    -1.3270240
  H        1.8830790     2.5039500    -1.3156910
  H        4.4021620    -1.2332020    -0.2239060
  H        2.8456380    -3.1770500    -0.4305570
  H       -1.2975550    -1.9637590     1.5022950
  H       -3.7883330    -1.7471360     1.3046070
  H       -3.1157890     1.1676090    -1.7971140
  H       -4.7159820    -0.1358610    -0.3911380
units angstrom
no_reorient  #important for SAPT in psi4, default
symmetry c1  #important for SAPT in psi4, default
}

set PROPERTIES_ORIGIN ["COM"]
properties('MP2/aug-cc-pvtz', properties = ['dipole'])
--------------------------------------------------------------------------

    Molecular point group: c1
  Charge       = 0
  Multiplicity = 1
  Basis Set: AUG-CC-PVTZ
    Blend: AUG-CC-PVTZ
  Basis Set: (AUG-CC-PVTZ AUX)
    Blend: AUG-CC-PVTZ-JKFIT

    Orbital Energies [Eh]
    ---------------------

    Doubly Occupied:

       1A    -15.563513     2A    -15.557783     3A    -11.283554
       4A    -11.280337     5A    -11.278073     6A    -11.261606
       7A    -11.251556     8A    -11.251381     9A    -11.241622
      10A    -11.238914    11A    -11.238683    12A    -11.231114
      13A    -11.228510    14A    -11.222842    15A    -11.219755
      16A     -1.308494    17A     -1.254922    18A     -1.119368
      19A     -1.086911    20A     -1.053394    21A     -0.998166
      22A     -0.982841    23A     -0.964907    24A     -0.912887
      25A     -0.859235    26A     -0.853861    27A     -0.792409
      28A     -0.774027    29A     -0.711020    30A     -0.693604
      31A     -0.671393    32A     -0.661925    33A     -0.651584
      34A     -0.640814    35A     -0.632291    36A     -0.595015
      37A     -0.582773    38A     -0.577407    39A     -0.569433
      40A     -0.558148    41A     -0.550144    42A     -0.535877
      43A     -0.527067    44A     -0.522065    45A     -0.504242
      46A     -0.480904    47A     -0.469607    48A     -0.417535
      49A     -0.387594    50A     -0.373855    51A     -0.352984
      52A     -0.312454    53A     -0.276131

  @DF-RHF Final Energy:  -609.44842305396116

   => Energetics <=

    Nuclear Repulsion Energy =            950.8096977938300824
    One-Electron Energy =               -2713.3831796497779578
    Two-Electron Energy =                1153.1250588019868246
    Total Energy =                       -609.4484230539610508
  Basis Set: (AUG-CC-PVTZ AUX)
    Blend: AUG-CC-PVTZ-RI
    Molecular point group: c1

    Geometry (in Angstrom), charge = 0, multiplicity = 1:

       Center              X                  Y                   Z               Mass
    ------------   -----------------  -----------------  -----------------  -----------------
         N            1.044536266959     1.776830229884     0.454504504625    14.003074004430
         N           -1.408552733041     0.367360229884    -0.961089495375    14.003074004430
         C            1.379866266959     0.628823129884     0.199457304625    12.000000000000
         C            0.556909266959    -0.654010770116    -0.004183495375    12.000000000000
         C           -0.914432733041    -0.501996770116    -0.050090495375    12.000000000000
         C            2.816757266959     0.207935229884     0.066104504625    12.000000000000
         C            1.087565266959    -1.943260770116    -0.182695495375    12.000000000000
         C           -0.056166733041     1.984207229884     1.383391504625    12.000000000000
         C            0.993532266959     2.671230229884    -0.698694495375    12.000000000000
         C            3.330456266959    -1.067000770116    -0.157022495375    12.000000000000
         C            2.461311266959    -2.155461770116    -0.267162495375    12.000000000000
         C           -1.740187733041    -1.271657770116     0.781963504625    12.000000000000
         C           -3.123554733041    -1.146560770116     0.672921504625    12.000000000000
         C           -2.745968733041     0.478323229884    -1.047708495375    12.000000000000
         C           -3.640467733041    -0.251368770116    -0.262895495375    12.000000000000
         H            3.481310266959     1.055334229884     0.219442504625     1.007825032230
         H            0.400081266959    -2.777948770116    -0.310919495375     1.007825032230
         H           -1.052351733041     1.946533229884     0.921964504625     1.007825032230
         H            0.068579266959     2.973291229884     1.839877504625     1.007825032230
         H           -0.003790733041     1.234608229884     2.176989504625     1.007825032230
         H            0.987367266959     3.707153229884    -0.341902495375     1.007825032230
         H            0.104474266959     2.494765229884    -1.320586495375     1.007825032230
         H            1.887256266959     2.522195229884    -1.309253495375     1.007825032230
         H            4.406339266959    -1.214956770116    -0.217468495375     1.007825032230
         H            2.849815266959    -3.158804770116    -0.424119495375     1.007825032230
         H           -1.293377733041    -1.945513770116     1.508732504625     1.007825032230
         H           -3.784155733041    -1.728890770116     1.311044504625     1.007825032230
         H           -3.111611733041     1.185854229884    -1.790676495375     1.007825032230
         H           -4.711804733041    -0.117615770116    -0.384700495375     1.007825032230

  Basis Set: AUG-CC-PVTZ
    Blend: AUG-CC-PVTZ
  Basis Set: (AUG-CC-PVTZ AUX)
    Blend: AUG-CC-PVTZ-JKFIT
	 Reference Energy          =    -609.4484230539611644 [Eh]
	 Singles Energy            =      -0.0000000000000000 [Eh]
	 Same-Spin Energy          =      -0.6879758950371122 [Eh]
	 Opposite-Spin Energy      =      -2.1416154726737369 [Eh]
	 Correlation Energy        =      -2.8295913677108491 [Eh]
	 Total Energy              =    -612.2780144216719691 [Eh]

	 ================> DF-SCS-MP2 Energies <==================
	-----------------------------------------------------------
	 SCS Same-Spin Scale       =       0.3333333333333333 [-]
	 SCS Opposite-Spin Scale   =       1.2000000000000000 [-]
	 SCS Same-Spin Energy      =      -0.2293252983457041 [Eh]
	 SCS Opposite-Spin Energy  =      -2.5699385672084842 [Eh]
	 SCS Correlation Energy    =      -2.7992638655541882 [Eh]
	 SCS Total Energy          =    -612.2476869195153313 [Eh]
	-----------------------------------------------------------

  Dipole Moment: [D]
     X:    -2.2668      Y:     0.3850      Z:     1.0637     Total:     2.5334

*** Psi4 exiting successfully. Buy a developer a beer!
