                               Psi4 1.3.2 release

  ==> Input File <==

--------------------------------------------------------------------------
#psi4
#
memory 32 gb

molecule  {
0 1
  N        1.0065403     1.7535175     0.4105128
  N       -1.4127300     0.3491150    -0.9675270
  C        1.4305320     0.4228220     0.1513070
  C        0.5527320    -0.6722560    -0.0106210
  C       -0.9186100    -0.5202420    -0.0565280
  C        2.8125800     0.1896900     0.0596670
  C        1.0833880    -1.9615060    -0.1891330
  C       -0.0603440     1.9659620     1.3769540
  C        0.9893550     2.6529850    -0.7051320
  C        3.3262790    -1.0852460    -0.1634600
  C        2.4571340    -2.1737070    -0.2736000
  C       -1.7443650    -1.2899030     0.7755260
  C       -3.1277320    -1.1648060     0.6664840
  C       -2.7501460     0.4600780    -1.0541460
  C       -3.6446450    -0.2696140    -0.2693330
  H        3.4771330     1.0370890     0.2130050
  H        0.3959040    -2.7961940    -0.3173570
  H       -1.0565290     1.9282880     0.9155270
  H        0.0644020     2.9550460     1.8334400
  H       -0.0079680     1.2163630     2.1705520
  H        0.9831900     3.6889080    -0.3483400
  H        0.1002970     2.4765200    -1.3270240
  H        1.8830790     2.5039500    -1.3156910
  H        4.4021620    -1.2332020    -0.2239060
  H        2.8456380    -3.1770500    -0.4305570
  H       -1.2975550    -1.9637590     1.5022950
  H       -3.7883330    -1.7471360     1.3046070
  H       -3.1157890     1.1676090    -1.7971140
  H       -4.7159820    -0.1358610    -0.3911380
units angstrom
no_reorient  #important for SAPT in psi4, default
symmetry c1  #important for SAPT in psi4, default
}

set PROPERTIES_ORIGIN ["COM"]
properties('MP2/aug-cc-pvtz', properties = ['dipole'])
--------------------------------------------------------------------------

    Molecular point group: c1
  Charge       = 0
  Multiplicity = 1
  Basis Set: AUG-CC-PVTZ
    Blend: AUG-CC-PVTZ
  Basis Set: (AUG-CC-PVTZ AUX)
    Blend: AUG-CC-PVTZ-JKFIT

    Orbital Energies [Eh]
    ---------------------

    Doubly Occupied:

       1A    -15.566147     2A    -15.541334     3A    -11.286430
       4A    -11.279300     5A    -11.268926     6A    -11.263722
       7A    -11.243899     8A    -11.242965     9A    -11.238922
      10A    -11.237025    11A    -11.236508    12A    -11.234613
      13A    -11.231974    14A    -11.229574    15A    -11.225785
      16A     -1.261079    17A     -1.232798    18A     -1.138454
      19A     -1.089189    20A     -1.060754    21A     -1.006359
      22A     -0.993009    23A     -0.947019    24A     -0.883563
      25A     -0.862732    26A     -0.853134    27A     -0.809117
      28A     -0.779903    29A     -0.717901    30A     -0.681882
      31A     -0.668272    32A     -0.659062    33A     -0.642854
      34A     -0.631054    35A     -0.613686    36A     -0.602276
      37A     -0.588200    38A     -0.583600    39A     -0.576200
      40A     -0.551780    41A     -0.541824    42A     -0.525960
      43A     -0.523130    44A     -0.508431    45A     -0.497735
      46A     -0.491469    47A     -0.488782    48A     -0.419705
      49A     -0.386340    50A     -0.367004    51A     -0.358876
      52A     -0.319091    53A     -0.302060

  @DF-RHF Final Energy:  -609.51184023279336

   => Energetics <=

    Nuclear Repulsion Energy =            951.1331574238434996
    One-Electron Energy =               -2714.3071797809329837
    Two-Electron Energy =                1153.6621821242961232
    Total Energy =                       -609.5118402327934746
  Basis Set: (AUG-CC-PVTZ AUX)
    Blend: AUG-CC-PVTZ-RI
    Molecular point group: c1

    Geometry (in Angstrom), charge = 0, multiplicity = 1:

       Center              X                  Y                   Z               Mass
    ------------   -----------------  -----------------  -----------------  -----------------
         N            1.009786039359     1.783493407440     0.422131256209    14.003074004430
         N           -1.409484260641     0.379090907440    -0.955908543791    14.003074004430
         C            1.433777739359     0.452797907440     0.162925456209    12.000000000000
         C            0.555977739359    -0.642280092560     0.000997456209    12.000000000000
         C           -0.915364260641    -0.490266092560    -0.044909543791    12.000000000000
         C            2.815825739359     0.219665907440     0.071285456209    12.000000000000
         C            1.086633739359    -1.931530092560    -0.177514543791    12.000000000000
         C           -0.057098260641     1.995937907440     1.388572456209    12.000000000000
         C            0.992600739359     2.682960907440    -0.693513543791    12.000000000000
         C            3.329524739359    -1.055270092560    -0.151841543791    12.000000000000
         C            2.460379739359    -2.143731092560    -0.261981543791    12.000000000000
         C           -1.741119260641    -1.259927092560     0.787144456209    12.000000000000
         C           -3.124486260641    -1.134830092560     0.678102456209    12.000000000000
         C           -2.746900260641     0.490053907440    -1.042527543791    12.000000000000
         C           -3.641399260641    -0.239638092560    -0.257714543791    12.000000000000
         H            3.480378739359     1.067064907440     0.224623456209     1.007825032230
         H            0.399149739359    -2.766218092560    -0.305738543791     1.007825032230
         H           -1.053283260641     1.958263907440     0.927145456209     1.007825032230
         H            0.067647739359     2.985021907440     1.845058456209     1.007825032230
         H           -0.004722260641     1.246338907440     2.182170456209     1.007825032230
         H            0.986435739359     3.718883907440    -0.336721543791     1.007825032230
         H            0.103542739359     2.506495907440    -1.315405543791     1.007825032230
         H            1.886324739359     2.533925907440    -1.304072543791     1.007825032230
         H            4.405407739359    -1.203226092560    -0.212287543791     1.007825032230
         H            2.848883739359    -3.147074092560    -0.418938543791     1.007825032230
         H           -1.294309260641    -1.933783092560     1.513913456209     1.007825032230
         H           -3.785087260641    -1.717160092560     1.316225456209     1.007825032230
         H           -3.112543260641     1.197584907440    -1.785495543791     1.007825032230
         H           -4.712736260641    -0.105885092560    -0.379519543791     1.007825032230

  Basis Set: AUG-CC-PVTZ
    Blend: AUG-CC-PVTZ
  Basis Set: (AUG-CC-PVTZ AUX)
    Blend: AUG-CC-PVTZ-JKFIT
	 Reference Energy          =    -609.5118402327933609 [Eh]
	 Singles Energy            =      -0.0000000000000000 [Eh]
	 Same-Spin Energy          =      -0.6834104451672049 [Eh]
	 Opposite-Spin Energy      =      -2.1351153847572499 [Eh]
	 Correlation Energy        =      -2.8185258299244547 [Eh]
	 Total Energy              =    -612.3303660627178715 [Eh]

	 ================> DF-SCS-MP2 Energies <==================
	-----------------------------------------------------------
	 SCS Same-Spin Scale       =       0.3333333333333333 [-]
	 SCS Opposite-Spin Scale   =       1.2000000000000000 [-]
	 SCS Same-Spin Energy      =      -0.2278034817224016 [Eh]
	 SCS Opposite-Spin Energy  =      -2.5621384617086997 [Eh]
	 SCS Correlation Energy    =      -2.7899419434311015 [Eh]
	 SCS Total Energy          =    -612.3017821762244921 [Eh]
	-----------------------------------------------------------

  Dipole Moment: [D]
     X:    -1.8638      Y:    -0.7632      Z:     0.9378     Total:     2.2216

*** Psi4 exiting successfully. Buy a developer a beer!
