                               Psi4 1.3.2 release

  ==> Input File <==

--------------------------------------------------------------------------
#psi4
#
memory 32 gb

molecule  {
0 1
  N        1.0403590     1.7585850     0.4480670
  N       -1.4127300     0.3491150    -0.9675270
  C        1.4305320     0.4228220     0.1513070
  C        0.5527320    -0.6722560    -0.0106210
  C       -0.9186100    -0.5202420    -0.0565280
  C        2.8125800     0.1896900     0.0596670
  C        1.0833880    -1.9615060    -0.1891330
  C       -0.0778900     2.0026897     1.3465744
  C        0.9893550     2.6529850    -0.7051320
  C        3.3262790    -1.0852460    -0.1634600
  C        2.4571340    -2.1737070    -0.2736000
  C       -1.7443650    -1.2899030     0.7755260
  C       -3.1277320    -1.1648060     0.6664840
  C       -2.7501460     0.4600780    -1.0541460
  C       -3.6446450    -0.2696140    -0.2693330
  H        3.4771330     1.0370890     0.2130050
  H        0.3959040    -2.7961940    -0.3173570
  H       -1.0565290     1.9282880     0.9155270
  H        0.0644020     2.9550460     1.8334400
  H       -0.0079680     1.2163630     2.1705520
  H        0.9831900     3.6889080    -0.3483400
  H        0.1002970     2.4765200    -1.3270240
  H        1.8830790     2.5039500    -1.3156910
  H        4.4021620    -1.2332020    -0.2239060
  H        2.8456380    -3.1770500    -0.4305570
  H       -1.2975550    -1.9637590     1.5022950
  H       -3.7883330    -1.7471360     1.3046070
  H       -3.1157890     1.1676090    -1.7971140
  H       -4.7159820    -0.1358610    -0.3911380
units angstrom
no_reorient  #important for SAPT in psi4, default
symmetry c1  #important for SAPT in psi4, default
}

set PROPERTIES_ORIGIN ["COM"]
properties('MP2/aug-cc-pvtz', properties = ['dipole'])
--------------------------------------------------------------------------

    Molecular point group: c1
  Charge       = 0
  Multiplicity = 1
  Basis Set: AUG-CC-PVTZ
    Blend: AUG-CC-PVTZ
  Basis Set: (AUG-CC-PVTZ AUX)
    Blend: AUG-CC-PVTZ-JKFIT

    Orbital Energies [Eh]
    ---------------------

    Doubly Occupied:

       1A    -15.566790     2A    -15.545781     3A    -11.286932
       4A    -11.279817     5A    -11.269014     6A    -11.264096
       7A    -11.244368     8A    -11.243321     9A    -11.239688
      10A    -11.236722    11A    -11.236593    12A    -11.234398
      13A    -11.233120    14A    -11.229570    15A    -11.225500
      16A     -1.261344    17A     -1.230460    18A     -1.138122
      19A     -1.089649    20A     -1.061019    21A     -1.006566
      22A     -0.993082    23A     -0.942317    24A     -0.884722
      25A     -0.863049    26A     -0.853870    27A     -0.809747
      28A     -0.780426    29A     -0.718166    30A     -0.680928
      31A     -0.668574    32A     -0.659029    33A     -0.642108
      34A     -0.630953    35A     -0.612824    36A     -0.601595
      37A     -0.588188    38A     -0.583228    39A     -0.576953
      40A     -0.552860    41A     -0.542204    42A     -0.528381
      43A     -0.525312    44A     -0.500926    45A     -0.494189
      46A     -0.488644    47A     -0.485422    48A     -0.420348
      49A     -0.387229    50A     -0.372037    51A     -0.360353
      52A     -0.319583    53A     -0.304423

  @DF-RHF Final Energy:  -609.50907584644665

   => Energetics <=

    Nuclear Repulsion Energy =            950.3278113077670923
    One-Electron Energy =               -2712.6846943164846380
    Two-Electron Energy =                1152.8478071622707830
    Total Energy =                       -609.5090758464466489
  Basis Set: (AUG-CC-PVTZ AUX)
    Blend: AUG-CC-PVTZ-RI
    Molecular point group: c1

    Geometry (in Angstrom), charge = 0, multiplicity = 1:

       Center              X                  Y                   Z               Mass
    ------------   -----------------  -----------------  -----------------  -----------------
         N            1.042277162792     1.785978108694     0.458871189379    14.003074004430
         N           -1.410811837208     0.376508108694    -0.956722810621    14.003074004430
         C            1.432450162792     0.450215108694     0.162111189379    12.000000000000
         C            0.554650162792    -0.644862891306     0.000183189379    12.000000000000
         C           -0.916691837208    -0.492848891306    -0.045723810621    12.000000000000
         C            2.814498162792     0.217083108694     0.070471189379    12.000000000000
         C            1.085306162792    -1.934112891306    -0.178328810621    12.000000000000
         C           -0.075971837208     2.030082808694     1.357378589379    12.000000000000
         C            0.991273162792     2.680378108694    -0.694327810621    12.000000000000
         C            3.328197162792    -1.057852891306    -0.152655810621    12.000000000000
         C            2.459052162792    -2.146313891306    -0.262795810621    12.000000000000
         C           -1.742446837208    -1.262509891306     0.786330189379    12.000000000000
         C           -3.125813837208    -1.137412891306     0.677288189379    12.000000000000
         C           -2.748227837208     0.487471108694    -1.043341810621    12.000000000000
         C           -3.642726837208    -0.242220891306    -0.258528810621    12.000000000000
         H            3.479051162792     1.064482108694     0.223809189379     1.007825032230
         H            0.397822162792    -2.768800891306    -0.306552810621     1.007825032230
         H           -1.054610837208     1.955681108694     0.926331189379     1.007825032230
         H            0.066320162792     2.982439108694     1.844244189379     1.007825032230
         H           -0.006049837208     1.243756108694     2.181356189379     1.007825032230
         H            0.985108162792     3.716301108694    -0.337535810621     1.007825032230
         H            0.102215162792     2.503913108694    -1.316219810621     1.007825032230
         H            1.884997162792     2.531343108694    -1.304886810621     1.007825032230
         H            4.404080162792    -1.205808891306    -0.213101810621     1.007825032230
         H            2.847556162792    -3.149656891306    -0.419752810621     1.007825032230
         H           -1.295636837208    -1.936365891306     1.513099189379     1.007825032230
         H           -3.786414837208    -1.719742891306     1.315411189379     1.007825032230
         H           -3.113870837208     1.195002108694    -1.786309810621     1.007825032230
         H           -4.714063837208    -0.108467891306    -0.380333810621     1.007825032230

  Basis Set: AUG-CC-PVTZ
    Blend: AUG-CC-PVTZ
  Basis Set: (AUG-CC-PVTZ AUX)
    Blend: AUG-CC-PVTZ-JKFIT
	 Reference Energy          =    -609.5090758464466489 [Eh]
	 Singles Energy            =      -0.0000000000000000 [Eh]
	 Same-Spin Energy          =      -0.6834184423130163 [Eh]
	 Opposite-Spin Energy      =      -2.1357340823632400 [Eh]
	 Correlation Energy        =      -2.8191525246762561 [Eh]
	 Total Energy              =    -612.3282283711229184 [Eh]

	 ================> DF-SCS-MP2 Energies <==================
	-----------------------------------------------------------
	 SCS Same-Spin Scale       =       0.3333333333333333 [-]
	 SCS Opposite-Spin Scale   =       1.2000000000000000 [-]
	 SCS Same-Spin Energy      =      -0.2278061474376721 [Eh]
	 SCS Opposite-Spin Energy  =      -2.5628808988358878 [Eh]
	 SCS Correlation Energy    =      -2.7906870462735598 [Eh]
	 SCS Total Energy          =    -612.2997628927201959 [Eh]
	-----------------------------------------------------------

  Dipole Moment: [D]
     X:    -1.9713      Y:    -0.7642      Z:     0.8335     Total:     2.2726

*** Psi4 exiting successfully. Buy a developer a beer!
