                               Psi4 1.3.2 release

  ==> Input File <==

--------------------------------------------------------------------------
#psi4
#
memory 32 gb

molecule  {
0 1
  N        1.0403590     1.7585850     0.4480670
  N       -1.4127300     0.3491150    -0.9675270
  C        1.4305320     0.4228220     0.1513070
  C        0.5527320    -0.6722560    -0.0106210
  C       -0.9186100    -0.5202420    -0.0565280
  C        2.8125800     0.1896900     0.0596670
  C        1.0833880    -1.9615060    -0.1891330
  C       -0.1088749     2.0752085     1.2825695
  C        0.9893550     2.6529850    -0.7051320
  C        3.3262790    -1.0852460    -0.1634600
  C        2.4571340    -2.1737070    -0.2736000
  C       -1.7443650    -1.2899030     0.7755260
  C       -3.1277320    -1.1648060     0.6664840
  C       -2.7501460     0.4600780    -1.0541460
  C       -3.6446450    -0.2696140    -0.2693330
  H        3.4771330     1.0370890     0.2130050
  H        0.3959040    -2.7961940    -0.3173570
  H       -1.0565290     1.9282880     0.9155270
  H        0.0644020     2.9550460     1.8334400
  H       -0.0079680     1.2163630     2.1705520
  H        0.9831900     3.6889080    -0.3483400
  H        0.1002970     2.4765200    -1.3270240
  H        1.8830790     2.5039500    -1.3156910
  H        4.4021620    -1.2332020    -0.2239060
  H        2.8456380    -3.1770500    -0.4305570
  H       -1.2975550    -1.9637590     1.5022950
  H       -3.7883330    -1.7471360     1.3046070
  H       -3.1157890     1.1676090    -1.7971140
  H       -4.7159820    -0.1358610    -0.3911380
units angstrom
no_reorient  #important for SAPT in psi4, default
symmetry c1  #important for SAPT in psi4, default
}

set PROPERTIES_ORIGIN ["COM"]
properties('MP2/aug-cc-pvtz', properties = ['dipole'])
--------------------------------------------------------------------------

    Molecular point group: c1
  Charge       = 0
  Multiplicity = 1
  Basis Set: AUG-CC-PVTZ
    Blend: AUG-CC-PVTZ
  Basis Set: (AUG-CC-PVTZ AUX)
    Blend: AUG-CC-PVTZ-JKFIT

    Orbital Energies [Eh]
    ---------------------

    Doubly Occupied:

       1A    -15.567347     2A    -15.547770     3A    -11.287348
       4A    -11.280145     5A    -11.270769     6A    -11.264249
       7A    -11.244642     8A    -11.243509     9A    -11.240221
      10A    -11.240175    11A    -11.237003    12A    -11.234888
      13A    -11.232174    14A    -11.229935    15A    -11.226402
      16A     -1.261918    17A     -1.231980    18A     -1.139117
      19A     -1.089921    20A     -1.061350    21A     -1.008373
      22A     -0.993730    23A     -0.939683    24A     -0.886493
      25A     -0.863421    26A     -0.855722    27A     -0.810189
      28A     -0.781785    29A     -0.718857    30A     -0.681998
      31A     -0.669646    32A     -0.661246    33A     -0.644418
      34A     -0.634073    35A     -0.614735    36A     -0.600068
      37A     -0.588972    38A     -0.585045    39A     -0.578517
      40A     -0.555765    41A     -0.543102    42A     -0.533398
      43A     -0.526004    44A     -0.502203    45A     -0.492877
      46A     -0.489022    47A     -0.456352    48A     -0.420873
      49A     -0.387726    50A     -0.375890    51A     -0.360832
      52A     -0.320389    53A     -0.305176

  @DF-RHF Final Energy:  -609.48879937367326

   => Energetics <=

    Nuclear Repulsion Energy =            950.1541766881839521
    One-Electron Energy =               -2712.2510620881780596
    Two-Electron Energy =                1152.6080860263207342
    Total Energy =                       -609.4887993736733733
  Basis Set: (AUG-CC-PVTZ AUX)
    Blend: AUG-CC-PVTZ-RI
    Molecular point group: c1

    Geometry (in Angstrom), charge = 0, multiplicity = 1:

       Center              X                  Y                   Z               Mass
    ------------   -----------------  -----------------  -----------------  -----------------
         N            1.044153938852     1.781585596608     0.462748008863    14.003074004430
         N           -1.408935061148     0.372115596608    -0.952845991137    14.003074004430
         C            1.434326938852     0.445822596608     0.165988008863    12.000000000000
         C            0.556526938852    -0.649255403392     0.004060008863    12.000000000000
         C           -0.914815061148    -0.497241403392    -0.041846991137    12.000000000000
         C            2.816374938852     0.212690596608     0.074348008863    12.000000000000
         C            1.087182938852    -1.938505403392    -0.174451991137    12.000000000000
         C           -0.105079961148     2.098209096608     1.297250508863    12.000000000000
         C            0.993149938852     2.675985596608    -0.690450991137    12.000000000000
         C            3.330073938852    -1.062245403392    -0.148778991137    12.000000000000
         C            2.460928938852    -2.150706403392    -0.258918991137    12.000000000000
         C           -1.740570061148    -1.266902403392     0.790207008863    12.000000000000
         C           -3.123937061148    -1.141805403392     0.681165008863    12.000000000000
         C           -2.746351061148     0.483078596608    -1.039464991137    12.000000000000
         C           -3.640850061148    -0.246613403392    -0.254651991137    12.000000000000
         H            3.480927938852     1.060089596608     0.227686008863     1.007825032230
         H            0.399698938852    -2.773193403392    -0.302675991137     1.007825032230
         H           -1.052734061148     1.951288596608     0.930208008863     1.007825032230
         H            0.068196938852     2.978046596608     1.848121008863     1.007825032230
         H           -0.004173061148     1.239363596608     2.185233008863     1.007825032230
         H            0.986984938852     3.711908596608    -0.333658991137     1.007825032230
         H            0.104091938852     2.499520596608    -1.312342991137     1.007825032230
         H            1.886873938852     2.526950596608    -1.301009991137     1.007825032230
         H            4.405956938852    -1.210201403392    -0.209224991137     1.007825032230
         H            2.849432938852    -3.154049403392    -0.415875991137     1.007825032230
         H           -1.293760061148    -1.940758403392     1.516976008863     1.007825032230
         H           -3.784538061148    -1.724135403392     1.319288008863     1.007825032230
         H           -3.111994061148     1.190609596608    -1.782432991137     1.007825032230
         H           -4.712187061148    -0.112860403392    -0.376456991137     1.007825032230

  Basis Set: AUG-CC-PVTZ
    Blend: AUG-CC-PVTZ
  Basis Set: (AUG-CC-PVTZ AUX)
    Blend: AUG-CC-PVTZ-JKFIT
	 Reference Energy          =    -609.4887993736732597 [Eh]
	 Singles Energy            =      -0.0000000000000000 [Eh]
	 Same-Spin Energy          =      -0.6838939626514412 [Eh]
	 Opposite-Spin Energy      =      -2.1370832092887468 [Eh]
	 Correlation Energy        =      -2.8209771719401879 [Eh]
	 Total Energy              =    -612.3097765456134312 [Eh]

	 ================> DF-SCS-MP2 Energies <==================
	-----------------------------------------------------------
	 SCS Same-Spin Scale       =       0.3333333333333333 [-]
	 SCS Opposite-Spin Scale   =       1.2000000000000000 [-]
	 SCS Same-Spin Energy      =      -0.2279646542171471 [Eh]
	 SCS Opposite-Spin Energy  =      -2.5644998511464960 [Eh]
	 SCS Correlation Energy    =      -2.7924645053636432 [Eh]
	 SCS Total Energy          =    -612.2812638790369419 [Eh]
	-----------------------------------------------------------

  Dipole Moment: [D]
     X:    -1.9921      Y:    -0.7549      Z:     0.7717     Total:     2.2659

*** Psi4 exiting successfully. Buy a developer a beer!
