                               Psi4 1.3.2 release

  ==> Input File <==

--------------------------------------------------------------------------
#psi4
#
memory 32 gb

molecule  {
0 1
  N        1.0403590     1.7585850     0.4480670
  N       -1.4127300     0.3491150    -0.9675270
  C        1.4305320     0.4228220     0.1513070
  C        0.5527320    -0.6722560    -0.0106210
  C       -0.9186100    -0.5202420    -0.0565280
  C        2.8125800     0.1896900     0.0596670
  C        1.0833880    -1.9615060    -0.1891330
  C       -0.0414570     1.9289816     1.4062019
  C        0.9893550     2.6529850    -0.7051320
  C        3.3262790    -1.0852460    -0.1634600
  C        2.4571340    -2.1737070    -0.2736000
  C       -1.7443650    -1.2899030     0.7755260
  C       -3.1277320    -1.1648060     0.6664840
  C       -2.7501460     0.4600780    -1.0541460
  C       -3.6446450    -0.2696140    -0.2693330
  H        3.4771330     1.0370890     0.2130050
  H        0.3959040    -2.7961940    -0.3173570
  H       -1.0565290     1.9282880     0.9155270
  H        0.0644020     2.9550460     1.8334400
  H       -0.0079680     1.2163630     2.1705520
  H        0.9831900     3.6889080    -0.3483400
  H        0.1002970     2.4765200    -1.3270240
  H        1.8830790     2.5039500    -1.3156910
  H        4.4021620    -1.2332020    -0.2239060
  H        2.8456380    -3.1770500    -0.4305570
  H       -1.2975550    -1.9637590     1.5022950
  H       -3.7883330    -1.7471360     1.3046070
  H       -3.1157890     1.1676090    -1.7971140
  H       -4.7159820    -0.1358610    -0.3911380
units angstrom
no_reorient  #important for SAPT in psi4, default
symmetry c1  #important for SAPT in psi4, default
}

set PROPERTIES_ORIGIN ["COM"]
properties('MP2/aug-cc-pvtz', properties = ['dipole'])
--------------------------------------------------------------------------

    Molecular point group: c1
  Charge       = 0
  Multiplicity = 1
  Basis Set: AUG-CC-PVTZ
    Blend: AUG-CC-PVTZ
  Basis Set: (AUG-CC-PVTZ AUX)
    Blend: AUG-CC-PVTZ-JKFIT

    Orbital Energies [Eh]
    ---------------------

    Doubly Occupied:

       1A    -15.566183     2A    -15.545229     3A    -11.286514
       4A    -11.279438     5A    -11.267610     6A    -11.263849
       7A    -11.244015     8A    -11.243036     9A    -11.239390
      10A    -11.236698    11A    -11.236618    12A    -11.235130
      13A    -11.234121    14A    -11.229417    15A    -11.224892
      16A     -1.260821    17A     -1.230092    18A     -1.137489
      19A     -1.089291    20A     -1.060751    21A     -1.005245
      22A     -0.992537    23A     -0.946927    24A     -0.883489
      25A     -0.862685    26A     -0.852503    27A     -0.809530
      28A     -0.780342    29A     -0.718038    30A     -0.682099
      31A     -0.667936    32A     -0.659027    33A     -0.641652
      34A     -0.631471    35A     -0.609940    36A     -0.602381
      37A     -0.587945    38A     -0.581987    39A     -0.575284
      40A     -0.551528    41A     -0.541634    42A     -0.526482
      43A     -0.520235    44A     -0.513303    45A     -0.498099
      46A     -0.490569    47A     -0.486055    48A     -0.419829
      49A     -0.386739    50A     -0.368280    51A     -0.359124
      52A     -0.318772    53A     -0.303743

  @DF-RHF Final Energy:  -609.50897247840601

   => Energetics <=

    Nuclear Repulsion Energy =            950.5371406444706963
    One-Electron Energy =               -2713.1202328425256383
    Two-Electron Energy =                1153.0741197196491612
    Total Energy =                       -609.5089724784058944
  Basis Set: (AUG-CC-PVTZ AUX)
    Blend: AUG-CC-PVTZ-RI
    Molecular point group: c1

    Geometry (in Angstrom), charge = 0, multiplicity = 1:

       Center              X                  Y                   Z               Mass
    ------------   -----------------  -----------------  -----------------  -----------------
         N            1.040070391681     1.790442657475     0.455259511932    14.003074004430
         N           -1.413018608319     0.380972657475    -0.960334488068    14.003074004430
         C            1.430243391681     0.454679657475     0.158499511932    12.000000000000
         C            0.552443391681    -0.640398342525    -0.003428488068    12.000000000000
         C           -0.918898608319    -0.488384342525    -0.049335488068    12.000000000000
         C            2.812291391681     0.221547657475     0.066859511932    12.000000000000
         C            1.083099391681    -1.929648342525    -0.181940488068    12.000000000000
         C           -0.041745608319     1.960839257475     1.413394411932    12.000000000000
         C            0.989066391681     2.684842657475    -0.697939488068    12.000000000000
         C            3.325990391681    -1.053388342525    -0.156267488068    12.000000000000
         C            2.456845391681    -2.141849342525    -0.266407488068    12.000000000000
         C           -1.744653608319    -1.258045342525     0.782718511932    12.000000000000
         C           -3.128020608319    -1.132948342525     0.673676511932    12.000000000000
         C           -2.750434608319     0.491935657475    -1.046953488068    12.000000000000
         C           -3.644933608319    -0.237756342525    -0.262140488068    12.000000000000
         H            3.476844391681     1.068946657475     0.220197511932     1.007825032230
         H            0.395615391681    -2.764336342525    -0.310164488068     1.007825032230
         H           -1.056817608319     1.960145657475     0.922719511932     1.007825032230
         H            0.064113391681     2.986903657475     1.840632511932     1.007825032230
         H           -0.008256608319     1.248220657475     2.177744511932     1.007825032230
         H            0.982901391681     3.720765657475    -0.341147488068     1.007825032230
         H            0.100008391681     2.508377657475    -1.319831488068     1.007825032230
         H            1.882790391681     2.535807657475    -1.308498488068     1.007825032230
         H            4.401873391681    -1.201344342525    -0.216713488068     1.007825032230
         H            2.845349391681    -3.145192342525    -0.423364488068     1.007825032230
         H           -1.297843608319    -1.931901342525     1.509487511932     1.007825032230
         H           -3.788621608319    -1.715278342525     1.311799511932     1.007825032230
         H           -3.116077608319     1.199466657475    -1.789921488068     1.007825032230
         H           -4.716270608319    -0.104003342525    -0.383945488068     1.007825032230

  Basis Set: AUG-CC-PVTZ
    Blend: AUG-CC-PVTZ
  Basis Set: (AUG-CC-PVTZ AUX)
    Blend: AUG-CC-PVTZ-JKFIT
	 Reference Energy          =    -609.5089724784060081 [Eh]
	 Singles Energy            =      -0.0000000000000000 [Eh]
	 Same-Spin Energy          =      -0.6834299384101533 [Eh]
	 Opposite-Spin Energy      =      -2.1356243801846082 [Eh]
	 Correlation Energy        =      -2.8190543185947616 [Eh]
	 Total Energy              =    -612.3280267970008026 [Eh]

	 ================> DF-SCS-MP2 Energies <==================
	-----------------------------------------------------------
	 SCS Same-Spin Scale       =       0.3333333333333333 [-]
	 SCS Opposite-Spin Scale   =       1.2000000000000000 [-]
	 SCS Same-Spin Energy      =      -0.2278099794700511 [Eh]
	 SCS Opposite-Spin Energy  =      -2.5627492562215299 [Eh]
	 SCS Correlation Energy    =      -2.7905592356915809 [Eh]
	 SCS Total Energy          =    -612.2995317140976113 [Eh]
	-----------------------------------------------------------

  Dipole Moment: [D]
     X:    -1.9158      Y:    -0.7754      Z:     0.8547     Total:     2.2366

*** Psi4 exiting successfully. Buy a developer a beer!
