                               Psi4 1.3.2 release

  ==> Input File <==

--------------------------------------------------------------------------
#psi4
#
memory 32 gb

molecule  {
0 1
  N        1.0236147     1.7560193     0.4291455
  N       -1.4127300     0.3491150    -0.9675270
  C        1.4305320     0.4228220     0.1513070
  C        0.5527320    -0.6722560    -0.0106210
  C       -0.9186100    -0.5202420    -0.0565280
  C        2.8125800     0.1896900     0.0596670
  C        1.0833880    -1.9615060    -0.1891330
  C       -0.0603440     1.9659620     1.3769540
  C        0.9893550     2.6529850    -0.7051320
  C        3.3262790    -1.0852460    -0.1634600
  C        2.4571340    -2.1737070    -0.2736000
  C       -1.7443650    -1.2899030     0.7755260
  C       -3.1277320    -1.1648060     0.6664840
  C       -2.7501460     0.4600780    -1.0541460
  C       -3.6446450    -0.2696140    -0.2693330
  H        3.4771330     1.0370890     0.2130050
  H        0.3959040    -2.7961940    -0.3173570
  H       -1.0565290     1.9282880     0.9155270
  H        0.0644020     2.9550460     1.8334400
  H       -0.0079680     1.2163630     2.1705520
  H        0.9831900     3.6889080    -0.3483400
  H        0.1002970     2.4765200    -1.3270240
  H        1.8830790     2.5039500    -1.3156910
  H        4.4021620    -1.2332020    -0.2239060
  H        2.8456380    -3.1770500    -0.4305570
  H       -1.2975550    -1.9637590     1.5022950
  H       -3.7883330    -1.7471360     1.3046070
  H       -3.1157890     1.1676090    -1.7971140
  H       -4.7159820    -0.1358610    -0.3911380
units angstrom
no_reorient  #important for SAPT in psi4, default
symmetry c1  #important for SAPT in psi4, default
}

set PROPERTIES_ORIGIN ["COM"]
properties('MP2/aug-cc-pvtz', properties = ['dipole'])
--------------------------------------------------------------------------

    Molecular point group: c1
  Charge       = 0
  Multiplicity = 1
  Basis Set: AUG-CC-PVTZ
    Blend: AUG-CC-PVTZ
  Basis Set: (AUG-CC-PVTZ AUX)
    Blend: AUG-CC-PVTZ-JKFIT

    Orbital Energies [Eh]
    ---------------------

    Doubly Occupied:

       1A    -15.566322     2A    -15.543263     3A    -11.286576
       4A    -11.279469     5A    -11.268567     6A    -11.263855
       7A    -11.244053     8A    -11.243079     9A    -11.239202
      10A    -11.236606    11A    -11.236571    12A    -11.234413
      13A    -11.232979    14A    -11.229514    15A    -11.225456
      16A     -1.261072    17A     -1.231505    18A     -1.138097
      19A     -1.089337    20A     -1.060812    21A     -1.006093
      22A     -0.992898    23A     -0.945683    24A     -0.883814
      25A     -0.862795    26A     -0.853120    27A     -0.809365
      28A     -0.780027    29A     -0.717955    30A     -0.681521
      31A     -0.668245    32A     -0.658903    33A     -0.642208
      34A     -0.630918    35A     -0.612635    36A     -0.602183
      37A     -0.588087    38A     -0.582999    39A     -0.576141
      40A     -0.551858    41A     -0.541824    42A     -0.525835
      43A     -0.523367    44A     -0.506896    45A     -0.498151
      46A     -0.491006    47A     -0.487975    48A     -0.419899
      49A     -0.386645    50A     -0.368448    51A     -0.359413
      52A     -0.319125    53A     -0.303117

  @DF-RHF Final Energy:  -609.51220305833215

   => Energetics <=

    Nuclear Repulsion Energy =            950.7859231431807530
    One-Electron Energy =               -2713.6164541836042190
    Two-Electron Energy =                1153.3183279820914322
    Total Energy =                       -609.5122030583320338
  Basis Set: (AUG-CC-PVTZ AUX)
    Blend: AUG-CC-PVTZ-RI
    Molecular point group: c1

    Geometry (in Angstrom), charge = 0, multiplicity = 1:

       Center              X                  Y                   Z               Mass
    ------------   -----------------  -----------------  -----------------  -----------------
         N            1.025653598666     1.785818376978     0.439446972855    14.003074004430
         N           -1.410691101334     0.378914076978    -0.957225527145    14.003074004430
         C            1.432570898666     0.452621076978     0.161608472855    12.000000000000
         C            0.554770898666    -0.642456923022    -0.000319527145    12.000000000000
         C           -0.916571101334    -0.490442923022    -0.046226527145    12.000000000000
         C            2.814618898666     0.219489076978     0.069968472855    12.000000000000
         C            1.085426898666    -1.931706923022    -0.178831527145    12.000000000000
         C           -0.058305101334     1.995761076978     1.387255472855    12.000000000000
         C            0.991393898666     2.682784076978    -0.694830527145    12.000000000000
         C            3.328317898666    -1.055446923022    -0.153158527145    12.000000000000
         C            2.459172898666    -2.143907923022    -0.263298527145    12.000000000000
         C           -1.742326101334    -1.260103923022     0.785827472855    12.000000000000
         C           -3.125693101334    -1.135006923022     0.676785472855    12.000000000000
         C           -2.748107101334     0.489877076978    -1.043844527145    12.000000000000
         C           -3.642606101334    -0.239814923022    -0.259031527145    12.000000000000
         H            3.479171898666     1.066888076978     0.223306472855     1.007825032230
         H            0.397942898666    -2.766394923022    -0.307055527145     1.007825032230
         H           -1.054490101334     1.958087076978     0.925828472855     1.007825032230
         H            0.066440898666     2.984845076978     1.843741472855     1.007825032230
         H           -0.005929101334     1.246162076978     2.180853472855     1.007825032230
         H            0.985228898666     3.718707076978    -0.338038527145     1.007825032230
         H            0.102335898666     2.506319076978    -1.316722527145     1.007825032230
         H            1.885117898666     2.533749076978    -1.305389527145     1.007825032230
         H            4.404200898666    -1.203402923022    -0.213604527145     1.007825032230
         H            2.847676898666    -3.147250923022    -0.420255527145     1.007825032230
         H           -1.295516101334    -1.933959923022     1.512596472855     1.007825032230
         H           -3.786294101334    -1.717336923022     1.314908472855     1.007825032230
         H           -3.113750101334     1.197408076978    -1.786812527145     1.007825032230
         H           -4.713943101334    -0.106061923022    -0.380836527145     1.007825032230

  Basis Set: AUG-CC-PVTZ
    Blend: AUG-CC-PVTZ
  Basis Set: (AUG-CC-PVTZ AUX)
    Blend: AUG-CC-PVTZ-JKFIT
	 Reference Energy          =    -609.5122030583321475 [Eh]
	 Singles Energy            =      -0.0000000000000000 [Eh]
	 Same-Spin Energy          =      -0.6833738031985080 [Eh]
	 Opposite-Spin Energy      =      -2.1352840214447610 [Eh]
	 Correlation Energy        =      -2.8186578246432692 [Eh]
	 Total Energy              =    -612.3308608829754576 [Eh]

	 ================> DF-SCS-MP2 Energies <==================
	-----------------------------------------------------------
	 SCS Same-Spin Scale       =       0.3333333333333333 [-]
	 SCS Opposite-Spin Scale   =       1.2000000000000000 [-]
	 SCS Same-Spin Energy      =      -0.2277912677328360 [Eh]
	 SCS Opposite-Spin Energy  =      -2.5623408257337132 [Eh]
	 SCS Correlation Energy    =      -2.7901320934665494 [Eh]
	 SCS Total Energy          =    -612.3023351517987294 [Eh]
	-----------------------------------------------------------

  Dipole Moment: [D]
     X:    -1.9067      Y:    -0.7657      Z:     0.8935     Total:     2.2405

*** Psi4 exiting successfully. Buy a developer a beer!
