                               Psi4 1.3.2 release

  ==> Input File <==

--------------------------------------------------------------------------
#psi4
#
memory 32 gb

molecule  {
0 1
  N        1.0403590     1.7585850     0.4480670
  N       -1.4127300     0.3491150    -0.9675270
  C        1.4305320     0.4228220     0.1513070
  C        0.5527320    -0.6722560    -0.0106210
  C       -0.9186100    -0.5202420    -0.0565280
  C        2.8125800     0.1896900     0.0596670
  C        1.0833880    -1.9615060    -0.1891330
  C       -0.0940735     2.0391200     1.3151001
  C        0.9893550     2.6529850    -0.7051320
  C        3.3262790    -1.0852460    -0.1634600
  C        2.4571340    -2.1737070    -0.2736000
  C       -1.7443650    -1.2899030     0.7755260
  C       -3.1277320    -1.1648060     0.6664840
  C       -2.7501460     0.4600780    -1.0541460
  C       -3.6446450    -0.2696140    -0.2693330
  H        3.4771330     1.0370890     0.2130050
  H        0.3959040    -2.7961940    -0.3173570
  H       -1.0565290     1.9282880     0.9155270
  H        0.0644020     2.9550460     1.8334400
  H       -0.0079680     1.2163630     2.1705520
  H        0.9831900     3.6889080    -0.3483400
  H        0.1002970     2.4765200    -1.3270240
  H        1.8830790     2.5039500    -1.3156910
  H        4.4021620    -1.2332020    -0.2239060
  H        2.8456380    -3.1770500    -0.4305570
  H       -1.2975550    -1.9637590     1.5022950
  H       -3.7883330    -1.7471360     1.3046070
  H       -3.1157890     1.1676090    -1.7971140
  H       -4.7159820    -0.1358610    -0.3911380
units angstrom
no_reorient  #important for SAPT in psi4, default
symmetry c1  #important for SAPT in psi4, default
}

set PROPERTIES_ORIGIN ["COM"]
properties('MP2/aug-cc-pvtz', properties = ['dipole'])
--------------------------------------------------------------------------

    Molecular point group: c1
  Charge       = 0
  Multiplicity = 1
  Basis Set: AUG-CC-PVTZ
    Blend: AUG-CC-PVTZ
  Basis Set: (AUG-CC-PVTZ AUX)
    Blend: AUG-CC-PVTZ-JKFIT

    Orbital Energies [Eh]
    ---------------------

    Doubly Occupied:

       1A    -15.567075     2A    -15.546611     3A    -11.287141
       4A    -11.279988     5A    -11.269853     6A    -11.264184
       7A    -11.244515     8A    -11.243426     9A    -11.239927
      10A    -11.237921    11A    -11.236842    12A    -11.234619
      13A    -11.232512    14A    -11.229728    15A    -11.225917
      16A     -1.261625    17A     -1.231077    18A     -1.138576
      19A     -1.089796    20A     -1.061178    21A     -1.007411
      22A     -0.993396    23A     -0.940792    24A     -0.885555
      25A     -0.863234    26A     -0.854777    27A     -0.809943
      28A     -0.780998    29A     -0.718455    30A     -0.681220
      31A     -0.669027    32A     -0.659903    33A     -0.643104
      34A     -0.632193    35A     -0.613787    36A     -0.600851
      37A     -0.588506    38A     -0.584225    39A     -0.577823
      40A     -0.554215    41A     -0.542662    42A     -0.531349
      43A     -0.525684    44A     -0.501417    45A     -0.492831
      46A     -0.488634    47A     -0.472360    48A     -0.420611
      49A     -0.387475    50A     -0.373988    51A     -0.360663
      52A     -0.319984    53A     -0.304788

  @DF-RHF Final Energy:  -609.50104661262708

   => Energetics <=

    Nuclear Repulsion Energy =            950.2378707234664716
    One-Electron Energy =               -2712.4690881909482414
    Two-Electron Energy =                1152.7301708548545776
    Total Energy =                       -609.5010466126270785
  Basis Set: (AUG-CC-PVTZ AUX)
    Blend: AUG-CC-PVTZ-RI
    Molecular point group: c1

    Geometry (in Angstrom), charge = 0, multiplicity = 1:

       Center              X                  Y                   Z               Mass
    ------------   -----------------  -----------------  -----------------  -----------------
         N            1.043257408181     1.783771501124     0.460777608723    14.003074004430
         N           -1.409831591819     0.374301501124    -0.954816391277    14.003074004430
         C            1.433430408181     0.448008501124     0.164017608723    12.000000000000
         C            0.555630408181    -0.647069498876     0.002089608723    12.000000000000
         C           -0.915711591819    -0.495055498876    -0.043817391277    12.000000000000
         C            2.815478408181     0.214876501124     0.072377608723    12.000000000000
         C            1.086286408181    -1.936319498876    -0.176422391277    12.000000000000
         C           -0.091175091819     2.064306501124     1.327810708723    12.000000000000
         C            0.992253408181     2.678171501124    -0.692421391277    12.000000000000
         C            3.329177408181    -1.060059498876    -0.150749391277    12.000000000000
         C            2.460032408181    -2.148520498876    -0.260889391277    12.000000000000
         C           -1.741466591819    -1.264716498876     0.788236608723    12.000000000000
         C           -3.124833591819    -1.139619498876     0.679194608723    12.000000000000
         C           -2.747247591819     0.485264501124    -1.041435391277    12.000000000000
         C           -3.641746591819    -0.244427498876    -0.256622391277    12.000000000000
         H            3.480031408181     1.062275501124     0.225715608723     1.007825032230
         H            0.398802408181    -2.771007498876    -0.304646391277     1.007825032230
         H           -1.053630591819     1.953474501124     0.928237608723     1.007825032230
         H            0.067300408181     2.980232501124     1.846150608723     1.007825032230
         H           -0.005069591819     1.241549501124     2.183262608723     1.007825032230
         H            0.986088408181     3.714094501124    -0.335629391277     1.007825032230
         H            0.103195408181     2.501706501124    -1.314313391277     1.007825032230
         H            1.885977408181     2.529136501124    -1.302980391277     1.007825032230
         H            4.405060408181    -1.208015498876    -0.211195391277     1.007825032230
         H            2.848536408181    -3.151863498876    -0.417846391277     1.007825032230
         H           -1.294656591819    -1.938572498876     1.515005608723     1.007825032230
         H           -3.785434591819    -1.721949498876     1.317317608723     1.007825032230
         H           -3.112890591819     1.192795501124    -1.784403391277     1.007825032230
         H           -4.713083591819    -0.110674498876    -0.378427391277     1.007825032230

  Basis Set: AUG-CC-PVTZ
    Blend: AUG-CC-PVTZ
  Basis Set: (AUG-CC-PVTZ AUX)
    Blend: AUG-CC-PVTZ-JKFIT
	 Reference Energy          =    -609.5010466126270785 [Eh]
	 Singles Energy            =      -0.0000000000000000 [Eh]
	 Same-Spin Energy          =      -0.6835962200149400 [Eh]
	 Opposite-Spin Energy      =      -2.1362621416698619 [Eh]
	 Correlation Energy        =      -2.8198583616848021 [Eh]
	 Total Energy              =    -612.3209049743119294 [Eh]

	 ================> DF-SCS-MP2 Energies <==================
	-----------------------------------------------------------
	 SCS Same-Spin Scale       =       0.3333333333333333 [-]
	 SCS Opposite-Spin Scale   =       1.2000000000000000 [-]
	 SCS Same-Spin Energy      =      -0.2278654066716467 [Eh]
	 SCS Opposite-Spin Energy  =      -2.5635145700038344 [Eh]
	 SCS Correlation Energy    =      -2.7913799766754810 [Eh]
	 SCS Total Energy          =    -612.2924265893025222 [Eh]
	-----------------------------------------------------------

  Dipole Moment: [D]
     X:    -1.9859      Y:    -0.7591      Z:     0.8071     Total:     2.2741

*** Psi4 exiting successfully. Buy a developer a beer!
