                               Psi4 1.3.2 release

  ==> Input File <==

--------------------------------------------------------------------------
#psi4
#
memory 32 gb

molecule  {
0 1
  N        1.0567680     1.7612139     0.4672714
  N       -1.4127300     0.3491150    -0.9675270
  C        1.4305320     0.4228220     0.1513070
  C        0.5527320    -0.6722560    -0.0106210
  C       -0.9186100    -0.5202420    -0.0565280
  C        2.8125800     0.1896900     0.0596670
  C        1.0833880    -1.9615060    -0.1891330
  C       -0.0603440     1.9659620     1.3769540
  C        0.9893550     2.6529850    -0.7051320
  C        3.3262790    -1.0852460    -0.1634600
  C        2.4571340    -2.1737070    -0.2736000
  C       -1.7443650    -1.2899030     0.7755260
  C       -3.1277320    -1.1648060     0.6664840
  C       -2.7501460     0.4600780    -1.0541460
  C       -3.6446450    -0.2696140    -0.2693330
  H        3.4771330     1.0370890     0.2130050
  H        0.3959040    -2.7961940    -0.3173570
  H       -1.0565290     1.9282880     0.9155270
  H        0.0644020     2.9550460     1.8334400
  H       -0.0079680     1.2163630     2.1705520
  H        0.9831900     3.6889080    -0.3483400
  H        0.1002970     2.4765200    -1.3270240
  H        1.8830790     2.5039500    -1.3156910
  H        4.4021620    -1.2332020    -0.2239060
  H        2.8456380    -3.1770500    -0.4305570
  H       -1.2975550    -1.9637590     1.5022950
  H       -3.7883330    -1.7471360     1.3046070
  H       -3.1157890     1.1676090    -1.7971140
  H       -4.7159820    -0.1358610    -0.3911380
units angstrom
no_reorient  #important for SAPT in psi4, default
symmetry c1  #important for SAPT in psi4, default
}

set PROPERTIES_ORIGIN ["COM"]
properties('MP2/aug-cc-pvtz', properties = ['dipole'])
--------------------------------------------------------------------------

    Molecular point group: c1
  Charge       = 0
  Multiplicity = 1
  Basis Set: AUG-CC-PVTZ
    Blend: AUG-CC-PVTZ
  Basis Set: (AUG-CC-PVTZ AUX)
    Blend: AUG-CC-PVTZ-JKFIT

    Orbital Energies [Eh]
    ---------------------

    Doubly Occupied:

       1A    -15.566659     2A    -15.547477     3A    -11.286867
       4A    -11.279794     5A    -11.268016     6A    -11.264110
       7A    -11.244345     8A    -11.243299     9A    -11.239835
      10A    -11.236731    11A    -11.235784    12A    -11.235020
      13A    -11.234068    14A    -11.229427    15A    -11.224887
      16A     -1.261088    17A     -1.228684    18A     -1.137439
      19A     -1.089621    20A     -1.060945    21A     -1.005610
      22A     -0.992697    23A     -0.942989    24A     -0.884188
      25A     -0.862942    26A     -0.853010    27A     -0.809844
      28A     -0.780318    29A     -0.718078    30A     -0.680856
      31A     -0.668207    32A     -0.658532    33A     -0.640908
      34A     -0.630620    35A     -0.610568    36A     -0.602029
      37A     -0.587966    38A     -0.581874    39A     -0.575839
      40A     -0.551955    41A     -0.541800    42A     -0.526128
      43A     -0.523634    44A     -0.504051    45A     -0.498563
      46A     -0.489645    47A     -0.485720    48A     -0.420268
      49A     -0.387375    50A     -0.371944    51A     -0.360248
      52A     -0.319253    53A     -0.304933

  @DF-RHF Final Energy:  -609.51123990478618

   => Energetics <=

    Nuclear Repulsion Energy =            950.0559317201772274
    One-Electron Energy =               -2712.1609604801810747
    Two-Electron Energy =                1152.5937888552175536
    Total Energy =                       -609.5112399047861800
  Basis Set: (AUG-CC-PVTZ AUX)
    Blend: AUG-CC-PVTZ-RI
    Molecular point group: c1

    Geometry (in Angstrom), charge = 0, multiplicity = 1:

       Center              X                  Y                   Z               Mass
    ------------   -----------------  -----------------  -----------------  -----------------
         N            1.056463580509     1.790645815926     0.474878084893    14.003074004430
         N           -1.413034419491     0.378546915926    -0.959920315107    14.003074004430
         C            1.430227580509     0.452253915926     0.158913684893    12.000000000000
         C            0.552427580509    -0.642824084074    -0.003014315107    12.000000000000
         C           -0.918914419491    -0.490810084074    -0.048921315107    12.000000000000
         C            2.812275580509     0.219121915926     0.067273684893    12.000000000000
         C            1.083083580509    -1.932074084074    -0.181526315107    12.000000000000
         C           -0.060648419491     1.995393915926     1.384560684893    12.000000000000
         C            0.989050580509     2.682416915926    -0.697525315107    12.000000000000
         C            3.325974580509    -1.055814084074    -0.155853315107    12.000000000000
         C            2.456829580509    -2.144275084074    -0.265993315107    12.000000000000
         C           -1.744669419491    -1.260471084074     0.783132684893    12.000000000000
         C           -3.128036419491    -1.135374084074     0.674090684893    12.000000000000
         C           -2.750450419491     0.489509915926    -1.046539315107    12.000000000000
         C           -3.644949419491    -0.240182084074    -0.261726315107    12.000000000000
         H            3.476828580509     1.066520915926     0.220611684893     1.007825032230
         H            0.395599580509    -2.766762084074    -0.309750315107     1.007825032230
         H           -1.056833419491     1.957719915926     0.923133684893     1.007825032230
         H            0.064097580509     2.984477915926     1.841046684893     1.007825032230
         H           -0.008272419491     1.245794915926     2.178158684893     1.007825032230
         H            0.982885580509     3.718339915926    -0.340733315107     1.007825032230
         H            0.099992580509     2.505951915926    -1.319417315107     1.007825032230
         H            1.882774580509     2.533381915926    -1.308084315107     1.007825032230
         H            4.401857580509    -1.203770084074    -0.216299315107     1.007825032230
         H            2.845333580509    -3.147618084074    -0.422950315107     1.007825032230
         H           -1.297859419491    -1.934327084074     1.509901684893     1.007825032230
         H           -3.788637419491    -1.717704084074     1.312213684893     1.007825032230
         H           -3.116093419491     1.197040915926    -1.789507315107     1.007825032230
         H           -4.716286419491    -0.106429084074    -0.383531315107     1.007825032230

  Basis Set: AUG-CC-PVTZ
    Blend: AUG-CC-PVTZ
  Basis Set: (AUG-CC-PVTZ AUX)
    Blend: AUG-CC-PVTZ-JKFIT
	 Reference Energy          =    -609.5112399047861800 [Eh]
	 Singles Energy            =      -0.0000000000000000 [Eh]
	 Same-Spin Energy          =      -0.6833765426897476 [Eh]
	 Opposite-Spin Energy      =      -2.1358088384205560 [Eh]
	 Correlation Energy        =      -2.8191853811103034 [Eh]
	 Total Energy              =    -612.3304252858964674 [Eh]

	 ================> DF-SCS-MP2 Energies <==================
	-----------------------------------------------------------
	 SCS Same-Spin Scale       =       0.3333333333333333 [-]
	 SCS Opposite-Spin Scale   =       1.2000000000000000 [-]
	 SCS Same-Spin Energy      =      -0.2277921808965825 [Eh]
	 SCS Opposite-Spin Energy  =      -2.5629706061046673 [Eh]
	 SCS Correlation Energy    =      -2.7907627870012499 [Eh]
	 SCS Total Energy          =    -612.3020026917873793 [Eh]
	-----------------------------------------------------------

  Dipole Moment: [D]
     X:    -1.9878      Y:    -0.7751      Z:     0.8066     Total:     2.2809

*** Psi4 exiting successfully. Buy a developer a beer!
