                               Psi4 1.3.2 release

  ==> Input File <==

--------------------------------------------------------------------------
#psi4
#
memory 32 gb

molecule  {
0 1
  N        1.1039338     1.7694714     0.5265235
  N       -1.4127300     0.3491150    -0.9675270
  C        1.4305320     0.4228220     0.1513070
  C        0.5527320    -0.6722560    -0.0106210
  C       -0.9186100    -0.5202420    -0.0565280
  C        2.8125800     0.1896900     0.0596670
  C        1.0833880    -1.9615060    -0.1891330
  C       -0.0603440     1.9659620     1.3769540
  C        0.9893550     2.6529850    -0.7051320
  C        3.3262790    -1.0852460    -0.1634600
  C        2.4571340    -2.1737070    -0.2736000
  C       -1.7443650    -1.2899030     0.7755260
  C       -3.1277320    -1.1648060     0.6664840
  C       -2.7501460     0.4600780    -1.0541460
  C       -3.6446450    -0.2696140    -0.2693330
  H        3.4771330     1.0370890     0.2130050
  H        0.3959040    -2.7961940    -0.3173570
  H       -1.0565290     1.9282880     0.9155270
  H        0.0644020     2.9550460     1.8334400
  H       -0.0079680     1.2163630     2.1705520
  H        0.9831900     3.6889080    -0.3483400
  H        0.1002970     2.4765200    -1.3270240
  H        1.8830790     2.5039500    -1.3156910
  H        4.4021620    -1.2332020    -0.2239060
  H        2.8456380    -3.1770500    -0.4305570
  H       -1.2975550    -1.9637590     1.5022950
  H       -3.7883330    -1.7471360     1.3046070
  H       -3.1157890     1.1676090    -1.7971140
  H       -4.7159820    -0.1358610    -0.3911380
units angstrom
no_reorient  #important for SAPT in psi4, default
symmetry c1  #important for SAPT in psi4, default
}

set PROPERTIES_ORIGIN ["COM"]
properties('MP2/aug-cc-pvtz', properties = ['dipole'])
--------------------------------------------------------------------------

    Molecular point group: c1
  Charge       = 0
  Multiplicity = 1
  Basis Set: AUG-CC-PVTZ
    Blend: AUG-CC-PVTZ
  Basis Set: (AUG-CC-PVTZ AUX)
    Blend: AUG-CC-PVTZ-JKFIT

    Orbital Energies [Eh]
    ---------------------

    Doubly Occupied:

       1A    -15.567131     2A    -15.554597     3A    -11.287292
       4A    -11.280250     5A    -11.267657     6A    -11.264464
       7A    -11.244741     8A    -11.243603     9A    -11.240911
      10A    -11.238148    11A    -11.237040    12A    -11.234646
      13A    -11.233683    14A    -11.229356    15A    -11.224237
      16A     -1.261170    17A     -1.223893    18A     -1.136585
      19A     -1.090015    20A     -1.061174    21A     -1.005027
      22A     -0.992456    23A     -0.938973    24A     -0.884446
      25A     -0.863200    26A     -0.852660    27A     -0.810510
      28A     -0.780848    29A     -0.718288    30A     -0.680019
      31A     -0.668194    32A     -0.657863    33A     -0.638997
      34A     -0.630099    35A     -0.607597    36A     -0.601870
      37A     -0.587956    38A     -0.580719    39A     -0.574730
      40A     -0.551972    41A     -0.541713    42A     -0.527641
      43A     -0.523278    44A     -0.502260    45A     -0.497759
      46A     -0.486619    47A     -0.479692    48A     -0.420775
      49A     -0.389212    50A     -0.377969    51A     -0.361105
      52A     -0.319559    53A     -0.306817

  @DF-RHF Final Energy:  -609.50550000591500

   => Energetics <=

    Nuclear Repulsion Energy =            948.8791067662479009
    One-Electron Energy =               -2709.8063826418938334
    Two-Electron Energy =                1151.4217758697311638
    Total Energy =                       -609.5055000059148824
  Basis Set: (AUG-CC-PVTZ AUX)
    Blend: AUG-CC-PVTZ-RI
    Molecular point group: c1

    Geometry (in Angstrom), charge = 0, multiplicity = 1:

       Center              X                  Y                   Z               Mass
    ------------   -----------------  -----------------  -----------------  -----------------
         N            1.100295640714     1.798319665138     0.529942169771    14.003074004430
         N           -1.416368159286     0.377963265138    -0.964108330229    14.003074004430
         C            1.426893840714     0.451670265138     0.154725669771    12.000000000000
         C            0.549093840714    -0.643407734862    -0.007202330229    12.000000000000
         C           -0.922248159286    -0.491393734862    -0.053109330229    12.000000000000
         C            2.808941840714     0.218538265138     0.063085669771    12.000000000000
         C            1.079749840714    -1.932657734862    -0.185714330229    12.000000000000
         C           -0.063982159286     1.994810265138     1.380372669771    12.000000000000
         C            0.985716840714     2.681833265138    -0.701713330229    12.000000000000
         C            3.322640840714    -1.056397734862    -0.160041330229    12.000000000000
         C            2.453495840714    -2.144858734862    -0.270181330229    12.000000000000
         C           -1.748003159286    -1.261054734862     0.778944669771    12.000000000000
         C           -3.131370159286    -1.135957734862     0.669902669771    12.000000000000
         C           -2.753784159286     0.488926265138    -1.050727330229    12.000000000000
         C           -3.648283159286    -0.240765734862    -0.265914330229    12.000000000000
         H            3.473494840714     1.065937265138     0.216423669771     1.007825032230
         H            0.392265840714    -2.767345734862    -0.313938330229     1.007825032230
         H           -1.060167159286     1.957136265138     0.918945669771     1.007825032230
         H            0.060763840714     2.983894265138     1.836858669771     1.007825032230
         H           -0.011606159286     1.245211265138     2.173970669771     1.007825032230
         H            0.979551840714     3.717756265138    -0.344921330229     1.007825032230
         H            0.096658840714     2.505368265138    -1.323605330229     1.007825032230
         H            1.879440840714     2.532798265138    -1.312272330229     1.007825032230
         H            4.398523840714    -1.204353734862    -0.220487330229     1.007825032230
         H            2.841999840714    -3.148201734862    -0.427138330229     1.007825032230
         H           -1.301193159286    -1.934910734862     1.505713669771     1.007825032230
         H           -3.791971159286    -1.718287734862     1.308025669771     1.007825032230
         H           -3.119427159286     1.196457265138    -1.793695330229     1.007825032230
         H           -4.719620159286    -0.107012734862    -0.387719330229     1.007825032230

  Basis Set: AUG-CC-PVTZ
    Blend: AUG-CC-PVTZ
  Basis Set: (AUG-CC-PVTZ AUX)
    Blend: AUG-CC-PVTZ-JKFIT
	 Reference Energy          =    -609.5055000059149961 [Eh]
	 Singles Energy            =      -0.0000000000000000 [Eh]
	 Same-Spin Energy          =      -0.6835902764512585 [Eh]
	 Opposite-Spin Energy      =      -2.1370931178865491 [Eh]
	 Correlation Energy        =      -2.8206833943378076 [Eh]
	 Total Energy              =    -612.3261834002528303 [Eh]

	 ================> DF-SCS-MP2 Energies <==================
	-----------------------------------------------------------
	 SCS Same-Spin Scale       =       0.3333333333333333 [-]
	 SCS Opposite-Spin Scale   =       1.2000000000000000 [-]
	 SCS Same-Spin Energy      =      -0.2278634254837528 [Eh]
	 SCS Opposite-Spin Energy  =      -2.5645117414638587 [Eh]
	 SCS Correlation Energy    =      -2.7923751669476116 [Eh]
	 SCS Total Energy          =    -612.2978751728626321 [Eh]
	-----------------------------------------------------------

  Dipole Moment: [D]
     X:    -2.0963      Y:    -0.7978      Z:     0.6834     Total:     2.3447

*** Psi4 exiting successfully. Buy a developer a beer!
