                               Psi4 1.3.2 release

  ==> Input File <==

--------------------------------------------------------------------------
#psi4
#
memory 32 gb

molecule  {
0 1
  N        1.0403590     1.7585850     0.4480670
  N       -1.4127300     0.3491150    -0.9675270
  C        1.4853750     0.2350661     0.1095942
  C        0.5527320    -0.6722560    -0.0106210
  C       -0.9186100    -0.5202420    -0.0565280
  C        2.8125800     0.1896900     0.0596670
  C        1.0833880    -1.9615060    -0.1891330
  C       -0.0603440     1.9659620     1.3769540
  C        0.9893550     2.6529850    -0.7051320
  C        3.3262790    -1.0852460    -0.1634600
  C        2.4571340    -2.1737070    -0.2736000
  C       -1.7443650    -1.2899030     0.7755260
  C       -3.1277320    -1.1648060     0.6664840
  C       -2.7501460     0.4600780    -1.0541460
  C       -3.6446450    -0.2696140    -0.2693330
  H        3.4771330     1.0370890     0.2130050
  H        0.3959040    -2.7961940    -0.3173570
  H       -1.0565290     1.9282880     0.9155270
  H        0.0644020     2.9550460     1.8334400
  H       -0.0079680     1.2163630     2.1705520
  H        0.9831900     3.6889080    -0.3483400
  H        0.1002970     2.4765200    -1.3270240
  H        1.8830790     2.5039500    -1.3156910
  H        4.4021620    -1.2332020    -0.2239060
  H        2.8456380    -3.1770500    -0.4305570
  H       -1.2975550    -1.9637590     1.5022950
  H       -3.7883330    -1.7471360     1.3046070
  H       -3.1157890     1.1676090    -1.7971140
  H       -4.7159820    -0.1358610    -0.3911380
units angstrom
no_reorient  #important for SAPT in psi4, default
symmetry c1  #important for SAPT in psi4, default
}

set PROPERTIES_ORIGIN ["COM"]
properties('MP2/aug-cc-pvtz', properties = ['dipole'])
--------------------------------------------------------------------------

    Molecular point group: c1
  Charge       = 0
  Multiplicity = 1
  Basis Set: AUG-CC-PVTZ
    Blend: AUG-CC-PVTZ
  Basis Set: (AUG-CC-PVTZ AUX)
    Blend: AUG-CC-PVTZ-JKFIT

    Orbital Energies [Eh]
    ---------------------

    Doubly Occupied:

       1A    -15.568914     2A    -15.533385     3A    -11.292842
       4A    -11.281017     5A    -11.265964     6A    -11.259665
       7A    -11.246709     8A    -11.246299     9A    -11.241753
      10A    -11.239024    11A    -11.235654    12A    -11.233276
      13A    -11.226013    14A    -11.225319    15A    -11.223023
      16A     -1.262509    17A     -1.201687    18A     -1.148920
      19A     -1.091608    20A     -1.069433    21A     -1.015028
      22A     -1.005894    23A     -0.930964    24A     -0.877552
      25A     -0.866096    26A     -0.835806    27A     -0.826349
      28A     -0.781408    29A     -0.724680    30A     -0.684054
      31A     -0.672478    32A     -0.657298    33A     -0.641716
      34A     -0.622589    35A     -0.603544    36A     -0.602136
      37A     -0.593969    38A     -0.580429    39A     -0.573162
      40A     -0.550901    41A     -0.541299    42A     -0.526073
      43A     -0.517612    44A     -0.512504    45A     -0.510653
      46A     -0.490887    47A     -0.445649    48A     -0.422867
      49A     -0.388031    50A     -0.367379    51A     -0.356904
      52A     -0.324174    53A     -0.317599

  @DF-RHF Final Energy:  -609.47209546426905

   => Energetics <=

    Nuclear Repulsion Energy =            950.7749979804582381
    One-Electron Energy =               -2713.5727888661399447
    Two-Electron Energy =                1153.3256954214125471
    Total Energy =                       -609.4720954642691595
  Basis Set: (AUG-CC-PVTZ AUX)
    Blend: AUG-CC-PVTZ-RI
    Molecular point group: c1

    Geometry (in Angstrom), charge = 0, multiplicity = 1:

       Center              X                  Y                   Z               Mass
    ------------   -----------------  -----------------  -----------------  -----------------
         N            1.037892512778     1.799575230078     0.459557648862    14.003074004430
         N           -1.415196487222     0.390105230078    -0.956036351138    14.003074004430
         C            1.482908512778     0.276056330078     0.121084848862    12.000000000000
         C            0.550265512778    -0.631265769922     0.000869648862    12.000000000000
         C           -0.921076487222    -0.479251769922    -0.045037351138    12.000000000000
         C            2.810113512778     0.230680230078     0.071157648862    12.000000000000
         C            1.080921512778    -1.920515769922    -0.177642351138    12.000000000000
         C           -0.062810487222     2.006952230078     1.388444648862    12.000000000000
         C            0.986888512778     2.693975230078    -0.693641351138    12.000000000000
         C            3.323812512778    -1.044255769922    -0.151969351138    12.000000000000
         C            2.454667512778    -2.132716769922    -0.262109351138    12.000000000000
         C           -1.746831487222    -1.248912769922     0.787016648862    12.000000000000
         C           -3.130198487222    -1.123815769922     0.677974648862    12.000000000000
         C           -2.752612487222     0.501068230078    -1.042655351138    12.000000000000
         C           -3.647111487222    -0.228623769922    -0.257842351138    12.000000000000
         H            3.474666512778     1.078079230078     0.224495648862     1.007825032230
         H            0.393437512778    -2.755203769922    -0.305866351138     1.007825032230
         H           -1.058995487222     1.969278230078     0.927017648862     1.007825032230
         H            0.061935512778     2.996036230078     1.844930648862     1.007825032230
         H           -0.010434487222     1.257353230078     2.182042648862     1.007825032230
         H            0.980723512778     3.729898230078    -0.336849351138     1.007825032230
         H            0.097830512778     2.517510230078    -1.315533351138     1.007825032230
         H            1.880612512778     2.544940230078    -1.304200351138     1.007825032230
         H            4.399695512778    -1.192211769922    -0.212415351138     1.007825032230
         H            2.843171512778    -3.136059769922    -0.419066351138     1.007825032230
         H           -1.300021487222    -1.922768769922     1.513785648862     1.007825032230
         H           -3.790799487222    -1.706145769922     1.316097648862     1.007825032230
         H           -3.118255487222     1.208599230078    -1.785623351138     1.007825032230
         H           -4.718448487222    -0.094870769922    -0.379647351138     1.007825032230

  Basis Set: AUG-CC-PVTZ
    Blend: AUG-CC-PVTZ
  Basis Set: (AUG-CC-PVTZ AUX)
    Blend: AUG-CC-PVTZ-JKFIT
	 Reference Energy          =    -609.4720954642690458 [Eh]
	 Singles Energy            =      -0.0000000000000000 [Eh]
	 Same-Spin Energy          =      -0.6834425462843341 [Eh]
	 Opposite-Spin Energy      =      -2.1369025325013355 [Eh]
	 Correlation Energy        =      -2.8203450787856696 [Eh]
	 Total Energy              =    -612.2924405430546813 [Eh]

	 ================> DF-SCS-MP2 Energies <==================
	-----------------------------------------------------------
	 SCS Same-Spin Scale       =       0.3333333333333333 [-]
	 SCS Opposite-Spin Scale   =       1.2000000000000000 [-]
	 SCS Same-Spin Energy      =      -0.2278141820947780 [Eh]
	 SCS Opposite-Spin Energy  =      -2.5642830390016025 [Eh]
	 SCS Correlation Energy    =      -2.7920972210963804 [Eh]
	 SCS Total Energy          =    -612.2641926853654013 [Eh]
	-----------------------------------------------------------

  Dipole Moment: [D]
     X:    -1.7744      Y:    -1.5393      Z:     0.7057     Total:     2.4528

*** Psi4 exiting successfully. Buy a developer a beer!
