                               Psi4 1.4a3.dev225

  ==> Input File <==

--------------------------------------------------------------------------
#psi4
#
memory 32 gb

molecule  {
0 1
  N        1.0403590     1.7585850     0.4480670
  N       -1.4127300     0.3491150    -0.9675270
  C        1.4360163     0.4040464     0.1471357
  C        0.5527320    -0.6722560    -0.0106210
  C       -0.9186100    -0.5202420    -0.0565280
  C        2.8125800     0.1896900     0.0596670
  C        1.0833880    -1.9615060    -0.1891330
  C       -0.0603440     1.9659620     1.3769540
  C        0.9893550     2.6529850    -0.7051320
  C        3.3262790    -1.0852460    -0.1634600
  C        2.4571340    -2.1737070    -0.2736000
  C       -1.7443650    -1.2899030     0.7755260
  C       -3.1277320    -1.1648060     0.6664840
  C       -2.7501460     0.4600780    -1.0541460
  C       -3.6446450    -0.2696140    -0.2693330
  H        3.4771330     1.0370890     0.2130050
  H        0.3959040    -2.7961940    -0.3173570
  H       -1.0565290     1.9282880     0.9155270
  H        0.0644020     2.9550460     1.8334400
  H       -0.0079680     1.2163630     2.1705520
  H        0.9831900     3.6889080    -0.3483400
  H        0.1002970     2.4765200    -1.3270240
  H        1.8830790     2.5039500    -1.3156910
  H        4.4021620    -1.2332020    -0.2239060
  H        2.8456380    -3.1770500    -0.4305570
  H       -1.2975550    -1.9637590     1.5022950
  H       -3.7883330    -1.7471360     1.3046070
  H       -3.1157890     1.1676090    -1.7971140
  H       -4.7159820    -0.1358610    -0.3911380
units angstrom
no_reorient  #important for SAPT in psi4, default
symmetry c1  #important for SAPT in psi4, default
}

set PROPERTIES_ORIGIN ["COM"]
properties('MP2/aug-cc-pvtz', properties = ['dipole'])
--------------------------------------------------------------------------

    Molecular point group: c1
  Charge       = 0
  Multiplicity = 1
  Basis Set: AUG-CC-PVTZ
    Blend: AUG-CC-PVTZ
  Basis Set: (AUG-CC-PVTZ AUX)
    Blend: AUG-CC-PVTZ-JKFIT

    Orbital Energies [Eh]
    ---------------------

    Doubly Occupied:

       1A    -15.566745     2A    -15.544309     3A    -11.287327
       4A    -11.279772     5A    -11.266963     6A    -11.264189
       7A    -11.244421     8A    -11.243557     9A    -11.239213
      10A    -11.237052    11A    -11.235063    12A    -11.234686
      13A    -11.232739    14A    -11.229995    15A    -11.225116
      16A     -1.261029    17A     -1.225514    18A     -1.139417
      19A     -1.089701    20A     -1.061614    21A     -1.006874
      22A     -0.993989    23A     -0.942812    24A     -0.882246
      25A     -0.863178    26A     -0.851804    27A     -0.811423
      28A     -0.780466    29A     -0.718689    30A     -0.681044
      31A     -0.668531    32A     -0.657896    33A     -0.641142
      34A     -0.629972    35A     -0.609853    36A     -0.602546
      37A     -0.589285    38A     -0.582244    39A     -0.576151
      40A     -0.551695    41A     -0.541634    42A     -0.525353
      43A     -0.523103    44A     -0.504511    45A     -0.498276
      46A     -0.492170    47A     -0.485411    48A     -0.420408
      49A     -0.387007    50A     -0.369061    51A     -0.360251
      52A     -0.319700    53A     -0.306197

  @DF-RHF Final Energy:  -609.51193495542498

   => Energetics <=

    Nuclear Repulsion Energy =            950.4358076132746191
    One-Electron Energy =               -2712.9287954555084070
    Two-Electron Energy =                1152.9810528868088113
    Total Energy =                       -609.5119349554249766
  Basis Set: (AUG-CC-PVTZ AUX)
    Blend: AUG-CC-PVTZ-RI
    Molecular point group: c1

    Geometry (in Angstrom), charge = 0, multiplicity = 1:

       Center              X                  Y                   Z               Mass
    ------------   -----------------  -----------------  -----------------  -----------------
         N            1.040882202159     1.789339980596     0.457283735166    14.003074004430
         N           -1.412206797841     0.379869980596    -0.958310264834    14.003074004430
         C            1.436539502159     0.434801380596     0.156352435166    12.000000000000
         C            0.553255202159    -0.641501019404    -0.001404264834    12.000000000000
         C           -0.918086797841    -0.489487019404    -0.047311264834    12.000000000000
         C            2.813103202159     0.220444980596     0.068883735166    12.000000000000
         C            1.083911202159    -1.930751019404    -0.179916264834    12.000000000000
         C           -0.059820797841     1.996716980596     1.386170735166    12.000000000000
         C            0.989878202159     2.683739980596    -0.695915264834    12.000000000000
         C            3.326802202159    -1.054491019404    -0.154243264834    12.000000000000
         C            2.457657202159    -2.142952019404    -0.264383264834    12.000000000000
         C           -1.743841797841    -1.259148019404     0.784742735166    12.000000000000
         C           -3.127208797841    -1.134051019404     0.675700735166    12.000000000000
         C           -2.749622797841     0.490832980596    -1.044929264834    12.000000000000
         C           -3.644121797841    -0.238859019404    -0.260116264834    12.000000000000
         H            3.477656202159     1.067843980596     0.222221735166     1.007825032230
         H            0.396427202159    -2.765439019404    -0.308140264834     1.007825032230
         H           -1.056005797841     1.959042980596     0.924743735166     1.007825032230
         H            0.064925202159     2.985800980596     1.842656735166     1.007825032230
         H           -0.007444797841     1.247117980596     2.179768735166     1.007825032230
         H            0.983713202159     3.719662980596    -0.339123264834     1.007825032230
         H            0.100820202159     2.507274980596    -1.317807264834     1.007825032230
         H            1.883602202159     2.534704980596    -1.306474264834     1.007825032230
         H            4.402685202159    -1.202447019404    -0.214689264834     1.007825032230
         H            2.846161202159    -3.146295019404    -0.421340264834     1.007825032230
         H           -1.297031797841    -1.933004019404     1.511511735166     1.007825032230
         H           -3.787809797841    -1.716381019404     1.313823735166     1.007825032230
         H           -3.115265797841     1.198363980596    -1.787897264834     1.007825032230
         H           -4.715458797841    -0.105106019404    -0.381921264834     1.007825032230

  Basis Set: AUG-CC-PVTZ
    Blend: AUG-CC-PVTZ
  Basis Set: (AUG-CC-PVTZ AUX)
    Blend: AUG-CC-PVTZ-JKFIT
	 Reference Energy          =    -609.5119349554249766 [Eh]
	 Singles Energy            =      -0.0000000000000000 [Eh]
	 Same-Spin Energy          =      -0.6831525336139767 [Eh]
	 Opposite-Spin Energy      =      -2.1353012459929595 [Eh]
	 Correlation Energy        =      -2.8184537796069362 [Eh]
	 Total Energy              =    -612.3303887350318746 [Eh]

	 ================> DF-SCS-MP2 Energies <==================
	-----------------------------------------------------------
	 SCS Same-Spin Scale       =       0.3333333333333333 [-]
	 SCS Opposite-Spin Scale   =       1.2000000000000000 [-]
	 SCS Same-Spin Energy      =      -0.2277175112046589 [Eh]
	 SCS Opposite-Spin Energy  =      -2.5623614951915514 [Eh]
	 SCS Correlation Energy    =      -2.7900790063962102 [Eh]
	 SCS Total Energy          =    -612.3020139618212170 [Eh]
	-----------------------------------------------------------

  Dipole Moment: [D]
     X:    -1.9257      Y:    -0.8594      Z:     0.8331     Total:     2.2674

*** Psi4 exiting successfully. Buy a developer a beer!
