                               Psi4 1.3.2 release

  ==> Input File <==

--------------------------------------------------------------------------
#psi4
#
memory 32 gb

molecule  {
0 1
  N        1.1336123     1.7752771     0.5673301
  N       -1.4127300     0.3491150    -0.9675270
  C        1.4305320     0.4228220     0.1513070
  C        0.5527320    -0.6722560    -0.0106210
  C       -0.9186100    -0.5202420    -0.0565280
  C        2.8125800     0.1896900     0.0596670
  C        1.0833880    -1.9615060    -0.1891330
  C       -0.0603440     1.9659620     1.3769540
  C        0.9893550     2.6529850    -0.7051320
  C        3.3262790    -1.0852460    -0.1634600
  C        2.4571340    -2.1737070    -0.2736000
  C       -1.7443650    -1.2899030     0.7755260
  C       -3.1277320    -1.1648060     0.6664840
  C       -2.7501460     0.4600780    -1.0541460
  C       -3.6446450    -0.2696140    -0.2693330
  H        3.4771330     1.0370890     0.2130050
  H        0.3959040    -2.7961940    -0.3173570
  H       -1.0565290     1.9282880     0.9155270
  H        0.0644020     2.9550460     1.8334400
  H       -0.0079680     1.2163630     2.1705520
  H        0.9831900     3.6889080    -0.3483400
  H        0.1002970     2.4765200    -1.3270240
  H        1.8830790     2.5039500    -1.3156910
  H        4.4021620    -1.2332020    -0.2239060
  H        2.8456380    -3.1770500    -0.4305570
  H       -1.2975550    -1.9637590     1.5022950
  H       -3.7883330    -1.7471360     1.3046070
  H       -3.1157890     1.1676090    -1.7971140
  H       -4.7159820    -0.1358610    -0.3911380
units angstrom
no_reorient  #important for SAPT in psi4, default
symmetry c1  #important for SAPT in psi4, default
}

set PROPERTIES_ORIGIN ["COM"]
properties('MP2/aug-cc-pvtz', properties = ['dipole'])
--------------------------------------------------------------------------

    Molecular point group: c1
  Charge       = 0
  Multiplicity = 1
  Basis Set: AUG-CC-PVTZ
    Blend: AUG-CC-PVTZ
  Basis Set: (AUG-CC-PVTZ AUX)
    Blend: AUG-CC-PVTZ-JKFIT

    Orbital Energies [Eh]
    ---------------------

    Doubly Occupied:

       1A    -15.567420     2A    -15.559787     3A    -11.287562
       4A    -11.280529     5A    -11.267743     6A    -11.264678
       7A    -11.244975     8A    -11.243784     9A    -11.241666
      10A    -11.240280    11A    -11.237278    12A    -11.233983
      13A    -11.233503    14A    -11.229335    15A    -11.223920
      16A     -1.261252    17A     -1.220356    18A     -1.136092
      19A     -1.090253    20A     -1.061334    21A     -1.004730
      22A     -0.992339    23A     -0.936373    24A     -0.884441
      25A     -0.863383    26A     -0.852319    27A     -0.810915
      28A     -0.781255    29A     -0.718439    30A     -0.679570
      31A     -0.668208    32A     -0.657362    33A     -0.637779
      34A     -0.629696    35A     -0.605737    36A     -0.601799
      37A     -0.588018    38A     -0.580381    39A     -0.573561
      40A     -0.551911    41A     -0.541631    42A     -0.528866
      43A     -0.522825    44A     -0.502229    45A     -0.497013
      46A     -0.484268    47A     -0.473661    48A     -0.421079
      49A     -0.391701    50A     -0.381450    51A     -0.361527
      52A     -0.319797    53A     -0.307509

  @DF-RHF Final Energy:  -609.49879902060593

   => Energetics <=

    Nuclear Repulsion Energy =            948.0457590756922173
    One-Electron Energy =               -2708.1341195995482849
    Two-Electron Energy =                1150.5895615032500245
    Total Energy =                       -609.4987990206059294
  Basis Set: (AUG-CC-PVTZ AUX)
    Blend: AUG-CC-PVTZ-RI
    Molecular point group: c1

    Geometry (in Angstrom), charge = 0, multiplicity = 1:

       Center              X                  Y                   Z               Mass
    ------------   -----------------  -----------------  -----------------  -----------------
         N            1.127876425919     1.803715010747     0.567864506463    14.003074004430
         N           -1.418465874081     0.377552910747    -0.966992593537    14.003074004430
         C            1.424796125919     0.451259910747     0.151841406463    12.000000000000
         C            0.546996125919    -0.643818089253    -0.010086593537    12.000000000000
         C           -0.924345874081    -0.491804089253    -0.055993593537    12.000000000000
         C            2.806844125919     0.218127910747     0.060201406463    12.000000000000
         C            1.077652125919    -1.933068089253    -0.188598593537    12.000000000000
         C           -0.066079874081     1.994399910747     1.377488406463    12.000000000000
         C            0.983619125919     2.681422910747    -0.704597593537    12.000000000000
         C            3.320543125919    -1.056808089253    -0.162925593537    12.000000000000
         C            2.451398125919    -2.145269089253    -0.273065593537    12.000000000000
         C           -1.750100874081    -1.261465089253     0.776060406463    12.000000000000
         C           -3.133467874081    -1.136368089253     0.667018406463    12.000000000000
         C           -2.755881874081     0.488515910747    -1.053611593537    12.000000000000
         C           -3.650380874081    -0.241176089253    -0.268798593537    12.000000000000
         H            3.471397125919     1.065526910747     0.213539406463     1.007825032230
         H            0.390168125919    -2.767756089253    -0.316822593537     1.007825032230
         H           -1.062264874081     1.956725910747     0.916061406463     1.007825032230
         H            0.058666125919     2.983483910747     1.833974406463     1.007825032230
         H           -0.013703874081     1.244800910747     2.171086406463     1.007825032230
         H            0.977454125919     3.717345910747    -0.347805593537     1.007825032230
         H            0.094561125919     2.504957910747    -1.326489593537     1.007825032230
         H            1.877343125919     2.532387910747    -1.315156593537     1.007825032230
         H            4.396426125919    -1.204764089253    -0.223371593537     1.007825032230
         H            2.839902125919    -3.148612089253    -0.430022593537     1.007825032230
         H           -1.303290874081    -1.935321089253     1.502829406463     1.007825032230
         H           -3.794068874081    -1.718698089253     1.305141406463     1.007825032230
         H           -3.121524874081     1.196046910747    -1.796579593537     1.007825032230
         H           -4.721717874081    -0.107423089253    -0.390603593537     1.007825032230

  Basis Set: AUG-CC-PVTZ
    Blend: AUG-CC-PVTZ
  Basis Set: (AUG-CC-PVTZ AUX)
    Blend: AUG-CC-PVTZ-JKFIT
	 Reference Energy          =    -609.4987990206059294 [Eh]
	 Singles Energy            =      -0.0000000000000000 [Eh]
	 Same-Spin Energy          =      -0.6838856494274904 [Eh]
	 Opposite-Spin Energy      =      -2.1382998811843512 [Eh]
	 Correlation Energy        =      -2.8221855306118417 [Eh]
	 Total Energy              =    -612.3209845512177480 [Eh]

	 ================> DF-SCS-MP2 Energies <==================
	-----------------------------------------------------------
	 SCS Same-Spin Scale       =       0.3333333333333333 [-]
	 SCS Opposite-Spin Scale   =       1.2000000000000000 [-]
	 SCS Same-Spin Energy      =      -0.2279618831424968 [Eh]
	 SCS Opposite-Spin Energy  =      -2.5659598574212215 [Eh]
	 SCS Correlation Energy    =      -2.7939217405637184 [Eh]
	 SCS Total Energy          =    -612.2927207611696758 [Eh]
	-----------------------------------------------------------

  Dipole Moment: [D]
     X:    -2.1589      Y:    -0.8165      Z:     0.6076     Total:     2.3868

*** Psi4 exiting successfully. Buy a developer a beer!
