                               Psi4 1.3.2 release

  ==> Input File <==

--------------------------------------------------------------------------
#psi4
#
memory 32 gb

molecule  {
0 1
  C       -0.6059800    -0.4049620    -0.0000070
  C        0.6059820     0.4049670    -0.0000070
  C       -1.8474020     0.1098690     0.0000050
  C        1.8474010    -0.1098720     0.0000050
  H       -0.4725216    -1.4867819     0.2499850
  H        0.4725330     1.4867860    -0.0000150
  H       -2.7279640    -0.5234220     0.0000090
  H       -2.0152630     1.1834510     0.0000160
  H        2.7279690     0.5234090     0.0000090
  H        2.0152500    -1.1834560     0.0000160
units angstrom
no_reorient  #important for SAPT in psi4, default
symmetry c1  #important for SAPT in psi4, default
}

set PROPERTIES_ORIGIN ["COM"]
properties('MP2/aug-cc-pvtz', properties = ['dipole'])
--------------------------------------------------------------------------

    Molecular point group: c1
  Charge       = 0
  Multiplicity = 1
  Basis Set: AUG-CC-PVTZ
    Blend: AUG-CC-PVTZ
  Basis Set: (AUG-CC-PVTZ AUX)
    Blend: AUG-CC-PVTZ-JKFIT

    Orbital Energies [Eh]
    ---------------------

    Doubly Occupied:

       1A    -11.245157     2A    -11.242243     3A    -11.233127
       4A    -11.231979     5A     -1.090769     6A     -0.999095
       7A     -0.827502     8A     -0.751007     9A     -0.644047
      10A     -0.633817    11A     -0.557203    12A     -0.544266
      13A     -0.495901    14A     -0.440643    15A     -0.323248

  @DF-RHF Final Energy:  -154.97385533573012

   => Energetics <=

    Nuclear Repulsion Energy =            103.4152291361649532
    One-Electron Energy =                -412.2581615960752401
    Two-Electron Energy =                 153.8690771241801656
    Total Energy =                       -154.9738553357301214
  Basis Set: (AUG-CC-PVTZ AUX)
    Blend: AUG-CC-PVTZ-RI
    Molecular point group: c1

    Geometry (in Angstrom), charge = 0, multiplicity = 1:

       Center              X                  Y                   Z               Mass
    ------------   -----------------  -----------------  -----------------  -----------------
         C           -0.605980285430    -0.404962184862    -0.004668288262    12.000000000000
         C            0.605981714570     0.404966815138    -0.004668288262    12.000000000000
         C           -1.847402285430     0.109868815138    -0.004656288262    12.000000000000
         C            1.847400714570    -0.109872184862    -0.004656288262    12.000000000000
         H           -0.472521885430    -1.486782084862     0.245323711738     1.007825032230
         H            0.472532714570     1.486785815138    -0.004676288262     1.007825032230
         H           -2.727964285430    -0.523422184862    -0.004652288262     1.007825032230
         H           -2.015263285430     1.183450815138    -0.004645288262     1.007825032230
         H            2.727968714570     0.523408815138    -0.004652288262     1.007825032230
         H            2.015249714570    -1.183456184862    -0.004645288262     1.007825032230

  Basis Set: AUG-CC-PVTZ
    Blend: AUG-CC-PVTZ
  Basis Set: (AUG-CC-PVTZ AUX)
    Blend: AUG-CC-PVTZ-JKFIT
	 Reference Energy          =    -154.9738553357301214 [Eh]
	 Singles Energy            =      -0.0000000000000000 [Eh]
	 Same-Spin Energy          =      -0.1594036198466527 [Eh]
	 Opposite-Spin Energy      =      -0.5739451892845667 [Eh]
	 Correlation Energy        =      -0.7333488091312195 [Eh]
	 Total Energy              =    -155.7072041448613504 [Eh]

	 ================> DF-SCS-MP2 Energies <==================
	-----------------------------------------------------------
	 SCS Same-Spin Scale       =       0.3333333333333333 [-]
	 SCS Opposite-Spin Scale   =       1.2000000000000000 [-]
	 SCS Same-Spin Energy      =      -0.0531345399488842 [Eh]
	 SCS Opposite-Spin Energy  =      -0.6887342271414800 [Eh]
	 SCS Correlation Energy    =      -0.7418687670903643 [Eh]
	 SCS Total Energy          =    -155.7157241028204737 [Eh]
	-----------------------------------------------------------

  Dipole Moment: [D]
     X:    -0.0110      Y:     0.0329      Z:     0.1579     Total:     0.1617

*** Psi4 exiting successfully. Buy a developer a beer!
