                               Psi4 1.3.2 release

  ==> Input File <==

--------------------------------------------------------------------------
#psi4
#
memory 32 gb

molecule  {
0 1
  C       -0.6059800    -0.4049620    -0.0000070
  C        0.6059820     0.4049670    -0.0000070
  C       -1.8474020     0.1098690     0.0000050
  C        1.8474010    -0.1098720     0.0000050
  H       -0.4725213    -1.4867823     0.2999850
  H        0.4725330     1.4867860    -0.0000150
  H       -2.7279640    -0.5234220     0.0000090
  H       -2.0152630     1.1834510     0.0000160
  H        2.7279690     0.5234090     0.0000090
  H        2.0152500    -1.1834560     0.0000160
units angstrom
no_reorient  #important for SAPT in psi4, default
symmetry c1  #important for SAPT in psi4, default
}

set PROPERTIES_ORIGIN ["COM"]
properties('MP2/aug-cc-pvtz', properties = ['dipole'])
--------------------------------------------------------------------------

    Molecular point group: c1
  Charge       = 0
  Multiplicity = 1
  Basis Set: AUG-CC-PVTZ
    Blend: AUG-CC-PVTZ
  Basis Set: (AUG-CC-PVTZ AUX)
    Blend: AUG-CC-PVTZ-JKFIT

    Orbital Energies [Eh]
    ---------------------

    Doubly Occupied:

       1A    -11.246323     2A    -11.242261     3A    -11.233573
       4A    -11.231938     5A     -1.090582     6A     -0.999117
       7A     -0.827419     8A     -0.749453     9A     -0.643900
      10A     -0.633341    11A     -0.556977    12A     -0.543892
      13A     -0.495852    14A     -0.439295    15A     -0.323317

  @DF-RHF Final Energy:  -154.97180497179170

   => Energetics <=

    Nuclear Repulsion Energy =            103.3721002989114623
    One-Electron Energy =                -412.1733326756559563
    Two-Electron Energy =                 153.8294274049528099
    Total Energy =                       -154.9718049717916983
  Basis Set: (AUG-CC-PVTZ AUX)
    Blend: AUG-CC-PVTZ-RI
    Molecular point group: c1

    Geometry (in Angstrom), charge = 0, multiplicity = 1:

       Center              X                  Y                   Z               Mass
    ------------   -----------------  -----------------  -----------------  -----------------
         C           -0.605980291024    -0.404962177403    -0.005600648949    12.000000000000
         C            0.605981708976     0.404966822597    -0.005600648949    12.000000000000
         C           -1.847402291024     0.109868822597    -0.005588648949    12.000000000000
         C            1.847400708976    -0.109872177403    -0.005588648949    12.000000000000
         H           -0.472521591024    -1.486782477403     0.294391351051     1.007825032230
         H            0.472532708976     1.486785822597    -0.005608648949     1.007825032230
         H           -2.727964291024    -0.523422177403    -0.005584648949     1.007825032230
         H           -2.015263291024     1.183450822597    -0.005577648949     1.007825032230
         H            2.727968708976     0.523408822597    -0.005584648949     1.007825032230
         H            2.015249708976    -1.183456177403    -0.005577648949     1.007825032230

  Basis Set: AUG-CC-PVTZ
    Blend: AUG-CC-PVTZ
  Basis Set: (AUG-CC-PVTZ AUX)
    Blend: AUG-CC-PVTZ-JKFIT
	 Reference Energy          =    -154.9718049717916983 [Eh]
	 Singles Energy            =      -0.0000000000000000 [Eh]
	 Same-Spin Energy          =      -0.1594844384332120 [Eh]
	 Opposite-Spin Energy      =      -0.5741829779183777 [Eh]
	 Correlation Energy        =      -0.7336674163515897 [Eh]
	 Total Energy              =    -155.7054723881432778 [Eh]

	 ================> DF-SCS-MP2 Energies <==================
	-----------------------------------------------------------
	 SCS Same-Spin Scale       =       0.3333333333333333 [-]
	 SCS Opposite-Spin Scale   =       1.2000000000000000 [-]
	 SCS Same-Spin Energy      =      -0.0531614794777373 [Eh]
	 SCS Opposite-Spin Energy  =      -0.6890195735020532 [Eh]
	 SCS Correlation Energy    =      -0.7421810529797905 [Eh]
	 SCS Total Energy          =    -155.7139860247714864 [Eh]
	-----------------------------------------------------------

  Dipole Moment: [D]
     X:    -0.0156      Y:     0.0471      Z:     0.1880     Total:     0.1945

*** Psi4 exiting successfully. Buy a developer a beer!
