                               Psi4 1.3.2 release

  ==> Input File <==

--------------------------------------------------------------------------
#psi4
#
memory 32 gb

molecule  {
0 1
  C       -0.6059800    -0.4049620    -0.0000070
  C        0.6059820     0.4049670    -0.0000070
  C       -1.8474020     0.1098690     0.0000050
  C        1.8474010    -0.1098720     0.0000050
  H       -0.4725221    -1.4867811     0.1499850
  H        0.4725330     1.4867860    -0.0000150
  H       -2.7279640    -0.5234220     0.0000090
  H       -2.0152630     1.1834510     0.0000160
  H        2.7279690     0.5234090     0.0000090
  H        2.0152500    -1.1834560     0.0000160
units angstrom
no_reorient  #important for SAPT in psi4, default
symmetry c1  #important for SAPT in psi4, default
}

set PROPERTIES_ORIGIN ["COM"]
properties('MP2/aug-cc-pvtz', properties = ['dipole'])
--------------------------------------------------------------------------

    Molecular point group: c1
  Charge       = 0
  Multiplicity = 1
  Basis Set: AUG-CC-PVTZ
    Blend: AUG-CC-PVTZ
  Basis Set: (AUG-CC-PVTZ AUX)
    Blend: AUG-CC-PVTZ-JKFIT

    Orbital Energies [Eh]
    ---------------------

    Doubly Occupied:

       1A    -11.243485     2A    -11.242166     3A    -11.232469
       4A    -11.232050     5A     -1.091069     6A     -0.999077
       7A     -0.827655     8A     -0.753433     9A     -0.644323
      10A     -0.634511    11A     -0.557585    12A     -0.544755
      13A     -0.495911    14A     -0.442671    15A     -0.323152

  @DF-RHF Final Energy:  -154.97664479227637

   => Energetics <=

    Nuclear Repulsion Energy =            103.4799924588543547
    One-Electron Energy =                -412.3846506623020787
    Two-Electron Energy =                 153.9280134111713778
    Total Energy =                       -154.9766447922763746
  Basis Set: (AUG-CC-PVTZ AUX)
    Blend: AUG-CC-PVTZ-RI
    Molecular point group: c1

    Geometry (in Angstrom), charge = 0, multiplicity = 1:

       Center              X                  Y                   Z               Mass
    ------------   -----------------  -----------------  -----------------  -----------------
         C           -0.605980276106    -0.404962199780    -0.002803566888    12.000000000000
         C            0.605981723894     0.404966800220    -0.002803566888    12.000000000000
         C           -1.847402276106     0.109868800220    -0.002791566888    12.000000000000
         C            1.847400723894    -0.109872199780    -0.002791566888    12.000000000000
         H           -0.472522376106    -1.486781299780     0.147188433112     1.007825032230
         H            0.472532723894     1.486785800220    -0.002811566888     1.007825032230
         H           -2.727964276106    -0.523422199780    -0.002787566888     1.007825032230
         H           -2.015263276106     1.183450800220    -0.002780566888     1.007825032230
         H            2.727968723894     0.523408800220    -0.002787566888     1.007825032230
         H            2.015249723894    -1.183456199780    -0.002780566888     1.007825032230

  Basis Set: AUG-CC-PVTZ
    Blend: AUG-CC-PVTZ
  Basis Set: (AUG-CC-PVTZ AUX)
    Blend: AUG-CC-PVTZ-JKFIT
	 Reference Energy          =    -154.9766447922763746 [Eh]
	 Singles Energy            =      -0.0000000000000000 [Eh]
	 Same-Spin Energy          =      -0.1592828581018164 [Eh]
	 Opposite-Spin Energy      =      -0.5736062896010288 [Eh]
	 Correlation Energy        =      -0.7328891477028452 [Eh]
	 Total Energy              =    -155.7095339399792238 [Eh]

	 ================> DF-SCS-MP2 Energies <==================
	-----------------------------------------------------------
	 SCS Same-Spin Scale       =       0.3333333333333333 [-]
	 SCS Opposite-Spin Scale   =       1.2000000000000000 [-]
	 SCS Same-Spin Energy      =      -0.0530942860339388 [Eh]
	 SCS Opposite-Spin Energy  =      -0.6883275475212345 [Eh]
	 SCS Correlation Energy    =      -0.7414218335551732 [Eh]
	 SCS Total Energy          =    -155.7180666258315398 [Eh]
	-----------------------------------------------------------

  Dipole Moment: [D]
     X:    -0.0041      Y:     0.0120      Z:     0.0958     Total:     0.0967

*** Psi4 exiting successfully. Buy a developer a beer!
