                               Psi4 1.3.2 release

  ==> Input File <==

--------------------------------------------------------------------------
#psi4
#
memory 32 gb

molecule  {
0 1
  C       -0.6059800    -0.4049620    -0.0000070
  C        0.6059820     0.4049670    -0.0000070
  C       -1.8474020     0.1098690     0.0000050
  C        1.8474010    -0.1098720     0.0000050
  H       -0.4725230    -1.4867800    -0.0000150
  H        0.4725330     1.4867860    -0.0000150
  H       -2.7279640    -0.5234220     0.0000090
  H       -2.0152630     1.1834510     0.0000160
  H        2.7279690     0.5234090     0.0000090
  H        2.0152500    -1.1834560     0.0000160
units angstrom
no_reorient  #important for SAPT in psi4, default
symmetry c1  #important for SAPT in psi4, default
}

set PROPERTIES_ORIGIN ["COM"]
properties('MP2/aug-cc-pvtz', properties = ['dipole'])
--------------------------------------------------------------------------

    Molecular point group: c1
  Charge       = 0
  Multiplicity = 1
  Basis Set: AUG-CC-PVTZ
    Blend: AUG-CC-PVTZ
  Basis Set: (AUG-CC-PVTZ AUX)
    Blend: AUG-CC-PVTZ-JKFIT

    Orbital Energies [Eh]
    ---------------------

    Doubly Occupied:

       1A    -11.242747     2A    -11.241913     3A    -11.232099
       4A    -11.232094     5A     -1.091256     6A     -0.999077
       7A     -0.827763     8A     -0.754891     9A     -0.644518
      10A     -0.634900    11A     -0.557829    12A     -0.545003
      13A     -0.495884    14A     -0.443852    15A     -0.323100

  @DF-RHF Final Energy:  -154.97809678870010

   => Energetics <=

    Nuclear Repulsion Energy =            103.5175408551358771
    One-Electron Energy =                -412.4574210734364215
    Two-Electron Energy =                 153.9617834296004730
    Total Energy =                       -154.9780967887000998
  Basis Set: (AUG-CC-PVTZ AUX)
    Blend: AUG-CC-PVTZ-RI
    Molecular point group: c1

    Geometry (in Angstrom), charge = 0, multiplicity = 1:

       Center              X                  Y                   Z               Mass
    ------------   -----------------  -----------------  -----------------  -----------------
         C           -0.605980259324    -0.404962220292    -0.000006484828    12.000000000000
         C            0.605981740676     0.404966779708    -0.000006484828    12.000000000000
         C           -1.847402259324     0.109868779708     0.000005515172    12.000000000000
         C            1.847400740676    -0.109872220292     0.000005515172    12.000000000000
         H           -0.472523259324    -1.486780220292    -0.000014484828     1.007825032230
         H            0.472532740676     1.486785779708    -0.000014484828     1.007825032230
         H           -2.727964259324    -0.523422220292     0.000009515172     1.007825032230
         H           -2.015263259324     1.183450779708     0.000016515172     1.007825032230
         H            2.727968740676     0.523408779708     0.000009515172     1.007825032230
         H            2.015249740676    -1.183456220292     0.000016515172     1.007825032230

  Basis Set: AUG-CC-PVTZ
    Blend: AUG-CC-PVTZ
  Basis Set: (AUG-CC-PVTZ AUX)
    Blend: AUG-CC-PVTZ-JKFIT
	 Reference Energy          =    -154.9780967887000998 [Eh]
	 Singles Energy            =      -0.0000000000000000 [Eh]
	 Same-Spin Energy          =      -0.1592128934613805 [Eh]
	 Opposite-Spin Energy      =      -0.5734261215900055 [Eh]
	 Correlation Energy        =      -0.7326390150513860 [Eh]
	 Total Energy              =    -155.7107358037514757 [Eh]

	 ================> DF-SCS-MP2 Energies <==================
	-----------------------------------------------------------
	 SCS Same-Spin Scale       =       0.3333333333333333 [-]
	 SCS Opposite-Spin Scale   =       1.2000000000000000 [-]
	 SCS Same-Spin Energy      =      -0.0530709644871268 [Eh]
	 SCS Opposite-Spin Energy  =      -0.6881113459080066 [Eh]
	 SCS Correlation Energy    =      -0.7411823103951334 [Eh]
	 SCS Total Energy          =    -155.7192790990952460 [Eh]
	-----------------------------------------------------------

  Dipole Moment: [D]
     X:     0.0000      Y:     0.0000      Z:     0.0000     Total:     0.0000

*** Psi4 exiting successfully. Buy a developer a beer!
