                               Psi4 1.3.2 release

  ==> Input File <==

--------------------------------------------------------------------------
#psi4
#
memory 32 gb

molecule  {
0 1
  C       -0.6059800    -0.4049620    -0.0000070
  C        0.6059820     0.4049670    -0.0000070
  C       -1.8474020     0.1098690     0.0000050
  C        1.8474010    -0.1098720     0.0000050
  H       -0.4725224    -1.4867808     0.0999850
  H        0.4725330     1.4867860    -0.0000150
  H       -2.7279640    -0.5234220     0.0000090
  H       -2.0152630     1.1834510     0.0000160
  H        2.7279690     0.5234090     0.0000090
  H        2.0152500    -1.1834560     0.0000160
units angstrom
no_reorient  #important for SAPT in psi4, default
symmetry c1  #important for SAPT in psi4, default
}

set PROPERTIES_ORIGIN ["COM"]
properties('MP2/aug-cc-pvtz', properties = ['dipole'])
--------------------------------------------------------------------------

    Molecular point group: c1
  Charge       = 0
  Multiplicity = 1
  Basis Set: AUG-CC-PVTZ
    Blend: AUG-CC-PVTZ
  Basis Set: (AUG-CC-PVTZ AUX)
    Blend: AUG-CC-PVTZ-JKFIT

    Orbital Energies [Eh]
    ---------------------

    Doubly Occupied:

       1A    -11.243025     2A    -11.242075     3A    -11.232262
       4A    -11.232075     5A     -1.091171     6A     -0.999076
       7A     -0.827713     8A     -0.754234     9A     -0.644427
      10A     -0.634727    11A     -0.557717    12A     -0.544895
      13A     -0.495899    14A     -0.443324    15A     -0.323123

  @DF-RHF Final Energy:  -154.97746285027151

   => Energetics <=

    Nuclear Repulsion Energy =            103.5007496205645197
    One-Electron Energy =                -412.4249378993186497
    Two-Electron Energy =                 153.9467254284826083
    Total Energy =                       -154.9774628502715075
  Basis Set: (AUG-CC-PVTZ AUX)
    Blend: AUG-CC-PVTZ-RI
    Molecular point group: c1

    Geometry (in Angstrom), charge = 0, multiplicity = 1:

       Center              X                  Y                   Z               Mass
    ------------   -----------------  -----------------  -----------------  -----------------
         C           -0.605980270512    -0.404962205374    -0.001871206202    12.000000000000
         C            0.605981729488     0.404966794626    -0.001871206202    12.000000000000
         C           -1.847402270512     0.109868794626    -0.001859206202    12.000000000000
         C            1.847400729488    -0.109872205374    -0.001859206202    12.000000000000
         H           -0.472522670512    -1.486781005374     0.098120793798     1.007825032230
         H            0.472532729488     1.486785794626    -0.001879206202     1.007825032230
         H           -2.727964270512    -0.523422205374    -0.001855206202     1.007825032230
         H           -2.015263270512     1.183450794626    -0.001848206202     1.007825032230
         H            2.727968729488     0.523408794626    -0.001855206202     1.007825032230
         H            2.015249729488    -1.183456205374    -0.001848206202     1.007825032230

  Basis Set: AUG-CC-PVTZ
    Blend: AUG-CC-PVTZ
  Basis Set: (AUG-CC-PVTZ AUX)
    Blend: AUG-CC-PVTZ-JKFIT
	 Reference Energy          =    -154.9774628502715075 [Eh]
	 Singles Energy            =      -0.0000000000000000 [Eh]
	 Same-Spin Energy          =      -0.1592442025720111 [Eh]
	 Opposite-Spin Energy      =      -0.5735044771936660 [Eh]
	 Correlation Energy        =      -0.7327486797656771 [Eh]
	 Total Energy              =    -155.7102115300371850 [Eh]

	 ================> DF-SCS-MP2 Energies <==================
	-----------------------------------------------------------
	 SCS Same-Spin Scale       =       0.3333333333333333 [-]
	 SCS Opposite-Spin Scale   =       1.2000000000000000 [-]
	 SCS Same-Spin Energy      =      -0.0530814008573370 [Eh]
	 SCS Opposite-Spin Energy  =      -0.6882053726323992 [Eh]
	 SCS Correlation Energy    =      -0.7412867734897363 [Eh]
	 SCS Total Energy          =    -155.7187496237612550 [Eh]
	-----------------------------------------------------------

  Dipole Moment: [D]
     X:    -0.0018      Y:     0.0054      Z:     0.0641     Total:     0.0644

*** Psi4 exiting successfully. Buy a developer a beer!
