                               Psi4 1.3.2 release

  ==> Input File <==

--------------------------------------------------------------------------
#psi4
#
memory 32 gb

molecule  {
0 1
  C       -0.6059800    -0.4049620    -0.0000070
  C        0.6059820     0.4049670    -0.0000070
  C       -1.8474020     0.1098690     0.0000050
  C        1.8474010    -0.1098720     0.0000050
  H       -0.4725227    -1.4867804     0.0499850
  H        0.4725330     1.4867860    -0.0000150
  H       -2.7279640    -0.5234220     0.0000090
  H       -2.0152630     1.1834510     0.0000160
  H        2.7279690     0.5234090     0.0000090
  H        2.0152500    -1.1834560     0.0000160
units angstrom
no_reorient  #important for SAPT in psi4, default
symmetry c1  #important for SAPT in psi4, default
}

set PROPERTIES_ORIGIN ["COM"]
properties('MP2/aug-cc-pvtz', properties = ['dipole'])
--------------------------------------------------------------------------

    Molecular point group: c1
  Charge       = 0
  Multiplicity = 1
  Basis Set: AUG-CC-PVTZ
    Blend: AUG-CC-PVTZ
  Basis Set: (AUG-CC-PVTZ AUX)
    Blend: AUG-CC-PVTZ-JKFIT

    Orbital Energies [Eh]
    ---------------------

    Doubly Occupied:

       1A    -11.242806     2A    -11.241964     3A    -11.232138
       4A    -11.232091     5A     -1.091234     6A     -0.999076
       7A     -0.827750     8A     -0.754725     9A     -0.644495
      10A     -0.634857    11A     -0.557800    12A     -0.544976
      13A     -0.495889    14A     -0.443720    15A     -0.323106

  @DF-RHF Final Energy:  -154.97794008069542

   => Energetics <=

    Nuclear Repulsion Energy =            103.5133274342215941
    One-Electron Energy =                -412.4492798619636460
    Two-Electron Energy =                 153.9580123470466333
    Total Energy =                       -154.9779400806954186
  Basis Set: (AUG-CC-PVTZ AUX)
    Blend: AUG-CC-PVTZ-RI
    Molecular point group: c1

    Geometry (in Angstrom), charge = 0, multiplicity = 1:

       Center              X                  Y                   Z               Mass
    ------------   -----------------  -----------------  -----------------  -----------------
         C           -0.605980264918    -0.404962212833    -0.000938845515    12.000000000000
         C            0.605981735082     0.404966787167    -0.000938845515    12.000000000000
         C           -1.847402264918     0.109868787167    -0.000926845515    12.000000000000
         C            1.847400735082    -0.109872212833    -0.000926845515    12.000000000000
         H           -0.472522964918    -1.486780612833     0.049053154485     1.007825032230
         H            0.472532735082     1.486785787167    -0.000946845515     1.007825032230
         H           -2.727964264918    -0.523422212833    -0.000922845515     1.007825032230
         H           -2.015263264918     1.183450787167    -0.000915845515     1.007825032230
         H            2.727968735082     0.523408787167    -0.000922845515     1.007825032230
         H            2.015249735082    -1.183456212833    -0.000915845515     1.007825032230

  Basis Set: AUG-CC-PVTZ
    Blend: AUG-CC-PVTZ
  Basis Set: (AUG-CC-PVTZ AUX)
    Blend: AUG-CC-PVTZ-JKFIT
	 Reference Energy          =    -154.9779400806954186 [Eh]
	 Singles Energy            =      -0.0000000000000000 [Eh]
	 Same-Spin Energy          =      -0.1592207560752285 [Eh]
	 Opposite-Spin Energy      =      -0.5734453595866467 [Eh]
	 Correlation Energy        =      -0.7326661156618751 [Eh]
	 Total Energy              =    -155.7106061963573040 [Eh]

	 ================> DF-SCS-MP2 Energies <==================
	-----------------------------------------------------------
	 SCS Same-Spin Scale       =       0.3333333333333333 [-]
	 SCS Opposite-Spin Scale   =       1.2000000000000000 [-]
	 SCS Same-Spin Energy      =      -0.0530735853584095 [Eh]
	 SCS Opposite-Spin Energy  =      -0.6881344315039760 [Eh]
	 SCS Correlation Energy    =      -0.7412080168623855 [Eh]
	 SCS Total Energy          =    -155.7191480975577917 [Eh]
	-----------------------------------------------------------

  Dipole Moment: [D]
     X:    -0.0004      Y:     0.0014      Z:     0.0321     Total:     0.0322

*** Psi4 exiting successfully. Buy a developer a beer!
