                               Psi4 1.3.2 release

  ==> Input File <==

--------------------------------------------------------------------------
#psi4
#
memory 32 gb

molecule  {
0 1
  C       -0.6059800    -0.4049620    -0.0000070
  C        0.6059820     0.4049670    -0.0000070
  C       -1.8474020     0.1098690     0.0000050
  C        1.8474010    -0.1098720     0.0000050
  H       -0.4725218    -1.4867815     0.1999850
  H        0.4725330     1.4867860    -0.0000150
  H       -2.7279640    -0.5234220     0.0000090
  H       -2.0152630     1.1834510     0.0000160
  H        2.7279690     0.5234090     0.0000090
  H        2.0152500    -1.1834560     0.0000160
units angstrom
no_reorient  #important for SAPT in psi4, default
symmetry c1  #important for SAPT in psi4, default
}

set PROPERTIES_ORIGIN ["COM"]
properties('MP2/aug-cc-pvtz', properties = ['dipole'])
--------------------------------------------------------------------------

    Molecular point group: c1
  Charge       = 0
  Multiplicity = 1
  Basis Set: AUG-CC-PVTZ
    Blend: AUG-CC-PVTZ
  Basis Set: (AUG-CC-PVTZ AUX)
    Blend: AUG-CC-PVTZ-JKFIT

    Orbital Energies [Eh]
    ---------------------

    Doubly Occupied:

       1A    -11.244203     2A    -11.242216     3A    -11.232758
       4A    -11.232017     5A     -1.090934     6A     -0.999083
       7A     -0.827583     8A     -0.752346     9A     -0.644192
      10A     -0.634207    11A     -0.557410    12A     -0.544549
      13A     -0.495916    14A     -0.441773    15A     -0.323193

  @DF-RHF Final Energy:  -154.97545495665833

   => Energetics <=

    Nuclear Repulsion Energy =            103.4513530225775924
    One-Electron Energy =                -412.3288543390818859
    Two-Electron Energy =                 153.9020463598459969
    Total Energy =                       -154.9754549566583250
  Basis Set: (AUG-CC-PVTZ AUX)
    Blend: AUG-CC-PVTZ-RI
    Molecular point group: c1

    Geometry (in Angstrom), charge = 0, multiplicity = 1:

       Center              X                  Y                   Z               Mass
    ------------   -----------------  -----------------  -----------------  -----------------
         C           -0.605980281700    -0.404962192321    -0.003735927575    12.000000000000
         C            0.605981718300     0.404966807679    -0.003735927575    12.000000000000
         C           -1.847402281700     0.109868807679    -0.003723927575    12.000000000000
         C            1.847400718300    -0.109872192321    -0.003723927575    12.000000000000
         H           -0.472522081700    -1.486781692321     0.196256072425     1.007825032230
         H            0.472532718300     1.486785807679    -0.003743927575     1.007825032230
         H           -2.727964281700    -0.523422192321    -0.003719927575     1.007825032230
         H           -2.015263281700     1.183450807679    -0.003712927575     1.007825032230
         H            2.727968718300     0.523408807679    -0.003719927575     1.007825032230
         H            2.015249718300    -1.183456192321    -0.003712927575     1.007825032230

  Basis Set: AUG-CC-PVTZ
    Blend: AUG-CC-PVTZ
  Basis Set: (AUG-CC-PVTZ AUX)
    Blend: AUG-CC-PVTZ-JKFIT
	 Reference Energy          =    -154.9754549566583250 [Eh]
	 Singles Energy            =      -0.0000000000000000 [Eh]
	 Same-Spin Energy          =      -0.1593362006400777 [Eh]
	 Opposite-Spin Energy      =      -0.5737529235998896 [Eh]
	 Correlation Energy        =      -0.7330891242399673 [Eh]
	 Total Energy              =    -155.7085440808982923 [Eh]

	 ================> DF-SCS-MP2 Energies <==================
	-----------------------------------------------------------
	 SCS Same-Spin Scale       =       0.3333333333333333 [-]
	 SCS Opposite-Spin Scale   =       1.2000000000000000 [-]
	 SCS Same-Spin Energy      =      -0.0531120668800259 [Eh]
	 SCS Opposite-Spin Energy  =      -0.6885035083198675 [Eh]
	 SCS Correlation Energy    =      -0.7416155751998934 [Eh]
	 SCS Total Energy          =    -155.7170705318582122 [Eh]
	-----------------------------------------------------------

  Dipole Moment: [D]
     X:    -0.0072      Y:     0.0212      Z:     0.1272     Total:     0.1291

*** Psi4 exiting successfully. Buy a developer a beer!
