                               Psi4 1.4a3.dev225

  ==> Input File <==

--------------------------------------------------------------------------
#psi4
#
memory 32 gb

molecule  {
0 1
  O        1.7152690     0.3729450     0.0000090
  N        0.1712200    -1.3621090     0.0000060
  C       -0.5564040     0.9604300     0.0000000
  C        0.4232170    -0.0565940     0.0000060
  C       -1.8793030     0.5348530    -0.0000030
  C       -0.1337869     2.4517918    -0.0000010
  C       -2.1785860    -0.8336660    -0.0000030
  C       -1.1267010    -1.7380260     0.0000010
  C        2.7107190    -0.6607300    -0.0000090
  H       -2.6789950     1.2736560    -0.0000080
  H       -1.0269000     3.0530270    -0.0000180
  H        0.4613570     2.6342930     0.8791020
  H        0.4613860     2.6342840    -0.8790860
  H       -3.2063890    -1.1841980    -0.0000050
  H       -1.3049600    -2.8116020     0.0000010
  H        2.6194040    -1.2894460    -0.8881130
  H        2.6194520    -1.2894310     0.8881110
  H        3.6618180    -0.1291010    -0.0000380
units angstrom
no_reorient  #important for SAPT in psi4, default
symmetry c1  #important for SAPT in psi4, default
}

set PROPERTIES_ORIGIN ["COM"]
properties('MP2/aug-cc-pvtz', properties = ['dipole'])
--------------------------------------------------------------------------

    Molecular point group: c1
  Charge       = 0
  Multiplicity = 1
  Basis Set: AUG-CC-PVTZ
    Blend: AUG-CC-PVTZ
  Basis Set: (AUG-CC-PVTZ AUX)
    Blend: AUG-CC-PVTZ-JKFIT

    Orbital Energies [Eh]
    ---------------------

    Doubly Occupied:

       1A    -20.586506     2A    -15.558698     3A    -11.331886
       4A    -11.273837     5A    -11.273614     6A    -11.254221
       7A    -11.243544     8A    -11.230139     9A    -11.223709
      10A     -1.414964    11A     -1.244017    12A     -1.095633
      13A     -1.038099    14A     -0.955282    15A     -0.935904
      16A     -0.836128    17A     -0.825007    18A     -0.719546
      19A     -0.687365    20A     -0.653413    21A     -0.646563
      22A     -0.601078    23A     -0.587399    24A     -0.580760
      25A     -0.560613    26A     -0.552213    27A     -0.532446
      28A     -0.522654    29A     -0.500896    30A     -0.476318
      31A     -0.421591    32A     -0.377218    33A     -0.315798

  @DF-RHF Final Energy:  -399.76407183787330

   => Energetics <=

    Nuclear Repulsion Energy =            434.4473870354221958
    One-Electron Energy =               -1404.3088069371019628
    Two-Electron Energy =                 570.0973480638064075
    Total Energy =                       -399.7640718378733027
  Basis Set: (AUG-CC-PVTZ AUX)
    Blend: AUG-CC-PVTZ-RI
    Molecular point group: c1

    Geometry (in Angstrom), charge = 0, multiplicity = 1:

       Center              X                  Y                   Z               Mass
    ------------   -----------------  -----------------  -----------------  -----------------
         O            1.726955263462     0.391614909552     0.000008467368    15.994914619570
         N            0.182906263462    -1.343439090448     0.000005467368    14.003074004430
         C           -0.544717736538     0.979099909552    -0.000000532632    12.000000000000
         C            0.434903263462    -0.037924090448     0.000005467368    12.000000000000
         C           -1.867616736538     0.553522909552    -0.000003532632    12.000000000000
         C           -0.122100636538     2.470461709552    -0.000001532632    12.000000000000
         C           -2.166899736538    -0.814996090448    -0.000003532632    12.000000000000
         C           -1.115014736538    -1.719356090448     0.000000467368    12.000000000000
         C            2.722405263462    -0.642060090448    -0.000009532632    12.000000000000
         H           -2.667308736538     1.292325909552    -0.000008532632     1.007825032230
         H           -1.015213736538     3.071696909552    -0.000018532632     1.007825032230
         H            0.473043263462     2.652962909552     0.879101467368     1.007825032230
         H            0.473072263462     2.652953909552    -0.879086532632     1.007825032230
         H           -3.194702736538    -1.165528090448    -0.000005532632     1.007825032230
         H           -1.293273736538    -2.792932090448     0.000000467368     1.007825032230
         H            2.631090263462    -1.270776090448    -0.888113532632     1.007825032230
         H            2.631138263462    -1.270761090448     0.888110467368     1.007825032230
         H            3.673504263462    -0.110431090448    -0.000038532632     1.007825032230

  Basis Set: AUG-CC-PVTZ
    Blend: AUG-CC-PVTZ
  Basis Set: (AUG-CC-PVTZ AUX)
    Blend: AUG-CC-PVTZ-JKFIT
	 Reference Energy          =    -399.7640718378733027 [Eh]
	 Singles Energy            =      -0.0000000000000000 [Eh]
	 Same-Spin Energy          =      -0.4234026865489929 [Eh]
	 Opposite-Spin Energy      =      -1.3364375076248569 [Eh]
	 Correlation Energy        =      -1.7598401941738497 [Eh]
	 Total Energy              =    -401.5239120320471784 [Eh]

	 ================> DF-SCS-MP2 Energies <==================
	-----------------------------------------------------------
	 SCS Same-Spin Scale       =       0.3333333333333333 [-]
	 SCS Opposite-Spin Scale   =       1.2000000000000000 [-]
	 SCS Same-Spin Energy      =      -0.1411342288496643 [Eh]
	 SCS Opposite-Spin Energy  =      -1.6037250091498283 [Eh]
	 SCS Correlation Energy    =      -1.7448592379994925 [Eh]
	 SCS Total Energy          =    -401.5089310758727947 [Eh]
	-----------------------------------------------------------

  Dipole Moment: [D]
     X:    -0.5401      Y:     0.6518      Z:    -0.0000     Total:     0.8464

*** Psi4 exiting successfully. Buy a developer a beer!
