                               Psi4 1.4a3.dev225

  ==> Input File <==

--------------------------------------------------------------------------
#psi4
#
memory 32 gb

molecule  {
0 1
  O        1.7152690     0.3729450     0.0000090
  N        0.1712200    -1.3621090     0.0000060
  C       -0.5564040     0.9604300     0.0000000
  C        0.4232170    -0.0565940     0.0000060
  C       -1.8793030     0.5348530    -0.0000030
  C       -0.1474190     2.4036860    -0.0000010
  C       -2.1785860    -0.8336660    -0.0000030
  C       -1.1267010    -1.7380260     0.0000010
  C        2.7107190    -0.6607300    -0.0000090
  H       -2.6789950     1.2736560    -0.0000080
  H       -1.0269000     3.0530270    -0.0000180
  H        0.4025270     2.6120094     0.9223713
  H        0.4613860     2.6342840    -0.8790860
  H       -3.2063890    -1.1841980    -0.0000050
  H       -1.3049600    -2.8116020     0.0000010
  H        2.6194040    -1.2894460    -0.8881130
  H        2.6194520    -1.2894310     0.8881110
  H        3.6618180    -0.1291010    -0.0000380
units angstrom
no_reorient  #important for SAPT in psi4, default
symmetry c1  #important for SAPT in psi4, default
}

set PROPERTIES_ORIGIN ["COM"]
properties('MP2/aug-cc-pvtz', properties = ['dipole'])
--------------------------------------------------------------------------

    Molecular point group: c1
  Charge       = 0
  Multiplicity = 1
  Basis Set: AUG-CC-PVTZ
    Blend: AUG-CC-PVTZ
  Basis Set: (AUG-CC-PVTZ AUX)
    Blend: AUG-CC-PVTZ-JKFIT

    Orbital Energies [Eh]
    ---------------------

    Doubly Occupied:

       1A    -20.586662     2A    -15.558858     3A    -11.331943
       4A    -11.273906     5A    -11.273675     6A    -11.254032
       7A    -11.241432     8A    -11.230181     9A    -11.224552
      10A     -1.415194    11A     -1.244263    12A     -1.099690
      13A     -1.040145    14A     -0.955770    15A     -0.935162
      16A     -0.835496    17A     -0.824658    18A     -0.719614
      19A     -0.687968    20A     -0.653800    21A     -0.647909
      22A     -0.603364    23A     -0.588363    24A     -0.582061
      25A     -0.559716    26A     -0.546163    27A     -0.531295
      28A     -0.526434    29A     -0.499476    30A     -0.476411
      31A     -0.422677    32A     -0.376739    33A     -0.315313

  @DF-RHF Final Energy:  -399.76508438458694

   => Energetics <=

    Nuclear Repulsion Energy =            435.3475672272807060
    One-Electron Energy =               -1406.0994556405992171
    Two-Electron Energy =                 570.9868040287316262
    Total Energy =                       -399.7650843845868849
  Basis Set: (AUG-CC-PVTZ AUX)
    Blend: AUG-CC-PVTZ-RI
    Molecular point group: c1

    Geometry (in Angstrom), charge = 0, multiplicity = 1:

       Center              X                  Y                   Z               Mass
    ------------   -----------------  -----------------  -----------------  -----------------
         O            1.728766252485     0.396488032970    -0.000345871184    15.994914619570
         N            0.184717252485    -1.338565967030    -0.000348871184    14.003074004430
         C           -0.542906747515     0.983973032970    -0.000354871184    12.000000000000
         C            0.436714252485    -0.033050967030    -0.000348871184    12.000000000000
         C           -1.865805747515     0.558396032970    -0.000357871184    12.000000000000
         C           -0.133921747515     2.427229032970    -0.000355871184    12.000000000000
         C           -2.165088747515    -0.810122967030    -0.000357871184    12.000000000000
         C           -1.113203747515    -1.714482967030    -0.000353871184    12.000000000000
         C            2.724216252485    -0.637186967030    -0.000363871184    12.000000000000
         H           -2.665497747515     1.297199032970    -0.000362871184     1.007825032230
         H           -1.013402747515     3.076570032970    -0.000372871184     1.007825032230
         H            0.416024252485     2.635552432970     0.922016428816     1.007825032230
         H            0.474883252485     2.657827032970    -0.879440871184     1.007825032230
         H           -3.192891747515    -1.160654967030    -0.000359871184     1.007825032230
         H           -1.291462747515    -2.788058967030    -0.000353871184     1.007825032230
         H            2.632901252485    -1.265902967030    -0.888467871184     1.007825032230
         H            2.632949252485    -1.265887967030     0.887756128816     1.007825032230
         H            3.675315252485    -0.105557967030    -0.000392871184     1.007825032230

  Basis Set: AUG-CC-PVTZ
    Blend: AUG-CC-PVTZ
  Basis Set: (AUG-CC-PVTZ AUX)
    Blend: AUG-CC-PVTZ-JKFIT
	 Reference Energy          =    -399.7650843845869417 [Eh]
	 Singles Energy            =      -0.0000000000000000 [Eh]
	 Same-Spin Energy          =      -0.4237817679577948 [Eh]
	 Opposite-Spin Energy      =      -1.3367311854376724 [Eh]
	 Correlation Energy        =      -1.7605129533954673 [Eh]
	 Total Energy              =    -401.5255973379823899 [Eh]

	 ================> DF-SCS-MP2 Energies <==================
	-----------------------------------------------------------
	 SCS Same-Spin Scale       =       0.3333333333333333 [-]
	 SCS Opposite-Spin Scale   =       1.2000000000000000 [-]
	 SCS Same-Spin Energy      =      -0.1412605893192649 [Eh]
	 SCS Opposite-Spin Energy  =      -1.6040774225252068 [Eh]
	 SCS Correlation Energy    =      -1.7453380118444717 [Eh]
	 SCS Total Energy          =    -401.5104223964314087 [Eh]
	-----------------------------------------------------------

  Dipole Moment: [D]
     X:    -0.5506      Y:     0.6578      Z:     0.0103     Total:     0.8579

*** Psi4 exiting successfully. Buy a developer a beer!
