                               Psi4 1.4a3.dev225

  ==> Input File <==

--------------------------------------------------------------------------
#psi4
#
memory 32 gb

molecule  {
0 1
  O        1.7152690     0.3729450     0.0000090
  N        0.1712200    -1.3621090     0.0000060
  C       -0.5564040     0.9604300     0.0000000
  C        0.4232170    -0.0565940     0.0000060
  C       -1.8275711     0.3989038    -0.0000027
  C       -0.1474190     2.4036860    -0.0000010
  C       -2.1785860    -0.8336660    -0.0000030
  C       -1.1267010    -1.7380260     0.0000010
  C        2.7107190    -0.6607300    -0.0000090
  H       -2.6789950     1.2736560    -0.0000080
  H       -1.0269000     3.0530270    -0.0000180
  H        0.4613570     2.6342930     0.8791020
  H        0.4613860     2.6342840    -0.8790860
  H       -3.2063890    -1.1841980    -0.0000050
  H       -1.3049600    -2.8116020     0.0000010
  H        2.6194040    -1.2894460    -0.8881130
  H        2.6194520    -1.2894310     0.8881110
  H        3.6618180    -0.1291010    -0.0000380
units angstrom
no_reorient  #important for SAPT in psi4, default
symmetry c1  #important for SAPT in psi4, default
}

set PROPERTIES_ORIGIN ["COM"]
properties('MP2/aug-cc-pvtz', properties = ['dipole'])
--------------------------------------------------------------------------

    Molecular point group: c1
  Charge       = 0
  Multiplicity = 1
  Basis Set: AUG-CC-PVTZ
    Blend: AUG-CC-PVTZ
  Basis Set: (AUG-CC-PVTZ AUX)
    Blend: AUG-CC-PVTZ-JKFIT

    Orbital Energies [Eh]
    ---------------------

    Doubly Occupied:

       1A    -20.584333     2A    -15.560262     3A    -11.328528
       4A    -11.278995     5A    -11.272881     6A    -11.251151
       7A    -11.239093     8A    -11.226791     9A    -11.219437
      10A     -1.413542    11A     -1.251390    12A     -1.107830
      13A     -1.055082    14A     -0.956762    15A     -0.935276
      16A     -0.843219    17A     -0.815405    18A     -0.715590
      19A     -0.695895    20A     -0.658517    21A     -0.652804
      22A     -0.595709    23A     -0.589060    24A     -0.578318
      25A     -0.551386    26A     -0.543241    27A     -0.534317
      28A     -0.516578    29A     -0.503150    30A     -0.480819
      31A     -0.417585    32A     -0.388957    33A     -0.315276

  @DF-RHF Final Energy:  -399.73740581709171

   => Energetics <=

    Nuclear Repulsion Energy =            437.4826611261659650
    One-Electron Energy =               -1410.2857725704695895
    Two-Electron Energy =                 573.0657056272118552
    Total Energy =                       -399.7374058170917124
  Basis Set: (AUG-CC-PVTZ AUX)
    Blend: AUG-CC-PVTZ-RI
    Molecular point group: c1

    Geometry (in Angstrom), charge = 0, multiplicity = 1:

       Center              X                  Y                   Z               Mass
    ------------   -----------------  -----------------  -----------------  -----------------
         O            1.723240276119     0.409561512825     0.000008438116    15.994914619570
         N            0.179191276119    -1.325492487175     0.000005438116    14.003074004430
         C           -0.548432723881     0.997046512825    -0.000000561884    12.000000000000
         C            0.431188276119    -0.019977487175     0.000005438116    12.000000000000
         C           -1.819599823881     0.435520312825    -0.000003261884    12.000000000000
         C           -0.139447723881     2.440302512825    -0.000001561884    12.000000000000
         C           -2.170614723881    -0.797049487175    -0.000003561884    12.000000000000
         C           -1.118729723881    -1.701409487175     0.000000438116    12.000000000000
         C            2.718690276119    -0.624113487175    -0.000009561884    12.000000000000
         H           -2.671023723881     1.310272512825    -0.000008561884     1.007825032230
         H           -1.018928723881     3.089643512825    -0.000018561884     1.007825032230
         H            0.469328276119     2.670909512825     0.879101438116     1.007825032230
         H            0.469357276119     2.670900512825    -0.879086561884     1.007825032230
         H           -3.198417723881    -1.147581487175    -0.000005561884     1.007825032230
         H           -1.296988723881    -2.774985487175     0.000000438116     1.007825032230
         H            2.627375276119    -1.252829487175    -0.888113561884     1.007825032230
         H            2.627423276119    -1.252814487175     0.888110438116     1.007825032230
         H            3.669789276119    -0.092484487175    -0.000038561884     1.007825032230

  Basis Set: AUG-CC-PVTZ
    Blend: AUG-CC-PVTZ
  Basis Set: (AUG-CC-PVTZ AUX)
    Blend: AUG-CC-PVTZ-JKFIT
	 Reference Energy          =    -399.7374058170917124 [Eh]
	 Singles Energy            =      -0.0000000000000000 [Eh]
	 Same-Spin Energy          =      -0.4247506906768683 [Eh]
	 Opposite-Spin Energy      =      -1.3376561984031321 [Eh]
	 Correlation Energy        =      -1.7624068890800004 [Eh]
	 Total Energy              =    -401.4998127061717241 [Eh]

	 ================> DF-SCS-MP2 Energies <==================
	-----------------------------------------------------------
	 SCS Same-Spin Scale       =       0.3333333333333333 [-]
	 SCS Opposite-Spin Scale   =       1.2000000000000000 [-]
	 SCS Same-Spin Energy      =      -0.1415835635589561 [Eh]
	 SCS Opposite-Spin Energy  =      -1.6051874380837585 [Eh]
	 SCS Correlation Energy    =      -1.7467710016427147 [Eh]
	 SCS Total Energy          =    -401.4841768187344542 [Eh]
	-----------------------------------------------------------

  Dipole Moment: [D]
     X:    -0.4782      Y:     0.5239      Z:    -0.0000     Total:     0.7094

*** Psi4 exiting successfully. Buy a developer a beer!
