                               Psi4 1.4a3.dev225

  ==> Input File <==

--------------------------------------------------------------------------
#psi4
#
memory 32 gb

molecule  {
0 1
  O        1.7152690     0.3729450     0.0000090
  N        0.1712200    -1.3621090     0.0000060
  C       -0.5564040     0.9604300     0.0000000
  C        0.4232170    -0.0565940     0.0000060
  C       -1.8793030     0.5348530    -0.0000030
  C       -0.1474190     2.4036860    -0.0000010
  C       -2.1785860    -0.8336660    -0.0000030
  C       -1.3188058    -1.7936653     0.0000003
  C        2.7107190    -0.6607300    -0.0000090
  H       -2.6789950     1.2736560    -0.0000080
  H       -1.0269000     3.0530270    -0.0000180
  H        0.4613570     2.6342930     0.8791020
  H        0.4613860     2.6342840    -0.8790860
  H       -3.2063890    -1.1841980    -0.0000050
  H       -1.3049600    -2.8116020     0.0000010
  H        2.6194040    -1.2894460    -0.8881130
  H        2.6194520    -1.2894310     0.8881110
  H        3.6618180    -0.1291010    -0.0000380
units angstrom
no_reorient  #important for SAPT in psi4, default
symmetry c1  #important for SAPT in psi4, default
}

set PROPERTIES_ORIGIN ["COM"]
properties('MP2/aug-cc-pvtz', properties = ['dipole'])
--------------------------------------------------------------------------

    Molecular point group: c1
  Charge       = 0
  Multiplicity = 1
  Basis Set: AUG-CC-PVTZ
    Blend: AUG-CC-PVTZ
  Basis Set: (AUG-CC-PVTZ AUX)
    Blend: AUG-CC-PVTZ-JKFIT

    Orbital Energies [Eh]
    ---------------------

    Doubly Occupied:

       1A    -20.585125     2A    -15.556168     3A    -11.329061
       4A    -11.271225     5A    -11.267349     6A    -11.255944
       7A    -11.250244     8A    -11.227488     9A    -11.227390
      10A     -1.412446    11A     -1.205624    12A     -1.089734
      13A     -1.059460    14A     -0.951516    15A     -0.945749
      16A     -0.841724    17A     -0.810006    18A     -0.723934
      19A     -0.682056    20A     -0.651093    21A     -0.650177
      22A     -0.611071    23A     -0.595172    24A     -0.577694
      25A     -0.562664    26A     -0.540413    27A     -0.528152
      28A     -0.519600    29A     -0.489752    30A     -0.474350
      31A     -0.411203    32A     -0.362154    33A     -0.334577

  @DF-RHF Final Energy:  -399.72347472335196

   => Energetics <=

    Nuclear Repulsion Energy =            432.9145324126384935
    One-Electron Energy =               -1401.2753902837584974
    Two-Electron Energy =                 568.6373831477681051
    Total Energy =                       -399.7234747233519556
  Basis Set: (AUG-CC-PVTZ AUX)
    Blend: AUG-CC-PVTZ-RI
    Molecular point group: c1

    Geometry (in Angstrom), charge = 0, multiplicity = 1:

       Center              X                  Y                   Z               Mass
    ------------   -----------------  -----------------  -----------------  -----------------
         O            1.747015998150     0.401730756181     0.000008535623    15.994914619570
         N            0.202966998150    -1.333323243819     0.000005535623    14.003074004430
         C           -0.524657001850     0.989215756181    -0.000000464377    12.000000000000
         C            0.454963998150    -0.027808243819     0.000005535623    12.000000000000
         C           -1.847556001850     0.563638756181    -0.000003464377    12.000000000000
         C           -0.115672001850     2.432471756181    -0.000001464377    12.000000000000
         C           -2.146839001850    -0.804880243819    -0.000003464377    12.000000000000
         C           -1.287058801850    -1.764879543819    -0.000000164377    12.000000000000
         C            2.742465998150    -0.631944243819    -0.000009464377    12.000000000000
         H           -2.647248001850     1.302441756181    -0.000008464377     1.007825032230
         H           -0.995153001850     3.081812756181    -0.000018464377     1.007825032230
         H            0.493103998150     2.663078756181     0.879101535623     1.007825032230
         H            0.493132998150     2.663069756181    -0.879086464377     1.007825032230
         H           -3.174642001850    -1.155412243819    -0.000005464377     1.007825032230
         H           -1.273213001850    -2.782816243819     0.000000535623     1.007825032230
         H            2.651150998150    -1.260660243819    -0.888113464377     1.007825032230
         H            2.651198998150    -1.260645243819     0.888110535623     1.007825032230
         H            3.693564998150    -0.100315243819    -0.000038464377     1.007825032230

  Basis Set: AUG-CC-PVTZ
    Blend: AUG-CC-PVTZ
  Basis Set: (AUG-CC-PVTZ AUX)
    Blend: AUG-CC-PVTZ-JKFIT
	 Reference Energy          =    -399.7234747233519556 [Eh]
	 Singles Energy            =      -0.0000000000000000 [Eh]
	 Same-Spin Energy          =      -0.4234692209859158 [Eh]
	 Opposite-Spin Energy      =      -1.3413480587999160 [Eh]
	 Correlation Energy        =      -1.7648172797858317 [Eh]
	 Total Energy              =    -401.4882920031378148 [Eh]

	 ================> DF-SCS-MP2 Energies <==================
	-----------------------------------------------------------
	 SCS Same-Spin Scale       =       0.3333333333333333 [-]
	 SCS Opposite-Spin Scale   =       1.2000000000000000 [-]
	 SCS Same-Spin Energy      =      -0.1411564069953052 [Eh]
	 SCS Opposite-Spin Energy  =      -1.6096176705598992 [Eh]
	 SCS Correlation Energy    =      -1.7507740775552045 [Eh]
	 SCS Total Energy          =    -401.4742488009071621 [Eh]
	-----------------------------------------------------------

  Dipole Moment: [D]
     X:    -0.7477      Y:     0.6946      Z:    -0.0000     Total:     1.0206

*** Psi4 exiting successfully. Buy a developer a beer!
