                               Psi4 1.4a3.dev225

  ==> Input File <==

--------------------------------------------------------------------------
#psi4
#
memory 32 gb

molecule  {
0 1
  O        1.7152690     0.3729450     0.0000090
  N        0.1712200    -1.3621090     0.0000060
  C       -0.5564040     0.9604300     0.0000000
  C        0.4232170    -0.0565940     0.0000060
  C       -1.8793030     0.5348530    -0.0000030
  C       -0.1201549     2.4998976    -0.0000011
  C       -2.1785860    -0.8336660    -0.0000030
  C       -1.1267010    -1.7380260     0.0000010
  C        2.7107190    -0.6607300    -0.0000090
  H       -2.6789950     1.2736560    -0.0000080
  H       -1.0269000     3.0530270    -0.0000180
  H        0.4613570     2.6342930     0.8791020
  H        0.4613860     2.6342840    -0.8790860
  H       -3.2063890    -1.1841980    -0.0000050
  H       -1.3049600    -2.8116020     0.0000010
  H        2.6194040    -1.2894460    -0.8881130
  H        2.6194520    -1.2894310     0.8881110
  H        3.6618180    -0.1291010    -0.0000380
units angstrom
no_reorient  #important for SAPT in psi4, default
symmetry c1  #important for SAPT in psi4, default
}

set PROPERTIES_ORIGIN ["COM"]
properties('MP2/aug-cc-pvtz', properties = ['dipole'])
--------------------------------------------------------------------------

    Molecular point group: c1
  Charge       = 0
  Multiplicity = 1
  Basis Set: AUG-CC-PVTZ
    Blend: AUG-CC-PVTZ
  Basis Set: (AUG-CC-PVTZ AUX)
    Blend: AUG-CC-PVTZ-JKFIT

    Orbital Energies [Eh]
    ---------------------

    Doubly Occupied:

       1A    -20.586149     2A    -15.558431     3A    -11.331648
       4A    -11.273636     5A    -11.273375     6A    -11.254095
       7A    -11.244824     8A    -11.229925     9A    -11.223849
      10A     -1.414568    11A     -1.243646    12A     -1.092369
      13A     -1.036153    14A     -0.955199    15A     -0.936424
      16A     -0.836499    17A     -0.824814    18A     -0.719185
      19A     -0.686391    20A     -0.653109    21A     -0.645302
      22A     -0.599536    23A     -0.586489    24A     -0.585703
      25A     -0.563795    26A     -0.554031    27A     -0.534708
      28A     -0.517160    29A     -0.497250    30A     -0.476072
      31A     -0.419906    32A     -0.377529    33A     -0.316051

  @DF-RHF Final Energy:  -399.75849254191291

   => Energetics <=

    Nuclear Repulsion Energy =            433.6007236091239747
    One-Electron Energy =               -1402.6227872585157002
    Two-Electron Energy =                 569.2635711074788105
    Total Energy =                       -399.7584925419129149
  Basis Set: (AUG-CC-PVTZ AUX)
    Blend: AUG-CC-PVTZ-RI
    Molecular point group: c1

    Geometry (in Angstrom), charge = 0, multiplicity = 1:

       Center              X                  Y                   Z               Mass
    ------------   -----------------  -----------------  -----------------  -----------------
         O            1.725626051565     0.386924269755     0.000008477119    15.994914619570
         N            0.181577051565    -1.348129730245     0.000005477119    14.003074004430
         C           -0.546046948435     0.974409269755    -0.000000522881    12.000000000000
         C            0.433574051565    -0.042614730245     0.000005477119    12.000000000000
         C           -1.868945948435     0.548832269755    -0.000003522881    12.000000000000
         C           -0.109797848435     2.513876869755    -0.000001622881    12.000000000000
         C           -2.168228948435    -0.819686730245    -0.000003522881    12.000000000000
         C           -1.116343948435    -1.724046730245     0.000000477119    12.000000000000
         C            2.721076051565    -0.646750730245    -0.000009522881    12.000000000000
         H           -2.668637948435     1.287635269755    -0.000008522881     1.007825032230
         H           -1.016542948435     3.067006269755    -0.000018522881     1.007825032230
         H            0.471714051565     2.648272269755     0.879101477119     1.007825032230
         H            0.471743051565     2.648263269755    -0.879086522881     1.007825032230
         H           -3.196031948435    -1.170218730245    -0.000005522881     1.007825032230
         H           -1.294602948435    -2.797622730245     0.000000477119     1.007825032230
         H            2.629761051565    -1.275466730245    -0.888113522881     1.007825032230
         H            2.629809051565    -1.275451730245     0.888110477119     1.007825032230
         H            3.672175051565    -0.115121730245    -0.000038522881     1.007825032230

  Basis Set: AUG-CC-PVTZ
    Blend: AUG-CC-PVTZ
  Basis Set: (AUG-CC-PVTZ AUX)
    Blend: AUG-CC-PVTZ-JKFIT
	 Reference Energy          =    -399.7584925419129149 [Eh]
	 Singles Energy            =      -0.0000000000000000 [Eh]
	 Same-Spin Energy          =      -0.4232332109672284 [Eh]
	 Opposite-Spin Energy      =      -1.3365381937347875 [Eh]
	 Correlation Energy        =      -1.7597714047020159 [Eh]
	 Total Energy              =    -401.5182639466149226 [Eh]

	 ================> DF-SCS-MP2 Energies <==================
	-----------------------------------------------------------
	 SCS Same-Spin Scale       =       0.3333333333333333 [-]
	 SCS Opposite-Spin Scale   =       1.2000000000000000 [-]
	 SCS Same-Spin Energy      =      -0.1410777369890761 [Eh]
	 SCS Opposite-Spin Energy  =      -1.6038458324817451 [Eh]
	 SCS Correlation Energy    =      -1.7449235694708212 [Eh]
	 SCS Total Energy          =    -401.5034161113837285 [Eh]
	-----------------------------------------------------------

  Dipole Moment: [D]
     X:    -0.5514      Y:     0.6484      Z:    -0.0000     Total:     0.8512

*** Psi4 exiting successfully. Buy a developer a beer!
