                               Psi4 1.4a3.dev225

  ==> Input File <==

--------------------------------------------------------------------------
#psi4
#
memory 32 gb

molecule  {
0 1
  O        1.7152690     0.3729450     0.0000090
  N        0.1712200    -1.3621090     0.0000060
  C       -0.5564040     0.9604300     0.0000000
  C        0.4232170    -0.0565940     0.0000060
  C       -1.8793030     0.5348530    -0.0000030
  C       -0.1474190     2.4036860    -0.0000010
  C       -2.1785860    -0.8336660    -0.0000030
  C       -1.1267010    -1.7380260     0.0000010
  C        2.7107190    -0.6607300    -0.0000090
  H       -2.6789950     1.2736560    -0.0000080
  H       -1.0269000     3.0530270    -0.0000180
  H        0.5439553     2.6655794     0.8062392
  H        0.4613860     2.6342840    -0.8790860
  H       -3.2063890    -1.1841980    -0.0000050
  H       -1.3049600    -2.8116020     0.0000010
  H        2.6194040    -1.2894460    -0.8881130
  H        2.6194520    -1.2894310     0.8881110
  H        3.6618180    -0.1291010    -0.0000380
units angstrom
no_reorient  #important for SAPT in psi4, default
symmetry c1  #important for SAPT in psi4, default
}

set PROPERTIES_ORIGIN ["COM"]
properties('MP2/aug-cc-pvtz', properties = ['dipole'])
--------------------------------------------------------------------------

    Molecular point group: c1
  Charge       = 0
  Multiplicity = 1
  Basis Set: AUG-CC-PVTZ
    Blend: AUG-CC-PVTZ
  Basis Set: (AUG-CC-PVTZ AUX)
    Blend: AUG-CC-PVTZ-JKFIT

    Orbital Energies [Eh]
    ---------------------

    Doubly Occupied:

       1A    -20.587211     2A    -15.559130     3A    -11.332381
       4A    -11.274251     5A    -11.274029     6A    -11.254740
       7A    -11.242685     8A    -11.230586     9A    -11.224236
      10A     -1.415664    11A     -1.244597    12A     -1.099698
      13A     -1.040262    14A     -0.955707    15A     -0.935864
      16A     -0.836081    17A     -0.825580    18A     -0.720417
      19A     -0.689283    20A     -0.653724    21A     -0.648828
      22A     -0.604799    23A     -0.592277    24A     -0.569193
      25A     -0.560676    26A     -0.549921    27A     -0.530227
      28A     -0.525111    29A     -0.503863    30A     -0.476788
      31A     -0.422976    32A     -0.376537    33A     -0.315190

  @DF-RHF Final Energy:  -399.76438374595307

   => Energetics <=

    Nuclear Repulsion Energy =            435.2819029586801776
    One-Electron Energy =               -1405.9475508819784864
    Two-Electron Energy =                 570.9012641773452970
    Total Energy =                       -399.7643837459530687
  Basis Set: (AUG-CC-PVTZ AUX)
    Blend: AUG-CC-PVTZ-RI
    Molecular point group: c1

    Geometry (in Angstrom), charge = 0, multiplicity = 1:

       Center              X                  Y                   Z               Mass
    ------------   -----------------  -----------------  -----------------  -----------------
         O            1.727608075691     0.396049340496     0.000605151371    15.994914619570
         N            0.183559075691    -1.339004659504     0.000602151371    14.003074004430
         C           -0.544064924309     0.983534340496     0.000596151371    12.000000000000
         C            0.435556075691    -0.033489659504     0.000602151371    12.000000000000
         C           -1.866963924309     0.557957340496     0.000593151371    12.000000000000
         C           -0.135079924309     2.426790340496     0.000595151371    12.000000000000
         C           -2.166246924309    -0.810561659504     0.000593151371    12.000000000000
         C           -1.114361924309    -1.714921659504     0.000597151371    12.000000000000
         C            2.723058075691    -0.637625659504     0.000587151371    12.000000000000
         H           -2.666655924309     1.296760340496     0.000588151371     1.007825032230
         H           -1.014560924309     3.076131340496     0.000578151371     1.007825032230
         H            0.556294375691     2.688683740496     0.806835351371     1.007825032230
         H            0.473725075691     2.657388340496    -0.878489848629     1.007825032230
         H           -3.194049924309    -1.161093659504     0.000591151371     1.007825032230
         H           -1.292620924309    -2.788497659504     0.000597151371     1.007825032230
         H            2.631743075691    -1.266341659504    -0.887516848629     1.007825032230
         H            2.631791075691    -1.266326659504     0.888707151371     1.007825032230
         H            3.674157075691    -0.105996659504     0.000558151371     1.007825032230

  Basis Set: AUG-CC-PVTZ
    Blend: AUG-CC-PVTZ
  Basis Set: (AUG-CC-PVTZ AUX)
    Blend: AUG-CC-PVTZ-JKFIT
	 Reference Energy          =    -399.7643837459530687 [Eh]
	 Singles Energy            =      -0.0000000000000000 [Eh]
	 Same-Spin Energy          =      -0.4238537824788595 [Eh]
	 Opposite-Spin Energy      =      -1.3366834533611816 [Eh]
	 Correlation Energy        =      -1.7605372358400411 [Eh]
	 Total Energy              =    -401.5249209817931160 [Eh]

	 ================> DF-SCS-MP2 Energies <==================
	-----------------------------------------------------------
	 SCS Same-Spin Scale       =       0.3333333333333333 [-]
	 SCS Opposite-Spin Scale   =       1.2000000000000000 [-]
	 SCS Same-Spin Energy      =      -0.1412845941596198 [Eh]
	 SCS Opposite-Spin Energy  =      -1.6040201440334179 [Eh]
	 SCS Correlation Energy    =      -1.7453047381930378 [Eh]
	 SCS Total Energy          =    -401.5096884841461247 [Eh]
	-----------------------------------------------------------

  Dipole Moment: [D]
     X:    -0.4906      Y:     0.6522      Z:    -0.0214     Total:     0.8164

*** Psi4 exiting successfully. Buy a developer a beer!
