                               Psi4 1.4a3.dev225

  ==> Input File <==

--------------------------------------------------------------------------
#psi4
#
memory 32 gb

molecule  {
0 1
  O        1.6126737     0.2632296     0.0000125
  N        0.1712200    -1.3621090     0.0000060
  C       -0.5564040     0.9604300     0.0000000
  C        0.4232170    -0.0565940     0.0000060
  C       -1.8793030     0.5348530    -0.0000030
  C       -0.1474190     2.4036860    -0.0000010
  C       -2.1785860    -0.8336660    -0.0000030
  C       -1.1267010    -1.7380260     0.0000010
  C        2.7107190    -0.6607300    -0.0000090
  H       -2.6789950     1.2736560    -0.0000080
  H       -1.0269000     3.0530270    -0.0000180
  H        0.4613570     2.6342930     0.8791020
  H        0.4613860     2.6342840    -0.8790860
  H       -3.2063890    -1.1841980    -0.0000050
  H       -1.3049600    -2.8116020     0.0000010
  H        2.6194040    -1.2894460    -0.8881130
  H        2.6194520    -1.2894310     0.8881110
  H        3.6618180    -0.1291010    -0.0000380
units angstrom
no_reorient  #important for SAPT in psi4, default
symmetry c1  #important for SAPT in psi4, default
}

set PROPERTIES_ORIGIN ["COM"]
properties('MP2/aug-cc-pvtz', properties = ['dipole'])
--------------------------------------------------------------------------

    Molecular point group: c1
  Charge       = 0
  Multiplicity = 1
  Basis Set: AUG-CC-PVTZ
    Blend: AUG-CC-PVTZ
  Basis Set: (AUG-CC-PVTZ AUX)
    Blend: AUG-CC-PVTZ-JKFIT

    Orbital Energies [Eh]
    ---------------------

    Doubly Occupied:

       1A    -20.589759     2A    -15.541604     3A    -11.323537
       4A    -11.289252     5A    -11.266293     6A    -11.248692
       7A    -11.231302     8A    -11.222436     9A    -11.218000
      10A     -1.476233    11A     -1.233223    12A     -1.094533
      13A     -1.039652    14A     -0.978238    15A     -0.932351
      16A     -0.837667    17A     -0.818239    18A     -0.735062
      19A     -0.697789    20A     -0.680775    21A     -0.647439
      22A     -0.610184    23A     -0.589423    24A     -0.576235
      25A     -0.558799    26A     -0.544078    27A     -0.535745
      28A     -0.523021    29A     -0.499327    30A     -0.481694
      31A     -0.413404    32A     -0.369755    33A     -0.300495

  @DF-RHF Final Energy:  -399.75442098261522

   => Energetics <=

    Nuclear Repulsion Energy =            439.1632375070691410
    One-Electron Energy =               -1413.6268431217631587
    Two-Electron Energy =                 574.7091846320787454
    Total Energy =                       -399.7544209826152155
  Basis Set: (AUG-CC-PVTZ AUX)
    Blend: AUG-CC-PVTZ-RI
    Molecular point group: c1

    Geometry (in Angstrom), charge = 0, multiplicity = 1:

       Center              X                  Y                   Z               Mass
    ------------   -----------------  -----------------  -----------------  -----------------
         O            1.639023256881     0.300849603904     0.000011512482    15.994914619570
         N            0.197569556881    -1.324488996096     0.000005012482    14.003074004430
         C           -0.530054443119     0.998050003904    -0.000000987518    12.000000000000
         C            0.449566556881    -0.018973996096     0.000005012482    12.000000000000
         C           -1.852953443119     0.572473003904    -0.000003987518    12.000000000000
         C           -0.121069443119     2.441306003904    -0.000001987518    12.000000000000
         C           -2.152236443119    -0.796045996096    -0.000003987518    12.000000000000
         C           -1.100351443119    -1.700405996096     0.000000012482    12.000000000000
         C            2.737068556881    -0.623109996096    -0.000009987518    12.000000000000
         H           -2.652645443119     1.311276003904    -0.000008987518     1.007825032230
         H           -1.000550443119     3.090647003904    -0.000018987518     1.007825032230
         H            0.487706556881     2.671913003904     0.879101012482     1.007825032230
         H            0.487735556881     2.671904003904    -0.879086987518     1.007825032230
         H           -3.180039443119    -1.146577996096    -0.000005987518     1.007825032230
         H           -1.278610443119    -2.773981996096     0.000000012482     1.007825032230
         H            2.645753556881    -1.251825996096    -0.888113987518     1.007825032230
         H            2.645801556881    -1.251810996096     0.888110012482     1.007825032230
         H            3.688167556881    -0.091480996096    -0.000038987518     1.007825032230

  Basis Set: AUG-CC-PVTZ
    Blend: AUG-CC-PVTZ
  Basis Set: (AUG-CC-PVTZ AUX)
    Blend: AUG-CC-PVTZ-JKFIT
	 Reference Energy          =    -399.7544209826152155 [Eh]
	 Singles Energy            =      -0.0000000000000000 [Eh]
	 Same-Spin Energy          =      -0.4225308642320569 [Eh]
	 Opposite-Spin Energy      =      -1.3326835604071980 [Eh]
	 Correlation Energy        =      -1.7552144246392549 [Eh]
	 Total Energy              =    -401.5096354072544500 [Eh]

	 ================> DF-SCS-MP2 Energies <==================
	-----------------------------------------------------------
	 SCS Same-Spin Scale       =       0.3333333333333333 [-]
	 SCS Opposite-Spin Scale   =       1.2000000000000000 [-]
	 SCS Same-Spin Energy      =      -0.1408436214106856 [Eh]
	 SCS Opposite-Spin Energy  =      -1.5992202724886375 [Eh]
	 SCS Correlation Energy    =      -1.7400638938993231 [Eh]
	 SCS Total Energy          =    -401.4944848765145480 [Eh]
	-----------------------------------------------------------

  Dipole Moment: [D]
     X:     0.5390      Y:     0.8746      Z:    -0.0000     Total:     1.0273

*** Psi4 exiting successfully. Buy a developer a beer!
