                               Psi4 1.4a3.dev225

  ==> Input File <==

--------------------------------------------------------------------------
#psi4
#
memory 32 gb

molecule  {
0 1
  O        1.7294726     0.3275914     0.0000091
  N        0.1712200    -1.3621090     0.0000060
  C       -0.5564040     0.9604300     0.0000000
  C        0.4232170    -0.0565940     0.0000060
  C       -1.8793030     0.5348530    -0.0000030
  C       -0.1474190     2.4036860    -0.0000010
  C       -2.1785860    -0.8336660    -0.0000030
  C       -1.1267010    -1.7380260     0.0000010
  C        2.7107190    -0.6607300    -0.0000090
  H       -2.6789950     1.2736560    -0.0000080
  H       -1.0269000     3.0530270    -0.0000180
  H        0.4613570     2.6342930     0.8791020
  H        0.4613860     2.6342840    -0.8790860
  H       -3.2063890    -1.1841980    -0.0000050
  H       -1.3049600    -2.8116020     0.0000010
  H        2.6194040    -1.2894460    -0.8881130
  H        2.6194520    -1.2894310     0.8881110
  H        3.6618180    -0.1291010    -0.0000380
units angstrom
no_reorient  #important for SAPT in psi4, default
symmetry c1  #important for SAPT in psi4, default
}

set PROPERTIES_ORIGIN ["COM"]
properties('MP2/aug-cc-pvtz', properties = ['dipole'])
--------------------------------------------------------------------------

    Molecular point group: c1
  Charge       = 0
  Multiplicity = 1
  Basis Set: AUG-CC-PVTZ
    Blend: AUG-CC-PVTZ
  Basis Set: (AUG-CC-PVTZ AUX)
    Blend: AUG-CC-PVTZ-JKFIT

    Orbital Energies [Eh]
    ---------------------

    Doubly Occupied:

       1A    -20.584078     2A    -15.558993     3A    -11.333815
       4A    -11.274271     5A    -11.269364     6A    -11.255851
       7A    -11.244128     8A    -11.231246     9A    -11.225754
      10A     -1.424435    11A     -1.245921    12A     -1.100898
      13A     -1.043322    14A     -0.958780    15A     -0.934761
      16A     -0.836956    17A     -0.825115    18A     -0.723200
      19A     -0.690453    20A     -0.659453    21A     -0.650585
      22A     -0.607959    23A     -0.593879    24A     -0.578077
      25A     -0.563532    26A     -0.548755    27A     -0.529037
      28A     -0.525446    29A     -0.496675    30A     -0.471605
      31A     -0.423914    32A     -0.377353    33A     -0.316360

  @DF-RHF Final Energy:  -399.76609880341499

   => Energetics <=

    Nuclear Repulsion Energy =            435.7784046909759468
    One-Electron Energy =               -1406.8810624123937032
    Two-Electron Energy =                 571.3365589180026518
    Total Energy =                       -399.7660988034150478
  Basis Set: (AUG-CC-PVTZ AUX)
    Blend: AUG-CC-PVTZ-RI
    Molecular point group: c1

    Geometry (in Angstrom), charge = 0, multiplicity = 1:

       Center              X                  Y                   Z               Mass
    ------------   -----------------  -----------------  -----------------  -----------------
         O            1.740642076358     0.356846450924     0.000008554372    15.994914619570
         N            0.182389476358    -1.332853949076     0.000005454372    14.003074004430
         C           -0.545234523642     0.989685050924    -0.000000545628    12.000000000000
         C            0.434386476358    -0.027338949076     0.000005454372    12.000000000000
         C           -1.868133523642     0.564108050924    -0.000003545628    12.000000000000
         C           -0.136249523642     2.432941050924    -0.000001545628    12.000000000000
         C           -2.167416523642    -0.804410949076    -0.000003545628    12.000000000000
         C           -1.115531523642    -1.708770949076     0.000000454372    12.000000000000
         C            2.721888476358    -0.631474949076    -0.000009545628    12.000000000000
         H           -2.667825523642     1.302911050924    -0.000008545628     1.007825032230
         H           -1.015730523642     3.082282050924    -0.000018545628     1.007825032230
         H            0.472526476358     2.663548050924     0.879101454372     1.007825032230
         H            0.472555476358     2.663539050924    -0.879086545628     1.007825032230
         H           -3.195219523642    -1.154942949076    -0.000005545628     1.007825032230
         H           -1.293790523642    -2.782346949076     0.000000454372     1.007825032230
         H            2.630573476358    -1.260190949076    -0.888113545628     1.007825032230
         H            2.630621476358    -1.260175949076     0.888110454372     1.007825032230
         H            3.672987476358    -0.099845949076    -0.000038545628     1.007825032230

  Basis Set: AUG-CC-PVTZ
    Blend: AUG-CC-PVTZ
  Basis Set: (AUG-CC-PVTZ AUX)
    Blend: AUG-CC-PVTZ-JKFIT
	 Reference Energy          =    -399.7660988034149909 [Eh]
	 Singles Energy            =      -0.0000000000000000 [Eh]
	 Same-Spin Energy          =      -0.4234585000100251 [Eh]
	 Opposite-Spin Energy      =      -1.3353805361063298 [Eh]
	 Correlation Energy        =      -1.7588390361163548 [Eh]
	 Total Energy              =    -401.5249378395313329 [Eh]

	 ================> DF-SCS-MP2 Energies <==================
	-----------------------------------------------------------
	 SCS Same-Spin Scale       =       0.3333333333333333 [-]
	 SCS Opposite-Spin Scale   =       1.2000000000000000 [-]
	 SCS Same-Spin Energy      =      -0.1411528333366750 [Eh]
	 SCS Opposite-Spin Energy  =      -1.6024566433275957 [Eh]
	 SCS Correlation Energy    =      -1.7436094766642707 [Eh]
	 SCS Total Energy          =    -401.5097082800792805 [Eh]
	-----------------------------------------------------------

  Dipole Moment: [D]
     X:    -0.6613      Y:     0.7677      Z:    -0.0000     Total:     1.0133

*** Psi4 exiting successfully. Buy a developer a beer!
