                               Psi4 1.4a3.dev225

  ==> Input File <==

--------------------------------------------------------------------------
#psi4
#
memory 32 gb

molecule  {
0 1
  O        1.7152690     0.3729450     0.0000090
  N        0.1712200    -1.3621090     0.0000060
  C       -0.5564040     0.9604300     0.0000000
  C        0.3498867    -0.1224515     0.0000058
  C       -1.8793030     0.5348530    -0.0000030
  C       -0.1474190     2.4036860    -0.0000010
  C       -2.1785860    -0.8336660    -0.0000030
  C       -1.1267010    -1.7380260     0.0000010
  C        2.7107190    -0.6607300    -0.0000090
  H       -2.6789950     1.2736560    -0.0000080
  H       -1.0269000     3.0530270    -0.0000180
  H        0.4613570     2.6342930     0.8791020
  H        0.4613860     2.6342840    -0.8790860
  H       -3.2063890    -1.1841980    -0.0000050
  H       -1.3049600    -2.8116020     0.0000010
  H        2.6194040    -1.2894460    -0.8881130
  H        2.6194520    -1.2894310     0.8881110
  H        3.6618180    -0.1291010    -0.0000380
units angstrom
no_reorient  #important for SAPT in psi4, default
symmetry c1  #important for SAPT in psi4, default
}

set PROPERTIES_ORIGIN ["COM"]
properties('MP2/aug-cc-pvtz', properties = ['dipole'])
--------------------------------------------------------------------------

    Molecular point group: c1
  Charge       = 0
  Multiplicity = 1
  Basis Set: AUG-CC-PVTZ
    Blend: AUG-CC-PVTZ
  Basis Set: (AUG-CC-PVTZ AUX)
    Blend: AUG-CC-PVTZ-JKFIT

    Orbital Energies [Eh]
    ---------------------

    Doubly Occupied:

       1A    -20.568204     2A    -15.562344     3A    -11.327521
       4A    -11.278600     5A    -11.262846     6A    -11.256735
       7A    -11.248684     8A    -11.237061     9A    -11.228024
      10A     -1.379265    11A     -1.272419    12A     -1.109268
      13A     -1.043218    14A     -0.951655    15A     -0.926972
      16A     -0.845873    17A     -0.827446    18A     -0.712796
      19A     -0.687921    20A     -0.640361    21A     -0.638394
      22A     -0.604852    23A     -0.586633    24A     -0.578385
      25A     -0.558353    26A     -0.552879    27A     -0.539788
      28A     -0.526480    29A     -0.487412    30A     -0.461074
      31A     -0.435663    32A     -0.388024    33A     -0.323374

  @DF-RHF Final Energy:  -399.75373839358627

   => Energetics <=

    Nuclear Repulsion Energy =            435.5992119582716100
    One-Electron Energy =               -1406.6088455352737583
    Two-Electron Energy =                 571.2558951834159870
    Total Energy =                       -399.7537383935862181
  Basis Set: (AUG-CC-PVTZ AUX)
    Blend: AUG-CC-PVTZ-RI
    Molecular point group: c1

    Geometry (in Angstrom), charge = 0, multiplicity = 1:

       Center              X                  Y                   Z               Mass
    ------------   -----------------  -----------------  -----------------  -----------------
         O            1.735434683703     0.402727099565     0.000008486870    15.994914619570
         N            0.191385683703    -1.332326900435     0.000005486870    14.003074004430
         C           -0.536238316297     0.990212099565    -0.000000513130    12.000000000000
         C            0.370052383703    -0.092669400435     0.000005286870    12.000000000000
         C           -1.859137316297     0.564635099565    -0.000003513130    12.000000000000
         C           -0.127253316297     2.433468099565    -0.000001513130    12.000000000000
         C           -2.158420316297    -0.803883900435    -0.000003513130    12.000000000000
         C           -1.106535316297    -1.708243900435     0.000000486870    12.000000000000
         C            2.730884683703    -0.630947900435    -0.000009513130    12.000000000000
         H           -2.658829316297     1.303438099565    -0.000008513130     1.007825032230
         H           -1.006734316297     3.082809099565    -0.000018513130     1.007825032230
         H            0.481522683703     2.664075099565     0.879101486870     1.007825032230
         H            0.481551683703     2.664066099565    -0.879086513130     1.007825032230
         H           -3.186223316297    -1.154415900435    -0.000005513130     1.007825032230
         H           -1.284794316297    -2.781819900435     0.000000486870     1.007825032230
         H            2.639569683703    -1.259663900435    -0.888113513130     1.007825032230
         H            2.639617683703    -1.259648900435     0.888110486870     1.007825032230
         H            3.681983683703    -0.099318900435    -0.000038513130     1.007825032230

  Basis Set: AUG-CC-PVTZ
    Blend: AUG-CC-PVTZ
  Basis Set: (AUG-CC-PVTZ AUX)
    Blend: AUG-CC-PVTZ-JKFIT
	 Reference Energy          =    -399.7537383935862749 [Eh]
	 Singles Energy            =      -0.0000000000000000 [Eh]
	 Same-Spin Energy          =      -0.4235860183811361 [Eh]
	 Opposite-Spin Energy      =      -1.3374332472111867 [Eh]
	 Correlation Energy        =      -1.7610192655923229 [Eh]
	 Total Energy              =    -401.5147576591785992 [Eh]

	 ================> DF-SCS-MP2 Energies <==================
	-----------------------------------------------------------
	 SCS Same-Spin Scale       =       0.3333333333333333 [-]
	 SCS Opposite-Spin Scale   =       1.2000000000000000 [-]
	 SCS Same-Spin Energy      =      -0.1411953394603787 [Eh]
	 SCS Opposite-Spin Energy  =      -1.6049198966534239 [Eh]
	 SCS Correlation Energy    =      -1.7461152361138026 [Eh]
	 SCS Total Energy          =    -401.4998536297000555 [Eh]
	-----------------------------------------------------------

  Dipole Moment: [D]
     X:    -1.2307      Y:     0.5435      Z:    -0.0000     Total:     1.3454

*** Psi4 exiting successfully. Buy a developer a beer!
