                               Psi4 1.4a3.dev225

  ==> Input File <==

--------------------------------------------------------------------------
#psi4
#
memory 32 gb

molecule  {
0 1
  O        1.7152690     0.3729450     0.0000090
  N        0.1712200    -1.3621090     0.0000060
  C       -0.5564040     0.9604300     0.0000000
  C        0.4232170    -0.0565940     0.0000060
  C       -1.8793030     0.5348530    -0.0000030
  C       -0.1474190     2.4036860    -0.0000010
  C       -2.1785860    -0.8336660    -0.0000030
  C       -1.1459115    -1.7435899     0.0000009
  C        2.7107190    -0.6607300    -0.0000090
  H       -2.6789950     1.2736560    -0.0000080
  H       -1.0269000     3.0530270    -0.0000180
  H        0.4613570     2.6342930     0.8791020
  H        0.4613860     2.6342840    -0.8790860
  H       -3.2063890    -1.1841980    -0.0000050
  H       -1.3049600    -2.8116020     0.0000010
  H        2.6194040    -1.2894460    -0.8881130
  H        2.6194520    -1.2894310     0.8881110
  H        3.6618180    -0.1291010    -0.0000380
units angstrom
no_reorient  #important for SAPT in psi4, default
symmetry c1  #important for SAPT in psi4, default
}

set PROPERTIES_ORIGIN ["COM"]
properties('MP2/aug-cc-pvtz', properties = ['dipole'])
--------------------------------------------------------------------------

    Molecular point group: c1
  Charge       = 0
  Multiplicity = 1
  Basis Set: AUG-CC-PVTZ
    Blend: AUG-CC-PVTZ
  Basis Set: (AUG-CC-PVTZ AUX)
    Blend: AUG-CC-PVTZ-JKFIT

    Orbital Energies [Eh]
    ---------------------

    Doubly Occupied:

       1A    -20.586764     2A    -15.559042     3A    -11.331931
       4A    -11.273749     5A    -11.273104     6A    -11.254598
       7A    -11.242707     8A    -11.229955     9A    -11.224680
      10A     -1.415086    11A     -1.239056    12A     -1.098713
      13A     -1.042041    14A     -0.955175    15A     -0.936374
      16A     -0.836469    17A     -0.822991    18A     -0.720223
      19A     -0.687362    20A     -0.653357    21A     -0.648651
      22A     -0.603102    23A     -0.591977    24A     -0.576717
      25A     -0.560447    26A     -0.546683    27A     -0.528155
      28A     -0.527959    29A     -0.500605    30A     -0.476001
      31A     -0.423199    32A     -0.374843    33A     -0.317403

  @DF-RHF Final Energy:  -399.76476658839192

   => Energetics <=

    Nuclear Repulsion Energy =            435.0517738958481004
    One-Electron Energy =               -1405.5148432043708908
    Two-Electron Energy =                 570.6983027201308687
    Total Energy =                       -399.7647665883919217
  Basis Set: (AUG-CC-PVTZ AUX)
    Blend: AUG-CC-PVTZ-RI
    Molecular point group: c1

    Geometry (in Angstrom), charge = 0, multiplicity = 1:

       Center              X                  Y                   Z               Mass
    ------------   -----------------  -----------------  -----------------  -----------------
         O            1.730157638365     0.396848067106     0.000008477119    15.994914619570
         N            0.186108638365    -1.338205932894     0.000005477119    14.003074004430
         C           -0.541515361635     0.984333067106    -0.000000522881    12.000000000000
         C            0.438105638365    -0.032690932894     0.000005477119    12.000000000000
         C           -1.864414361635     0.558756067106    -0.000003522881    12.000000000000
         C           -0.132530361635     2.427589067106    -0.000001522881    12.000000000000
         C           -2.163697361635    -0.809762932894    -0.000003522881    12.000000000000
         C           -1.131022861635    -1.719686832894     0.000000377119    12.000000000000
         C            2.725607638365    -0.636826932894    -0.000009522881    12.000000000000
         H           -2.664106361635     1.297559067106    -0.000008522881     1.007825032230
         H           -1.012011361635     3.076930067106    -0.000018522881     1.007825032230
         H            0.476245638365     2.658196067106     0.879101477119     1.007825032230
         H            0.476274638365     2.658187067106    -0.879086522881     1.007825032230
         H           -3.191500361635    -1.160294932894    -0.000005522881     1.007825032230
         H           -1.290071361635    -2.787698932894     0.000000477119     1.007825032230
         H            2.634292638365    -1.265542932894    -0.888113522881     1.007825032230
         H            2.634340638365    -1.265527932894     0.888110477119     1.007825032230
         H            3.676706638365    -0.105197932894    -0.000038522881     1.007825032230

  Basis Set: AUG-CC-PVTZ
    Blend: AUG-CC-PVTZ
  Basis Set: (AUG-CC-PVTZ AUX)
    Blend: AUG-CC-PVTZ-JKFIT
	 Reference Energy          =    -399.7647665883919217 [Eh]
	 Singles Energy            =      -0.0000000000000000 [Eh]
	 Same-Spin Energy          =      -0.4237398693584952 [Eh]
	 Opposite-Spin Energy      =      -1.3369713458214234 [Eh]
	 Correlation Energy        =      -1.7607112151799185 [Eh]
	 Total Energy              =    -401.5254778035718459 [Eh]

	 ================> DF-SCS-MP2 Energies <==================
	-----------------------------------------------------------
	 SCS Same-Spin Scale       =       0.3333333333333333 [-]
	 SCS Opposite-Spin Scale   =       1.2000000000000000 [-]
	 SCS Same-Spin Energy      =      -0.1412466231194984 [Eh]
	 SCS Opposite-Spin Energy  =      -1.6043656149857080 [Eh]
	 SCS Correlation Energy    =      -1.7456122381052064 [Eh]
	 SCS Total Energy          =    -401.5103788264971172 [Eh]
	-----------------------------------------------------------

  Dipole Moment: [D]
     X:    -0.5520      Y:     0.6597      Z:    -0.0000     Total:     0.8601

*** Psi4 exiting successfully. Buy a developer a beer!
