                               Psi4 1.4a3.dev225

  ==> Input File <==

--------------------------------------------------------------------------
#psi4
#
memory 32 gb

molecule  {
0 1
  O        1.7152690     0.3729450     0.0000090
  N        0.1712200    -1.3621090     0.0000060
  C       -0.5564040     0.9604300     0.0000000
  C        0.4232170    -0.0565940     0.0000060
  C       -1.8793030     0.5348530    -0.0000030
  C       -0.1474190     2.4036860    -0.0000010
  C       -2.1892681    -0.8825116    -0.0000030
  C       -1.1267010    -1.7380260     0.0000010
  C        2.7107190    -0.6607300    -0.0000090
  H       -2.6789950     1.2736560    -0.0000080
  H       -1.0269000     3.0530270    -0.0000180
  H        0.4613570     2.6342930     0.8791020
  H        0.4613860     2.6342840    -0.8790860
  H       -3.2063890    -1.1841980    -0.0000050
  H       -1.3049600    -2.8116020     0.0000010
  H        2.6194040    -1.2894460    -0.8881130
  H        2.6194520    -1.2894310     0.8881110
  H        3.6618180    -0.1291010    -0.0000380
units angstrom
no_reorient  #important for SAPT in psi4, default
symmetry c1  #important for SAPT in psi4, default
}

set PROPERTIES_ORIGIN ["COM"]
properties('MP2/aug-cc-pvtz', properties = ['dipole'])
--------------------------------------------------------------------------

    Molecular point group: c1
  Charge       = 0
  Multiplicity = 1
  Basis Set: AUG-CC-PVTZ
    Blend: AUG-CC-PVTZ
  Basis Set: (AUG-CC-PVTZ AUX)
    Blend: AUG-CC-PVTZ-JKFIT

    Orbital Energies [Eh]
    ---------------------

    Doubly Occupied:

       1A    -20.588511     2A    -15.557243     3A    -11.334451
       4A    -11.274581     5A    -11.269541     6A    -11.259466
       7A    -11.243185     8A    -11.229842     9A    -11.225109
      10A     -1.416676    11A     -1.243361    12A     -1.096368
      13A     -1.040183    14A     -0.955778    15A     -0.936645
      16A     -0.834831    17A     -0.826546    18A     -0.719226
      19A     -0.687768    20A     -0.654482    21A     -0.652474
      22A     -0.606069    23A     -0.586824    24A     -0.577015
      25A     -0.563144    26A     -0.547337    27A     -0.529427
      28A     -0.525372    29A     -0.499883    30A     -0.476486
      31A     -0.423588    32A     -0.371630    33A     -0.319775

  @DF-RHF Final Energy:  -399.76332735417225

   => Energetics <=

    Nuclear Repulsion Energy =            434.8094756816668109
    One-Electron Energy =               -1404.9999709741282459
    Two-Electron Energy =                 570.4271679382892444
    Total Energy =                       -399.7633273541722474
  Basis Set: (AUG-CC-PVTZ AUX)
    Blend: AUG-CC-PVTZ-RI
    Molecular point group: c1

    Geometry (in Angstrom), charge = 0, multiplicity = 1:

       Center              X                  Y                   Z               Mass
    ------------   -----------------  -----------------  -----------------  -----------------
         O            1.729326061872     0.401068324632     0.000008467368    15.994914619570
         N            0.185277061872    -1.333985675368     0.000005467368    14.003074004430
         C           -0.542346938128     0.988553324632    -0.000000532632    12.000000000000
         C            0.437274061872    -0.028470675368     0.000005467368    12.000000000000
         C           -1.865245938128     0.562976324632    -0.000003532632    12.000000000000
         C           -0.133361938128     2.431809324632    -0.000001532632    12.000000000000
         C           -2.175211038128    -0.854388275368    -0.000003532632    12.000000000000
         C           -1.112643938128    -1.709902675368     0.000000467368    12.000000000000
         C            2.724776061872    -0.632606675368    -0.000009532632    12.000000000000
         H           -2.664937938128     1.301779324632    -0.000008532632     1.007825032230
         H           -1.012842938128     3.081150324632    -0.000018532632     1.007825032230
         H            0.475414061872     2.662416324632     0.879101467368     1.007825032230
         H            0.475443061872     2.662407324632    -0.879086532632     1.007825032230
         H           -3.192331938128    -1.156074675368    -0.000005532632     1.007825032230
         H           -1.290902938128    -2.783478675368     0.000000467368     1.007825032230
         H            2.633461061872    -1.261322675368    -0.888113532632     1.007825032230
         H            2.633509061872    -1.261307675368     0.888110467368     1.007825032230
         H            3.675875061872    -0.100977675368    -0.000038532632     1.007825032230

  Basis Set: AUG-CC-PVTZ
    Blend: AUG-CC-PVTZ
  Basis Set: (AUG-CC-PVTZ AUX)
    Blend: AUG-CC-PVTZ-JKFIT
	 Reference Energy          =    -399.7633273541722474 [Eh]
	 Singles Energy            =      -0.0000000000000000 [Eh]
	 Same-Spin Energy          =      -0.4231929805810007 [Eh]
	 Opposite-Spin Energy      =      -1.3364407848679041 [Eh]
	 Correlation Energy        =      -1.7596337654489047 [Eh]
	 Total Energy              =    -401.5229611196211295 [Eh]

	 ================> DF-SCS-MP2 Energies <==================
	-----------------------------------------------------------
	 SCS Same-Spin Scale       =       0.3333333333333333 [-]
	 SCS Opposite-Spin Scale   =       1.2000000000000000 [-]
	 SCS Same-Spin Energy      =      -0.1410643268603335 [Eh]
	 SCS Opposite-Spin Energy  =      -1.6037289418414848 [Eh]
	 SCS Correlation Energy    =      -1.7447932687018184 [Eh]
	 SCS Total Energy          =    -401.5081206228740598 [Eh]
	-----------------------------------------------------------

  Dipole Moment: [D]
     X:    -0.5028      Y:     0.7044      Z:    -0.0000     Total:     0.8654

*** Psi4 exiting successfully. Buy a developer a beer!
