                               Psi4 1.4a3.dev225

  ==> Input File <==

--------------------------------------------------------------------------
#psi4
#
memory 32 gb

molecule  {
0 1
  O        1.7152690     0.3729450     0.0000090
  N        0.1712200    -1.3621090     0.0000060
  C       -0.5564040     0.9604300     0.0000000
  C        0.4232170    -0.0565940     0.0000060
  C       -1.8793030     0.5348530    -0.0000030
  C       -0.1474190     2.4036860    -0.0000010
  C       -2.1785860    -0.8336660    -0.0000030
  C       -1.1074905    -1.7324621     0.0000011
  C        2.7107190    -0.6607300    -0.0000090
  H       -2.6789950     1.2736560    -0.0000080
  H       -1.0269000     3.0530270    -0.0000180
  H        0.4613570     2.6342930     0.8791020
  H        0.4613860     2.6342840    -0.8790860
  H       -3.2063890    -1.1841980    -0.0000050
  H       -1.3049600    -2.8116020     0.0000010
  H        2.6194040    -1.2894460    -0.8881130
  H        2.6194520    -1.2894310     0.8881110
  H        3.6618180    -0.1291010    -0.0000380
units angstrom
no_reorient  #important for SAPT in psi4, default
symmetry c1  #important for SAPT in psi4, default
}

set PROPERTIES_ORIGIN ["COM"]
properties('MP2/aug-cc-pvtz', properties = ['dipole'])
--------------------------------------------------------------------------

    Molecular point group: c1
  Charge       = 0
  Multiplicity = 1
  Basis Set: AUG-CC-PVTZ
    Blend: AUG-CC-PVTZ
  Basis Set: (AUG-CC-PVTZ AUX)
    Blend: AUG-CC-PVTZ-JKFIT

    Orbital Energies [Eh]
    ---------------------

    Doubly Occupied:

       1A    -20.587009     2A    -15.558820     3A    -11.332345
       4A    -11.274575     5A    -11.274350     6A    -11.254069
       7A    -11.241054     8A    -11.230740     9A    -11.224081
      10A     -1.415702    11A     -1.250150    12A     -1.100586
      13A     -1.038340    14A     -0.956187    15A     -0.934469
      16A     -0.834913    17A     -0.827109    18A     -0.719696
      19A     -0.689581    20A     -0.654171    21A     -0.647859
      22A     -0.604516    23A     -0.587700    24A     -0.576704
      25A     -0.559688    26A     -0.548366    27A     -0.530934
      28A     -0.527972    29A     -0.502302    30A     -0.477212
      31A     -0.422025    32A     -0.378662    33A     -0.313298

  @DF-RHF Final Energy:  -399.76556553003530

   => Energetics <=

    Nuclear Repulsion Energy =            435.5911404913951515
    One-Electron Energy =               -1406.5630436179160370
    Two-Electron Energy =                 571.2063375964855823
    Total Energy =                       -399.7655655300352464
  Basis Set: (AUG-CC-PVTZ AUX)
    Blend: AUG-CC-PVTZ-RI
    Molecular point group: c1

    Geometry (in Angstrom), charge = 0, multiplicity = 1:

       Center              X                  Y                   Z               Mass
    ------------   -----------------  -----------------  -----------------  -----------------
         O            1.726411331856     0.395763031590     0.000008457618    15.994914619570
         N            0.182362331856    -1.339290968410     0.000005457618    14.003074004430
         C           -0.545261668144     0.983248031590    -0.000000542382    12.000000000000
         C            0.434359331856    -0.033775968410     0.000005457618    12.000000000000
         C           -1.868160668144     0.557671031590    -0.000003542382    12.000000000000
         C           -0.136276668144     2.426504031590    -0.000001542382    12.000000000000
         C           -2.167443668144    -0.810847968410    -0.000003542382    12.000000000000
         C           -1.096348168144    -1.709644068410     0.000000557618    12.000000000000
         C            2.721861331856    -0.637911968410    -0.000009542382    12.000000000000
         H           -2.667852668144     1.296474031590    -0.000008542382     1.007825032230
         H           -1.015757668144     3.075845031590    -0.000018542382     1.007825032230
         H            0.472499331856     2.657111031590     0.879101457618     1.007825032230
         H            0.472528331856     2.657102031590    -0.879086542382     1.007825032230
         H           -3.195246668144    -1.161379968410    -0.000005542382     1.007825032230
         H           -1.293817668144    -2.788783968410     0.000000457618     1.007825032230
         H            2.630546331856    -1.266627968410    -0.888113542382     1.007825032230
         H            2.630594331856    -1.266612968410     0.888110457618     1.007825032230
         H            3.672960331856    -0.106282968410    -0.000038542382     1.007825032230

  Basis Set: AUG-CC-PVTZ
    Blend: AUG-CC-PVTZ
  Basis Set: (AUG-CC-PVTZ AUX)
    Blend: AUG-CC-PVTZ-JKFIT
	 Reference Energy          =    -399.7655655300353033 [Eh]
	 Singles Energy            =      -0.0000000000000000 [Eh]
	 Same-Spin Energy          =      -0.4237753812141620 [Eh]
	 Opposite-Spin Energy      =      -1.3363701299701713 [Eh]
	 Correlation Energy        =      -1.7601455111843334 [Eh]
	 Total Energy              =    -401.5257110412196084 [Eh]

	 ================> DF-SCS-MP2 Energies <==================
	-----------------------------------------------------------
	 SCS Same-Spin Scale       =       0.3333333333333333 [-]
	 SCS Opposite-Spin Scale   =       1.2000000000000000 [-]
	 SCS Same-Spin Energy      =      -0.1412584604047207 [Eh]
	 SCS Opposite-Spin Energy  =      -1.6036441559642056 [Eh]
	 SCS Correlation Energy    =      -1.7449026163689263 [Eh]
	 SCS Total Energy          =    -401.5104681464042073 [Eh]
	-----------------------------------------------------------

  Dipole Moment: [D]
     X:    -0.5011      Y:     0.6466      Z:    -0.0000     Total:     0.8180

*** Psi4 exiting successfully. Buy a developer a beer!
