                               Psi4 1.4a3.dev225

  ==> Input File <==

--------------------------------------------------------------------------
#psi4
#
memory 32 gb

molecule  {
0 1
  O        1.7152690     0.3729450     0.0000090
  N        0.1712200    -1.3621090     0.0000060
  C       -0.5564040     0.9604300     0.0000000
  C        0.4232170    -0.0565940     0.0000060
  C       -1.8793030     0.5348530    -0.0000030
  C       -0.1474190     2.4036860    -0.0000010
  C       -2.1785860    -0.8336660    -0.0000030
  C       -1.1267010    -1.7380260     0.0000010
  C        2.7107190    -0.6607300    -0.0000090
  H       -2.6789950     1.2736560    -0.0000080
  H       -1.0269000     3.0530270    -0.0000180
  H        0.4613570     2.6342930     0.8791020
  H        0.4057313     2.6132036    -0.7987233
  H       -3.2063890    -1.1841980    -0.0000050
  H       -1.3049600    -2.8116020     0.0000010
  H        2.6194040    -1.2894460    -0.8881130
  H        2.6194520    -1.2894310     0.8881110
  H        3.6618180    -0.1291010    -0.0000380
units angstrom
no_reorient  #important for SAPT in psi4, default
symmetry c1  #important for SAPT in psi4, default
}

set PROPERTIES_ORIGIN ["COM"]
properties('MP2/aug-cc-pvtz', properties = ['dipole'])
--------------------------------------------------------------------------

    Molecular point group: c1
  Charge       = 0
  Multiplicity = 1
  Basis Set: AUG-CC-PVTZ
    Blend: AUG-CC-PVTZ
  Basis Set: (AUG-CC-PVTZ AUX)
    Blend: AUG-CC-PVTZ-JKFIT

    Orbital Energies [Eh]
    ---------------------

    Doubly Occupied:

       1A    -20.586866     2A    -15.558762     3A    -11.331873
       4A    -11.274059     5A    -11.273554     6A    -11.253867
       7A    -11.241195     8A    -11.230059     9A    -11.212269
      10A     -1.415381    11A     -1.244169    12A     -1.100409
      13A     -1.041136    14A     -0.960712    15A     -0.938039
      16A     -0.837043    17A     -0.825934    18A     -0.720177
      19A     -0.688759    20A     -0.654149    21A     -0.648648
      22A     -0.604614    23A     -0.595212    24A     -0.583938
      25A     -0.559797    26A     -0.548193    27A     -0.533031
      28A     -0.527899    29A     -0.502556    30A     -0.476516
      31A     -0.422514    32A     -0.376826    33A     -0.315447

  @DF-RHF Final Energy:  -399.75961543835774

   => Energetics <=

    Nuclear Repulsion Energy =            435.7737722796438788
    One-Electron Energy =               -1406.8995711079849116
    Two-Electron Energy =                 571.3661833899832345
    Total Energy =                       -399.7596154383577414
  Basis Set: (AUG-CC-PVTZ AUX)
    Blend: AUG-CC-PVTZ-RI
    Molecular point group: c1

    Geometry (in Angstrom), charge = 0, multiplicity = 1:

       Center              X                  Y                   Z               Mass
    ------------   -----------------  -----------------  -----------------  -----------------
         O            1.728740249494     0.396478179791    -0.000649634399    15.994914619570
         N            0.184691249494    -1.338575820209    -0.000652634399    14.003074004430
         C           -0.542932750506     0.983963179791    -0.000658634399    12.000000000000
         C            0.436688249494    -0.033060820209    -0.000652634399    12.000000000000
         C           -1.865831750506     0.558386179791    -0.000661634399    12.000000000000
         C           -0.133947750506     2.427219179791    -0.000659634399    12.000000000000
         C           -2.165114750506    -0.810132820209    -0.000661634399    12.000000000000
         C           -1.113229750506    -1.714492820209    -0.000657634399    12.000000000000
         C            2.724190249494    -0.637196820209    -0.000667634399    12.000000000000
         H           -2.665523750506     1.297189179791    -0.000666634399     1.007825032230
         H           -1.013428750506     3.076560179791    -0.000676634399     1.007825032230
         H            0.474828249494     2.657826179791     0.878443365601     1.007825032230
         H            0.419202549494     2.636736779791    -0.799381934399     1.007825032230
         H           -3.192917750506    -1.160664820209    -0.000663634399     1.007825032230
         H           -1.291488750506    -2.788068820209    -0.000657634399     1.007825032230
         H            2.632875249494    -1.265912820209    -0.888771634399     1.007825032230
         H            2.632923249494    -1.265897820209     0.887452365601     1.007825032230
         H            3.675289249494    -0.105567820209    -0.000696634399     1.007825032230

  Basis Set: AUG-CC-PVTZ
    Blend: AUG-CC-PVTZ
  Basis Set: (AUG-CC-PVTZ AUX)
    Blend: AUG-CC-PVTZ-JKFIT
	 Reference Energy          =    -399.7596154383577414 [Eh]
	 Singles Energy            =      -0.0000000000000000 [Eh]
	 Same-Spin Energy          =      -0.4237606997248780 [Eh]
	 Opposite-Spin Energy      =      -1.3361649616874920 [Eh]
	 Correlation Energy        =      -1.7599256614123699 [Eh]
	 Total Energy              =    -401.5195410997700947 [Eh]

	 ================> DF-SCS-MP2 Energies <==================
	-----------------------------------------------------------
	 SCS Same-Spin Scale       =       0.3333333333333333 [-]
	 SCS Opposite-Spin Scale   =       1.2000000000000000 [-]
	 SCS Same-Spin Energy      =      -0.1412535665749593 [Eh]
	 SCS Opposite-Spin Energy  =      -1.6033979540249903 [Eh]
	 SCS Correlation Energy    =      -1.7446515205999495 [Eh]
	 SCS Total Energy          =    -401.5042669589577145 [Eh]
	-----------------------------------------------------------

  Dipole Moment: [D]
     X:    -0.5153      Y:     0.6778      Z:    -0.0193     Total:     0.8517

*** Psi4 exiting successfully. Buy a developer a beer!
