                               Psi4 1.4a3.dev225

  ==> Input File <==

--------------------------------------------------------------------------
#psi4
#
memory 32 gb

molecule  {
0 1
  O        1.7152690     0.3729450     0.0000090
  N        0.1712200    -1.3621090     0.0000060
  C       -0.5564040     0.9604300     0.0000000
  C        0.4232170    -0.0565940     0.0000060
  C       -1.8793030     0.5348530    -0.0000030
  C       -0.1474190     2.4036860    -0.0000010
  C       -2.1785860    -0.8336660    -0.0000030
  C       -1.1267010    -1.7380260     0.0000010
  C        2.7107190    -0.6607300    -0.0000090
  H       -2.6789950     1.2736560    -0.0000080
  H       -1.0269000     3.0530270    -0.0000180
  H        0.4613570     2.6342930     0.8791020
  H        0.4725169     2.6385001    -0.8951585
  H       -3.2063890    -1.1841980    -0.0000050
  H       -1.3049600    -2.8116020     0.0000010
  H        2.6194040    -1.2894460    -0.8881130
  H        2.6194520    -1.2894310     0.8881110
  H        3.6618180    -0.1291010    -0.0000380
units angstrom
no_reorient  #important for SAPT in psi4, default
symmetry c1  #important for SAPT in psi4, default
}

set PROPERTIES_ORIGIN ["COM"]
properties('MP2/aug-cc-pvtz', properties = ['dipole'])
--------------------------------------------------------------------------

    Molecular point group: c1
  Charge       = 0
  Multiplicity = 1
  Basis Set: AUG-CC-PVTZ
    Blend: AUG-CC-PVTZ
  Basis Set: (AUG-CC-PVTZ AUX)
    Blend: AUG-CC-PVTZ-JKFIT

    Orbital Energies [Eh]
    ---------------------

    Doubly Occupied:

       1A    -20.586897     2A    -15.559024     3A    -11.332216
       4A    -11.274044     5A    -11.273941     6A    -11.254467
       7A    -11.242030     8A    -11.230418     9A    -11.226734
      10A     -1.415392    11A     -1.244475    12A     -1.099589
      13A     -1.040064    14A     -0.954990    15A     -0.934856
      16A     -0.835531    17A     -0.824848    18A     -0.719912
      19A     -0.688454    20A     -0.653704    21A     -0.648228
      22A     -0.603825    23A     -0.589515    24A     -0.574795
      25A     -0.560104    26A     -0.547397    27A     -0.528761
      28A     -0.527664    29A     -0.501149    30A     -0.476582
      31A     -0.422876    32A     -0.376708    33A     -0.315330

  @DF-RHF Final Energy:  -399.76512081819010

   => Energetics <=

    Nuclear Repulsion Energy =            435.2330528201221682
    One-Electron Energy =               -1405.8673080115440825
    Two-Electron Energy =                 570.8691343732318728
    Total Energy =                       -399.7651208181900984
  Basis Set: (AUG-CC-PVTZ AUX)
    Blend: AUG-CC-PVTZ-RI
    Molecular point group: c1

    Geometry (in Angstrom), charge = 0, multiplicity = 1:

       Center              X                  Y                   Z               Mass
    ------------   -----------------  -----------------  -----------------  -----------------
         O            1.728193332561     0.396271023096     0.000140087394    15.994914619570
         N            0.184144332561    -1.338782976904     0.000137087394    14.003074004430
         C           -0.543479667439     0.983756023096     0.000131087394    12.000000000000
         C            0.436141332561    -0.033267976904     0.000137087394    12.000000000000
         C           -1.866378667439     0.558179023096     0.000128087394    12.000000000000
         C           -0.134494667439     2.427012023096     0.000130087394    12.000000000000
         C           -2.165661667439    -0.810339976904     0.000128087394    12.000000000000
         C           -1.113776667439    -1.714699976904     0.000132087394    12.000000000000
         C            2.723643332561    -0.637403976904     0.000122087394    12.000000000000
         H           -2.666070667439     1.296982023096     0.000123087394     1.007825032230
         H           -1.013975667439     3.076353023096     0.000113087394     1.007825032230
         H            0.474281332561     2.657619023096     0.879233087394     1.007825032230
         H            0.485441232561     2.661826123096    -0.895027412606     1.007825032230
         H           -3.193464667439    -1.160871976904     0.000126087394     1.007825032230
         H           -1.292035667439    -2.788275976904     0.000132087394     1.007825032230
         H            2.632328332561    -1.266119976904    -0.887981912606     1.007825032230
         H            2.632376332561    -1.266104976904     0.888242087394     1.007825032230
         H            3.674742332561    -0.105774976904     0.000093087394     1.007825032230

  Basis Set: AUG-CC-PVTZ
    Blend: AUG-CC-PVTZ
  Basis Set: (AUG-CC-PVTZ AUX)
    Blend: AUG-CC-PVTZ-JKFIT
	 Reference Energy          =    -399.7651208181900984 [Eh]
	 Singles Energy            =      -0.0000000000000000 [Eh]
	 Same-Spin Energy          =      -0.4237699697406119 [Eh]
	 Opposite-Spin Energy      =      -1.3367800023433007 [Eh]
	 Correlation Energy        =      -1.7605499720839126 [Eh]
	 Total Energy              =    -401.5256707902740345 [Eh]

	 ================> DF-SCS-MP2 Energies <==================
	-----------------------------------------------------------
	 SCS Same-Spin Scale       =       0.3333333333333333 [-]
	 SCS Opposite-Spin Scale   =       1.2000000000000000 [-]
	 SCS Same-Spin Energy      =      -0.1412566565802039 [Eh]
	 SCS Opposite-Spin Energy  =      -1.6041360028119609 [Eh]
	 SCS Correlation Energy    =      -1.7453926593921649 [Eh]
	 SCS Total Energy          =    -401.5105134775822648 [Eh]
	-----------------------------------------------------------

  Dipole Moment: [D]
     X:    -0.5306      Y:     0.6469      Z:     0.0051     Total:     0.8367

*** Psi4 exiting successfully. Buy a developer a beer!
