                               Psi4 1.4a3.dev225

  ==> Input File <==

--------------------------------------------------------------------------
#psi4
#
memory 32 gb

molecule  {
0 1
  O        1.7152690     0.3729450     0.0000090
  N        0.1712200    -1.3621090     0.0000060
  C       -0.6081359     1.0963792    -0.0000002
  C        0.4232170    -0.0565940     0.0000060
  C       -1.8793030     0.5348530    -0.0000030
  C       -0.1474190     2.4036860    -0.0000010
  C       -2.1785860    -0.8336660    -0.0000030
  C       -1.1267010    -1.7380260     0.0000010
  C        2.7107190    -0.6607300    -0.0000090
  H       -2.6789950     1.2736560    -0.0000080
  H       -1.0269000     3.0530270    -0.0000180
  H        0.4613570     2.6342930     0.8791020
  H        0.4613860     2.6342840    -0.8790860
  H       -3.2063890    -1.1841980    -0.0000050
  H       -1.3049600    -2.8116020     0.0000010
  H        2.6194040    -1.2894460    -0.8881130
  H        2.6194520    -1.2894310     0.8881110
  H        3.6618180    -0.1291010    -0.0000380
units angstrom
no_reorient  #important for SAPT in psi4, default
symmetry c1  #important for SAPT in psi4, default
}

set PROPERTIES_ORIGIN ["COM"]
properties('MP2/aug-cc-pvtz', properties = ['dipole'])
--------------------------------------------------------------------------

    Molecular point group: c1
  Charge       = 0
  Multiplicity = 1
  Basis Set: AUG-CC-PVTZ
    Blend: AUG-CC-PVTZ
  Basis Set: (AUG-CC-PVTZ AUX)
    Blend: AUG-CC-PVTZ-JKFIT

    Orbital Energies [Eh]
    ---------------------

    Doubly Occupied:

       1A    -20.591686     2A    -15.557656     3A    -11.345347
       4A    -11.275381     5A    -11.272543     6A    -11.252699
       7A    -11.250641     8A    -11.227972     9A    -11.221942
      10A     -1.417240    11A     -1.239711    12A     -1.107348
      13A     -1.041190    14A     -0.965116    15A     -0.937280
      16A     -0.829004    17A     -0.811527    18A     -0.718315
      19A     -0.687933    20A     -0.654009    21A     -0.651398
      22A     -0.612731    23A     -0.593217    24A     -0.587928
      25A     -0.564222    26A     -0.542882    27A     -0.527845
      28A     -0.527402    29A     -0.506721    30A     -0.477008
      31A     -0.413148    32A     -0.378331    33A     -0.303128

  @DF-RHF Final Energy:  -399.73857231853003

   => Energetics <=

    Nuclear Repulsion Energy =            433.7854253148736348
    One-Electron Energy =               -1402.8669913266160165
    Two-Electron Energy =                 569.3429936932122928
    Total Energy =                       -399.7385723185300321
  Basis Set: (AUG-CC-PVTZ AUX)
    Blend: AUG-CC-PVTZ-RI
    Molecular point group: c1

    Geometry (in Angstrom), charge = 0, multiplicity = 1:

       Center              X                  Y                   Z               Mass
    ------------   -----------------  -----------------  -----------------  -----------------
         O            1.733328694102     0.383049585871     0.000008486870    15.994914619570
         N            0.189279694102    -1.352004414129     0.000005486870    14.003074004430
         C           -0.590076205898     1.106483785871    -0.000000713130    12.000000000000
         C            0.441276694102    -0.046489414129     0.000005486870    12.000000000000
         C           -1.861243305898     0.544957585871    -0.000003513130    12.000000000000
         C           -0.129359305898     2.413790585871    -0.000001513130    12.000000000000
         C           -2.160526305898    -0.823561414129    -0.000003513130    12.000000000000
         C           -1.108641305898    -1.727921414129     0.000000486870    12.000000000000
         C            2.728778694102    -0.650625414129    -0.000009513130    12.000000000000
         H           -2.660935305898     1.283760585871    -0.000008513130     1.007825032230
         H           -1.008840305898     3.063131585871    -0.000018513130     1.007825032230
         H            0.479416694102     2.644397585871     0.879101486870     1.007825032230
         H            0.479445694102     2.644388585871    -0.879086513130     1.007825032230
         H           -3.188329305898    -1.174093414129    -0.000005513130     1.007825032230
         H           -1.286900305898    -2.801497414129     0.000000486870     1.007825032230
         H            2.637463694102    -1.279341414129    -0.888113513130     1.007825032230
         H            2.637511694102    -1.279326414129     0.888110486870     1.007825032230
         H            3.679877694102    -0.118996414129    -0.000038513130     1.007825032230

  Basis Set: AUG-CC-PVTZ
    Blend: AUG-CC-PVTZ
  Basis Set: (AUG-CC-PVTZ AUX)
    Blend: AUG-CC-PVTZ-JKFIT
	 Reference Energy          =    -399.7385723185300321 [Eh]
	 Singles Energy            =      -0.0000000000000000 [Eh]
	 Same-Spin Energy          =      -0.4248753811617044 [Eh]
	 Opposite-Spin Energy      =      -1.3392900092498963 [Eh]
	 Correlation Energy        =      -1.7641653904116006 [Eh]
	 Total Energy              =    -401.5027377089416518 [Eh]

	 ================> DF-SCS-MP2 Energies <==================
	-----------------------------------------------------------
	 SCS Same-Spin Scale       =       0.3333333333333333 [-]
	 SCS Opposite-Spin Scale   =       1.2000000000000000 [-]
	 SCS Same-Spin Energy      =      -0.1416251270539015 [Eh]
	 SCS Opposite-Spin Energy  =      -1.6071480110998755 [Eh]
	 SCS Correlation Energy    =      -1.7487731381537770 [Eh]
	 SCS Total Energy          =    -401.4873454566837836 [Eh]
	-----------------------------------------------------------

  Dipole Moment: [D]
     X:    -0.2449      Y:     0.8565      Z:    -0.0000     Total:     0.8908

*** Psi4 exiting successfully. Buy a developer a beer!
