                               Psi4 1.4a3.dev225

  ==> Input File <==

--------------------------------------------------------------------------
#psi4
#
memory 32 gb

molecule  {
0 1
  O        1.7152690     0.3729450     0.0000090
  N        0.1835487    -1.4076348     0.0000061
  C       -0.5564040     0.9604300     0.0000000
  C        0.4232170    -0.0565940     0.0000060
  C       -1.8793030     0.5348530    -0.0000030
  C       -0.1474190     2.4036860    -0.0000010
  C       -2.1785860    -0.8336660    -0.0000030
  C       -1.1267010    -1.7380260     0.0000010
  C        2.7107190    -0.6607300    -0.0000090
  H       -2.6789950     1.2736560    -0.0000080
  H       -1.0269000     3.0530270    -0.0000180
  H        0.4613570     2.6342930     0.8791020
  H        0.4613860     2.6342840    -0.8790860
  H       -3.2063890    -1.1841980    -0.0000050
  H       -1.3049600    -2.8116020     0.0000010
  H        2.6194040    -1.2894460    -0.8881130
  H        2.6194520    -1.2894310     0.8881110
  H        3.6618180    -0.1291010    -0.0000380
units angstrom
no_reorient  #important for SAPT in psi4, default
symmetry c1  #important for SAPT in psi4, default
}

set PROPERTIES_ORIGIN ["COM"]
properties('MP2/aug-cc-pvtz', properties = ['dipole'])
--------------------------------------------------------------------------

    Molecular point group: c1
  Charge       = 0
  Multiplicity = 1
  Basis Set: AUG-CC-PVTZ
    Blend: AUG-CC-PVTZ
  Basis Set: (AUG-CC-PVTZ AUX)
    Blend: AUG-CC-PVTZ-JKFIT

    Orbital Energies [Eh]
    ---------------------

    Doubly Occupied:

       1A    -20.589252     2A    -15.565008     3A    -11.337621
       4A    -11.274732     5A    -11.273896     6A    -11.256398
       7A    -11.242129     8A    -11.229815     9A    -11.225093
      10A     -1.415788    11A     -1.236059    12A     -1.100733
      13A     -1.037878    14A     -0.956752    15A     -0.933504
      16A     -0.836261    17A     -0.822350    18A     -0.718529
      19A     -0.687086    20A     -0.653603    21A     -0.647611
      22A     -0.601870    23A     -0.589436    24A     -0.576762
      25A     -0.560913    26A     -0.547570    27A     -0.528240
      28A     -0.526440    29A     -0.501408    30A     -0.477584
      31A     -0.427213    32A     -0.376209    33A     -0.314070

  @DF-RHF Final Energy:  -399.76104782379065

   => Energetics <=

    Nuclear Repulsion Energy =            434.2012208692152058
    One-Electron Energy =               -1403.7889059468773212
    Two-Electron Energy =                 569.8266372538714677
    Total Energy =                       -399.7610478237907046
  Basis Set: (AUG-CC-PVTZ AUX)
    Blend: AUG-CC-PVTZ-RI
    Molecular point group: c1

    Geometry (in Angstrom), charge = 0, multiplicity = 1:

       Center              X                  Y                   Z               Mass
    ------------   -----------------  -----------------  -----------------  -----------------
         O            1.726881690575     0.401485604297     0.000008455990    15.994914619570
         N            0.195161390575    -1.379094195703     0.000005555990    14.003074004430
         C           -0.544791309425     0.988970604297    -0.000000544010    12.000000000000
         C            0.434829690575    -0.028053395703     0.000005455990    12.000000000000
         C           -1.867690309425     0.563393604297    -0.000003544010    12.000000000000
         C           -0.135806309425     2.432226604297    -0.000001544010    12.000000000000
         C           -2.166973309425    -0.805125395703    -0.000003544010    12.000000000000
         C           -1.115088309425    -1.709485395703     0.000000455990    12.000000000000
         C            2.722331690575    -0.632189395703    -0.000009544010    12.000000000000
         H           -2.667382309425     1.302196604297    -0.000008544010     1.007825032230
         H           -1.015287309425     3.081567604297    -0.000018544010     1.007825032230
         H            0.472969690575     2.662833604297     0.879101455990     1.007825032230
         H            0.472998690575     2.662824604297    -0.879086544010     1.007825032230
         H           -3.194776309425    -1.155657395703    -0.000005544010     1.007825032230
         H           -1.293347309425    -2.783061395703     0.000000455990     1.007825032230
         H            2.631016690575    -1.260905395703    -0.888113544010     1.007825032230
         H            2.631064690575    -1.260890395703     0.888110455990     1.007825032230
         H            3.673430690575    -0.100560395703    -0.000038544010     1.007825032230

  Basis Set: AUG-CC-PVTZ
    Blend: AUG-CC-PVTZ
  Basis Set: (AUG-CC-PVTZ AUX)
    Blend: AUG-CC-PVTZ-JKFIT
	 Reference Energy          =    -399.7610478237906477 [Eh]
	 Singles Energy            =      -0.0000000000000000 [Eh]
	 Same-Spin Energy          =      -0.4242407734191719 [Eh]
	 Opposite-Spin Energy      =      -1.3380509809388696 [Eh]
	 Correlation Energy        =      -1.7622917543580416 [Eh]
	 Total Energy              =    -401.5233395781486934 [Eh]

	 ================> DF-SCS-MP2 Energies <==================
	-----------------------------------------------------------
	 SCS Same-Spin Scale       =       0.3333333333333333 [-]
	 SCS Opposite-Spin Scale   =       1.2000000000000000 [-]
	 SCS Same-Spin Energy      =      -0.1414135911397240 [Eh]
	 SCS Opposite-Spin Energy  =      -1.6056611771266436 [Eh]
	 SCS Correlation Energy    =      -1.7470747682663674 [Eh]
	 SCS Total Energy          =    -401.5081225920570205 [Eh]
	-----------------------------------------------------------

  Dipole Moment: [D]
     X:    -0.4981      Y:     0.7564      Z:    -0.0000     Total:     0.9057

*** Psi4 exiting successfully. Buy a developer a beer!
