                               Psi4 1.4a3.dev225

  ==> Input File <==

--------------------------------------------------------------------------
#psi4
#
memory 32 gb

molecule  {
0 1
  O        1.7152690     0.3729450     0.0000090
  N        0.1712200    -1.3621090     0.0000060
  C       -0.5564040     0.9604300     0.0000000
  C        0.4232170    -0.0565940     0.0000060
  C       -1.8793030     0.5348530    -0.0000030
  C       -0.1474190     2.4036860    -0.0000010
  C       -2.1785860    -0.8336660    -0.0000030
  C       -1.1267010    -1.7380260     0.0000010
  C        2.7107190    -0.6607300    -0.0000090
  H       -2.6789950     1.2736560    -0.0000080
  H       -1.0269000     3.0530270    -0.0000180
  H        0.5172211     2.6554531     0.8315498
  H        0.4613860     2.6342840    -0.8790860
  H       -3.2063890    -1.1841980    -0.0000050
  H       -1.3049600    -2.8116020     0.0000010
  H        2.6194040    -1.2894460    -0.8881130
  H        2.6194520    -1.2894310     0.8881110
  H        3.6618180    -0.1291010    -0.0000380
units angstrom
no_reorient  #important for SAPT in psi4, default
symmetry c1  #important for SAPT in psi4, default
}

set PROPERTIES_ORIGIN ["COM"]
properties('MP2/aug-cc-pvtz', properties = ['dipole'])
--------------------------------------------------------------------------

    Molecular point group: c1
  Charge       = 0
  Multiplicity = 1
  Basis Set: AUG-CC-PVTZ
    Blend: AUG-CC-PVTZ
  Basis Set: (AUG-CC-PVTZ AUX)
    Blend: AUG-CC-PVTZ-JKFIT

    Orbital Energies [Eh]
    ---------------------

    Doubly Occupied:

       1A    -20.587105     2A    -15.559078     3A    -11.332310
       4A    -11.274182     5A    -11.273986     6A    -11.254619
       7A    -11.242396     8A    -11.230507     9A    -11.224266
      10A     -1.415572    11A     -1.244540    12A     -1.099675
      13A     -1.040231    14A     -0.955667    15A     -0.935695
      16A     -0.835946    17A     -0.825394    18A     -0.720255
      19A     -0.689007    20A     -0.653729    21A     -0.648631
      22A     -0.604431    23A     -0.591427    24A     -0.571570
      25A     -0.560455    26A     -0.549099    27A     -0.529586
      28A     -0.526703    29A     -0.503141    30A     -0.476716
      31A     -0.422921    32A     -0.376622    33A     -0.315267

  @DF-RHF Final Energy:  -399.76508053443092

   => Energetics <=

    Nuclear Repulsion Energy =            435.2927094593704282
    One-Electron Energy =               -1405.9741243953055800
    Two-Electron Energy =                 570.9163344015042867
    Total Energy =                       -399.7650805344309219
  Basis Set: (AUG-CC-PVTZ AUX)
    Blend: AUG-CC-PVTZ-RI
    Molecular point group: c1

    Geometry (in Angstrom), charge = 0, multiplicity = 1:

       Center              X                  Y                   Z               Mass
    ------------   -----------------  -----------------  -----------------  -----------------
         O            1.727827005920     0.396132266231     0.000397879208    15.994914619570
         N            0.183778005920    -1.338921733769     0.000394879208    14.003074004430
         C           -0.543845994080     0.983617266231     0.000388879208    12.000000000000
         C            0.435775005920    -0.033406733769     0.000394879208    12.000000000000
         C           -1.866744994080     0.558040266231     0.000385879208    12.000000000000
         C           -0.134860994080     2.426873266231     0.000387879208    12.000000000000
         C           -2.166027994080    -0.810478733769     0.000385879208    12.000000000000
         C           -1.114142994080    -1.714838733769     0.000389879208    12.000000000000
         C            2.723277005920    -0.637542733769     0.000379879208    12.000000000000
         H           -2.666436994080     1.296843266231     0.000380879208     1.007825032230
         H           -1.014341994080     3.076214266231     0.000370879208     1.007825032230
         H            0.529779105920     2.678640366231     0.831938679208     1.007825032230
         H            0.473944005920     2.657471266231    -0.878697120792     1.007825032230
         H           -3.193830994080    -1.161010733769     0.000383879208     1.007825032230
         H           -1.292401994080    -2.788414733769     0.000389879208     1.007825032230
         H            2.631962005920    -1.266258733769    -0.887724120792     1.007825032230
         H            2.632010005920    -1.266243733769     0.888499879208     1.007825032230
         H            3.674376005920    -0.105913733769     0.000350879208     1.007825032230

  Basis Set: AUG-CC-PVTZ
    Blend: AUG-CC-PVTZ
  Basis Set: (AUG-CC-PVTZ AUX)
    Blend: AUG-CC-PVTZ-JKFIT
	 Reference Energy          =    -399.7650805344309219 [Eh]
	 Singles Energy            =      -0.0000000000000000 [Eh]
	 Same-Spin Energy          =      -0.4238090374097225 [Eh]
	 Opposite-Spin Energy      =      -1.3366532815218748 [Eh]
	 Correlation Energy        =      -1.7604623189315973 [Eh]
	 Total Energy              =    -401.5255428533625377 [Eh]

	 ================> DF-SCS-MP2 Energies <==================
	-----------------------------------------------------------
	 SCS Same-Spin Scale       =       0.3333333333333333 [-]
	 SCS Opposite-Spin Scale   =       1.2000000000000000 [-]
	 SCS Same-Spin Energy      =      -0.1412696791365742 [Eh]
	 SCS Opposite-Spin Energy  =      -1.6039839378262497 [Eh]
	 SCS Correlation Energy    =      -1.7452536169628239 [Eh]
	 SCS Total Energy          =    -401.5103341513937494 [Eh]
	-----------------------------------------------------------

  Dipole Moment: [D]
     X:    -0.5031      Y:     0.6517      Z:    -0.0134     Total:     0.8234

*** Psi4 exiting successfully. Buy a developer a beer!
