                               Psi4 1.4a3.dev225

  ==> Input File <==

--------------------------------------------------------------------------
#psi4
#
memory 32 gb

molecule  {
0 1
  O        1.7152690     0.3729450     0.0000090
  N        0.1712200    -1.3621090     0.0000060
  C       -0.5564040     0.9604300     0.0000000
  C        0.4042383    -0.0629034     0.0000060
  C       -1.8793030     0.5348530    -0.0000030
  C       -0.1474190     2.4036860    -0.0000010
  C       -2.1785860    -0.8336660    -0.0000030
  C       -1.1267010    -1.7380260     0.0000010
  C        2.7107190    -0.6607300    -0.0000090
  H       -2.6789950     1.2736560    -0.0000080
  H       -1.0269000     3.0530270    -0.0000180
  H        0.4613570     2.6342930     0.8791020
  H        0.4613860     2.6342840    -0.8790860
  H       -3.2063890    -1.1841980    -0.0000050
  H       -1.3049600    -2.8116020     0.0000010
  H        2.6194040    -1.2894460    -0.8881130
  H        2.6194520    -1.2894310     0.8881110
  H        3.6618180    -0.1291010    -0.0000380
units angstrom
no_reorient  #important for SAPT in psi4, default
symmetry c1  #important for SAPT in psi4, default
}

set PROPERTIES_ORIGIN ["COM"]
properties('MP2/aug-cc-pvtz', properties = ['dipole'])
--------------------------------------------------------------------------

    Molecular point group: c1
  Charge       = 0
  Multiplicity = 1
  Basis Set: AUG-CC-PVTZ
    Blend: AUG-CC-PVTZ
  Basis Set: (AUG-CC-PVTZ AUX)
    Blend: AUG-CC-PVTZ-JKFIT

    Orbital Energies [Eh]
    ---------------------

    Doubly Occupied:

       1A    -20.582463     2A    -15.560334     3A    -11.330774
       4A    -11.275017     5A    -11.271485     6A    -11.255469
       7A    -11.242460     8A    -11.231888     9A    -11.225149
      10A     -1.405693    11A     -1.248732    12A     -1.102100
      13A     -1.041104    14A     -0.953427    15A     -0.934639
      16A     -0.838475    17A     -0.825570    18A     -0.717403
      19A     -0.687970    20A     -0.649484    21A     -0.646612
      22A     -0.603852    23A     -0.589692    24A     -0.577189
      25A     -0.559917    26A     -0.549023    27A     -0.530533
      28A     -0.527244    29A     -0.498246    30A     -0.473352
      31A     -0.426623    32A     -0.378407    33A     -0.317981

  @DF-RHF Final Energy:  -399.76499738841648

   => Energetics <=

    Nuclear Repulsion Energy =            435.3546931508561215
    One-Electron Energy =               -1406.1227662511391827
    Two-Electron Energy =                 571.0030757118666997
    Total Energy =                       -399.7649973884164183
  Basis Set: (AUG-CC-PVTZ AUX)
    Blend: AUG-CC-PVTZ-RI
    Molecular point group: c1

    Geometry (in Angstrom), charge = 0, multiplicity = 1:

       Center              X                  Y                   Z               Mass
    ------------   -----------------  -----------------  -----------------  -----------------
         O            1.730135036302     0.396920758382     0.000008467368    15.994914619570
         N            0.186086036302    -1.338133241618     0.000005467368    14.003074004430
         C           -0.541537963698     0.984405758382    -0.000000532632    12.000000000000
         C            0.419104336302    -0.038927641618     0.000005467368    12.000000000000
         C           -1.864436963698     0.558828758382    -0.000003532632    12.000000000000
         C           -0.132552963698     2.427661758382    -0.000001532632    12.000000000000
         C           -2.163719963698    -0.809690241618    -0.000003532632    12.000000000000
         C           -1.111834963698    -1.714050241618     0.000000467368    12.000000000000
         C            2.725585036302    -0.636754241618    -0.000009532632    12.000000000000
         H           -2.664128963698     1.297631758382    -0.000008532632     1.007825032230
         H           -1.012033963698     3.077002758382    -0.000018532632     1.007825032230
         H            0.476223036302     2.658268758382     0.879101467368     1.007825032230
         H            0.476252036302     2.658259758382    -0.879086532632     1.007825032230
         H           -3.191522963698    -1.160222241618    -0.000005532632     1.007825032230
         H           -1.290093963698    -2.787626241618     0.000000467368     1.007825032230
         H            2.634270036302    -1.265470241618    -0.888113532632     1.007825032230
         H            2.634318036302    -1.265455241618     0.888110467368     1.007825032230
         H            3.676684036302    -0.105125241618    -0.000038532632     1.007825032230

  Basis Set: AUG-CC-PVTZ
    Blend: AUG-CC-PVTZ
  Basis Set: (AUG-CC-PVTZ AUX)
    Blend: AUG-CC-PVTZ-JKFIT
	 Reference Energy          =    -399.7649973884164751 [Eh]
	 Singles Energy            =      -0.0000000000000000 [Eh]
	 Same-Spin Energy          =      -0.4237761426441584 [Eh]
	 Opposite-Spin Energy      =      -1.3368127384012578 [Eh]
	 Correlation Energy        =      -1.7605888810454162 [Eh]
	 Total Energy              =    -401.5255862694618827 [Eh]

	 ================> DF-SCS-MP2 Energies <==================
	-----------------------------------------------------------
	 SCS Same-Spin Scale       =       0.3333333333333333 [-]
	 SCS Opposite-Spin Scale   =       1.2000000000000000 [-]
	 SCS Same-Spin Energy      =      -0.1412587142147195 [Eh]
	 SCS Opposite-Spin Energy  =      -1.6041752860815093 [Eh]
	 SCS Correlation Energy    =      -1.7454340002962287 [Eh]
	 SCS Total Energy          =    -401.5104313887127319 [Eh]
	-----------------------------------------------------------

  Dipole Moment: [D]
     X:    -0.6982      Y:     0.6335      Z:    -0.0000     Total:     0.9428

*** Psi4 exiting successfully. Buy a developer a beer!
