                               Psi4 1.4a3.dev225

  ==> Input File <==

--------------------------------------------------------------------------
#psi4
#
memory 32 gb

molecule  {
0 1
  O        1.7152690     0.3729450     0.0000090
  N        0.1712200    -1.3621090     0.0000060
  C       -0.5564040     0.9604300     0.0000000
  C        0.4232170    -0.0565940     0.0000060
  C       -1.8636447     0.4889437    -0.0000029
  C       -0.1474190     2.4036860    -0.0000010
  C       -2.1785860    -0.8336660    -0.0000030
  C       -1.1267010    -1.7380260     0.0000010
  C        2.7107190    -0.6607300    -0.0000090
  H       -2.6789950     1.2736560    -0.0000080
  H       -1.0269000     3.0530270    -0.0000180
  H        0.4613570     2.6342930     0.8791020
  H        0.4613860     2.6342840    -0.8790860
  H       -3.2063890    -1.1841980    -0.0000050
  H       -1.3049600    -2.8116020     0.0000010
  H        2.6194040    -1.2894460    -0.8881130
  H        2.6194520    -1.2894310     0.8881110
  H        3.6618180    -0.1291010    -0.0000380
units angstrom
no_reorient  #important for SAPT in psi4, default
symmetry c1  #important for SAPT in psi4, default
}

set PROPERTIES_ORIGIN ["COM"]
properties('MP2/aug-cc-pvtz', properties = ['dipole'])
--------------------------------------------------------------------------

    Molecular point group: c1
  Charge       = 0
  Multiplicity = 1
  Basis Set: AUG-CC-PVTZ
    Blend: AUG-CC-PVTZ
  Basis Set: (AUG-CC-PVTZ AUX)
    Blend: AUG-CC-PVTZ-JKFIT

    Orbital Energies [Eh]
    ---------------------

    Doubly Occupied:

       1A    -20.585920     2A    -15.559274     3A    -11.330739
       4A    -11.275378     5A    -11.273581     6A    -11.253082
       7A    -11.240549     8A    -11.226658     9A    -11.225155
      10A     -1.414648    11A     -1.246265    12A     -1.101415
      13A     -1.045213    14A     -0.955992    15A     -0.935281
      16A     -0.836135    17A     -0.823040    18A     -0.718174
      19A     -0.690706    20A     -0.653314    21A     -0.651541
      22A     -0.599425    23A     -0.589867    24A     -0.577075
      25A     -0.553001    26A     -0.542104    27A     -0.533266
      28A     -0.530654    29A     -0.503484    30A     -0.477773
      31A     -0.421653    32A     -0.380407    33A     -0.315243

  @DF-RHF Final Energy:  -399.76263563487839

   => Energetics <=

    Nuclear Repulsion Energy =            435.9996489736583953
    One-Electron Energy =               -1407.3925463910318285
    Two-Electron Energy =                 571.6302617824950403
    Total Energy =                       -399.7626356348783929
  Basis Set: (AUG-CC-PVTZ AUX)
    Blend: AUG-CC-PVTZ-RI
    Molecular point group: c1

    Geometry (in Angstrom), charge = 0, multiplicity = 1:

       Center              X                  Y                   Z               Mass
    ------------   -----------------  -----------------  -----------------  -----------------
         O            1.726757695303     0.400782015588     0.000008457618    15.994914619570
         N            0.182708695303    -1.334271984412     0.000005457618    14.003074004430
         C           -0.544915304697     0.988267015588    -0.000000542382    12.000000000000
         C            0.434705695303    -0.028756984412     0.000005457618    12.000000000000
         C           -1.852156004697     0.516780715588    -0.000003442382    12.000000000000
         C           -0.135930304697     2.431523015588    -0.000001542382    12.000000000000
         C           -2.167097304697    -0.805828984412    -0.000003542382    12.000000000000
         C           -1.115212304697    -1.710188984412     0.000000457618    12.000000000000
         C            2.722207695303    -0.632892984412    -0.000009542382    12.000000000000
         H           -2.667506304697     1.301493015588    -0.000008542382     1.007825032230
         H           -1.015411304697     3.080864015588    -0.000018542382     1.007825032230
         H            0.472845695303     2.662130015588     0.879101457618     1.007825032230
         H            0.472874695303     2.662121015588    -0.879086542382     1.007825032230
         H           -3.194900304697    -1.156360984412    -0.000005542382     1.007825032230
         H           -1.293471304697    -2.783764984412     0.000000457618     1.007825032230
         H            2.630892695303    -1.261608984412    -0.888113542382     1.007825032230
         H            2.630940695303    -1.261593984412     0.888110457618     1.007825032230
         H            3.673306695303    -0.101263984412    -0.000038542382     1.007825032230

  Basis Set: AUG-CC-PVTZ
    Blend: AUG-CC-PVTZ
  Basis Set: (AUG-CC-PVTZ AUX)
    Blend: AUG-CC-PVTZ-JKFIT
	 Reference Energy          =    -399.7626356348783929 [Eh]
	 Singles Energy            =      -0.0000000000000000 [Eh]
	 Same-Spin Energy          =      -0.4240182539986805 [Eh]
	 Opposite-Spin Energy      =      -1.3366818623869785 [Eh]
	 Correlation Energy        =      -1.7607001163856590 [Eh]
	 Total Energy              =    -401.5233357512640282 [Eh]

	 ================> DF-SCS-MP2 Energies <==================
	-----------------------------------------------------------
	 SCS Same-Spin Scale       =       0.3333333333333333 [-]
	 SCS Opposite-Spin Scale   =       1.2000000000000000 [-]
	 SCS Same-Spin Energy      =      -0.1413394179995602 [Eh]
	 SCS Opposite-Spin Energy  =      -1.6040182348643741 [Eh]
	 SCS Correlation Energy    =      -1.7453576528639343 [Eh]
	 SCS Total Energy          =    -401.5079932877423516 [Eh]
	-----------------------------------------------------------

  Dipole Moment: [D]
     X:    -0.5233      Y:     0.6212      Z:    -0.0000     Total:     0.8122

*** Psi4 exiting successfully. Buy a developer a beer!
