                               Psi4 1.4a3.dev225

  ==> Input File <==

--------------------------------------------------------------------------
#psi4
#
memory 32 gb

molecule  {
0 1
  O        1.7152690     0.3729450     0.0000090
  N        0.1712200    -1.3621090     0.0000060
  C       -0.5564040     0.9604300     0.0000000
  C        0.3757702    -0.0723675     0.0000059
  C       -1.8793030     0.5348530    -0.0000030
  C       -0.1474190     2.4036860    -0.0000010
  C       -2.1785860    -0.8336660    -0.0000030
  C       -1.1267010    -1.7380260     0.0000010
  C        2.7107190    -0.6607300    -0.0000090
  H       -2.6789950     1.2736560    -0.0000080
  H       -1.0269000     3.0530270    -0.0000180
  H        0.4613570     2.6342930     0.8791020
  H        0.4613860     2.6342840    -0.8790860
  H       -3.2063890    -1.1841980    -0.0000050
  H       -1.3049600    -2.8116020     0.0000010
  H        2.6194040    -1.2894460    -0.8881130
  H        2.6194520    -1.2894310     0.8881110
  H        3.6618180    -0.1291010    -0.0000380
units angstrom
no_reorient  #important for SAPT in psi4, default
symmetry c1  #important for SAPT in psi4, default
}

set PROPERTIES_ORIGIN ["COM"]
properties('MP2/aug-cc-pvtz', properties = ['dipole'])
--------------------------------------------------------------------------

    Molecular point group: c1
  Charge       = 0
  Multiplicity = 1
  Basis Set: AUG-CC-PVTZ
    Blend: AUG-CC-PVTZ
  Basis Set: (AUG-CC-PVTZ AUX)
    Blend: AUG-CC-PVTZ-JKFIT

    Orbital Energies [Eh]
    ---------------------

    Doubly Occupied:

       1A    -20.575882     2A    -15.562335     3A    -11.328992
       4A    -11.276789     5A    -11.267748     6A    -11.257165
       7A    -11.243355     8A    -11.234078     9A    -11.226310
      10A     -1.392285    11A     -1.255043    12A     -1.105873
      13A     -1.042516    14A     -0.951744    15A     -0.932021
      16A     -0.842729    17A     -0.826350    18A     -0.714366
      19A     -0.687634    20A     -0.643775    21A     -0.643633
      22A     -0.603886    23A     -0.589493    24A     -0.577932
      25A     -0.559300    26A     -0.551057    27A     -0.532746
      28A     -0.526704    29A     -0.492480    30A     -0.468174
      31A     -0.432048    32A     -0.380938    33A     -0.321789

  @DF-RHF Final Energy:  -399.76222433333663

   => Energetics <=

    Nuclear Repulsion Energy =            435.4243355032338059
    One-Electron Energy =               -1406.2787801766137363
    Two-Electron Energy =                 571.0922203400432409
    Total Energy =                       -399.7622243333366896
  Basis Set: (AUG-CC-PVTZ AUX)
    Blend: AUG-CC-PVTZ-RI
    Molecular point group: c1

    Geometry (in Angstrom), charge = 0, multiplicity = 1:

       Center              X                  Y                   Z               Mass
    ------------   -----------------  -----------------  -----------------  -----------------
         O            1.732910867965     0.397843571933     0.000008477119    15.994914619570
         N            0.188861867965    -1.337210428067     0.000005477119    14.003074004430
         C           -0.538762132035     0.985328571933    -0.000000522881    12.000000000000
         C            0.393412067965    -0.047468928067     0.000005377119    12.000000000000
         C           -1.861661132035     0.559751571933    -0.000003522881    12.000000000000
         C           -0.129777132035     2.428584571933    -0.000001522881    12.000000000000
         C           -2.160944132035    -0.808767428067    -0.000003522881    12.000000000000
         C           -1.109059132035    -1.713127428067     0.000000477119    12.000000000000
         C            2.728360867965    -0.635831428067    -0.000009522881    12.000000000000
         H           -2.661353132035     1.298554571933    -0.000008522881     1.007825032230
         H           -1.009258132035     3.077925571933    -0.000018522881     1.007825032230
         H            0.478998867965     2.659191571933     0.879101477119     1.007825032230
         H            0.479027867965     2.659182571933    -0.879086522881     1.007825032230
         H           -3.188747132035    -1.159299428067    -0.000005522881     1.007825032230
         H           -1.287318132035    -2.786703428067     0.000000477119     1.007825032230
         H            2.637045867965    -1.264547428067    -0.888113522881     1.007825032230
         H            2.637093867965    -1.264532428067     0.888110477119     1.007825032230
         H            3.679459867965    -0.104202428067    -0.000038522881     1.007825032230

  Basis Set: AUG-CC-PVTZ
    Blend: AUG-CC-PVTZ
  Basis Set: (AUG-CC-PVTZ AUX)
    Blend: AUG-CC-PVTZ-JKFIT
	 Reference Energy          =    -399.7622243333366328 [Eh]
	 Singles Energy            =      -0.0000000000000000 [Eh]
	 Same-Spin Energy          =      -0.4238489180467768 [Eh]
	 Opposite-Spin Energy      =      -1.3371572586275107 [Eh]
	 Correlation Energy        =      -1.7610061766742875 [Eh]
	 Total Energy              =    -401.5232305100109329 [Eh]

	 ================> DF-SCS-MP2 Energies <==================
	-----------------------------------------------------------
	 SCS Same-Spin Scale       =       0.3333333333333333 [-]
	 SCS Opposite-Spin Scale   =       1.2000000000000000 [-]
	 SCS Same-Spin Energy      =      -0.1412829726822589 [Eh]
	 SCS Opposite-Spin Energy  =      -1.6045887103530128 [Eh]
	 SCS Correlation Energy    =      -1.7458716830352716 [Eh]
	 SCS Total Energy          =    -401.5080960163718942 [Eh]
	-----------------------------------------------------------

  Dipole Moment: [D]
     X:    -0.9484      Y:     0.6050      Z:    -0.0000     Total:     1.1249

*** Psi4 exiting successfully. Buy a developer a beer!
