                               Psi4 1.4a3.dev225

  ==> Input File <==

--------------------------------------------------------------------------
#psi4
#
memory 32 gb

molecule  {
0 1
  O        1.7152690     0.3729450     0.0000090
  N        0.1712200    -1.3621090     0.0000060
  C       -0.5564040     0.9604300     0.0000000
  C        0.4232170    -0.0565940     0.0000060
  C       -1.8793030     0.5348530    -0.0000030
  C       -0.1474190     2.4036860    -0.0000010
  C       -2.1785860    -0.8336660    -0.0000030
  C       -1.1267010    -1.7380260     0.0000010
  C        2.7107190    -0.6607300    -0.0000090
  H       -2.6789950     1.2736560    -0.0000080
  H       -1.0269000     3.0530270    -0.0000180
  H        0.4613570     2.6342930     0.8791020
  H        0.5170407     2.6553644    -0.9594487
  H       -3.2063890    -1.1841980    -0.0000050
  H       -1.3049600    -2.8116020     0.0000010
  H        2.6194040    -1.2894460    -0.8881130
  H        2.6194520    -1.2894310     0.8881110
  H        3.6618180    -0.1291010    -0.0000380
units angstrom
no_reorient  #important for SAPT in psi4, default
symmetry c1  #important for SAPT in psi4, default
}

set PROPERTIES_ORIGIN ["COM"]
properties('MP2/aug-cc-pvtz', properties = ['dipole'])
--------------------------------------------------------------------------

    Molecular point group: c1
  Charge       = 0
  Multiplicity = 1
  Basis Set: AUG-CC-PVTZ
    Blend: AUG-CC-PVTZ
  Basis Set: (AUG-CC-PVTZ AUX)
    Blend: AUG-CC-PVTZ-JKFIT

    Orbital Energies [Eh]
    ---------------------

    Doubly Occupied:

       1A    -20.586963     2A    -15.559290     3A    -11.332590
       4A    -11.274364     5A    -11.274054     6A    -11.255058
       7A    -11.242738     8A    -11.235855     9A    -11.230762
      10A     -1.415446    11A     -1.244796    12A     -1.099522
      13A     -1.039810    14A     -0.953075    15A     -0.932815
      16A     -0.835116    17A     -0.824224    18A     -0.719916
      19A     -0.688489    20A     -0.653582    21A     -0.648253
      22A     -0.603998    23A     -0.589305    24A     -0.568642
      25A     -0.560101    26A     -0.546861    27A     -0.528881
      28A     -0.522505    29A     -0.498965    30A     -0.476673
      31A     -0.423229    32A     -0.376658    33A     -0.315323

  @DF-RHF Final Energy:  -399.75913274309141

   => Energetics <=

    Nuclear Repulsion Energy =            434.9123370065615291
    One-Electron Energy =               -1405.2272209063771697
    Two-Electron Energy =                 570.5557511567242273
    Total Energy =                       -399.7591327430914134
  Basis Set: (AUG-CC-PVTZ AUX)
    Blend: AUG-CC-PVTZ-RI
    Molecular point group: c1

    Geometry (in Angstrom), charge = 0, multiplicity = 1:

       Center              X                  Y                   Z               Mass
    ------------   -----------------  -----------------  -----------------  -----------------
         O            1.727828720727     0.396132918905     0.000666569136    15.994914619570
         N            0.183779720727    -1.338921081095     0.000663569136    14.003074004430
         C           -0.543844279273     0.983617918905     0.000657569136    12.000000000000
         C            0.435776720727    -0.033406081095     0.000663569136    12.000000000000
         C           -1.866743279273     0.558040918905     0.000654569136    12.000000000000
         C           -0.134859279273     2.426873918905     0.000656569136    12.000000000000
         C           -2.166026279273    -0.810478081095     0.000654569136    12.000000000000
         C           -1.114141279273    -1.714838081095     0.000658569136    12.000000000000
         C            2.723278720727    -0.637542081095     0.000648569136    12.000000000000
         H           -2.666435279273     1.296843918905     0.000649569136     1.007825032230
         H           -1.014340279273     3.076214918905     0.000639569136     1.007825032230
         H            0.473916720727     2.657480918905     0.879759569136     1.007825032230
         H            0.529600420727     2.678552318905    -0.958791130864     1.007825032230
         H           -3.193829279273    -1.161010081095     0.000652569136     1.007825032230
         H           -1.292400279273    -2.788414081095     0.000658569136     1.007825032230
         H            2.631963720727    -1.266258081095    -0.887455430864     1.007825032230
         H            2.632011720727    -1.266243081095     0.888768569136     1.007825032230
         H            3.674377720727    -0.105913081095     0.000619569136     1.007825032230

  Basis Set: AUG-CC-PVTZ
    Blend: AUG-CC-PVTZ
  Basis Set: (AUG-CC-PVTZ AUX)
    Blend: AUG-CC-PVTZ-JKFIT
	 Reference Energy          =    -399.7591327430914134 [Eh]
	 Singles Energy            =      -0.0000000000000000 [Eh]
	 Same-Spin Energy          =      -0.4237920162883335 [Eh]
	 Opposite-Spin Energy      =      -1.3373549284033674 [Eh]
	 Correlation Energy        =      -1.7611469446917010 [Eh]
	 Total Energy              =    -401.5202796877831020 [Eh]

	 ================> DF-SCS-MP2 Energies <==================
	-----------------------------------------------------------
	 SCS Same-Spin Scale       =       0.3333333333333333 [-]
	 SCS Opposite-Spin Scale   =       1.2000000000000000 [-]
	 SCS Same-Spin Energy      =      -0.1412640054294445 [Eh]
	 SCS Opposite-Spin Energy  =      -1.6048259140840408 [Eh]
	 SCS Correlation Energy    =      -1.7460899195134854 [Eh]
	 SCS Total Energy          =    -401.5052226626049219 [Eh]
	-----------------------------------------------------------

  Dipole Moment: [D]
     X:    -0.5473      Y:     0.6162      Z:     0.0297     Total:     0.8247

*** Psi4 exiting successfully. Buy a developer a beer!
