                               Psi4 1.4a3.dev225

  ==> Input File <==

--------------------------------------------------------------------------
#psi4
#
memory 32 gb

molecule  {
0 1
  O        1.6821585     0.4620277     0.0000089
  N        0.1712200    -1.3621090     0.0000060
  C       -0.5564040     0.9604300     0.0000000
  C        0.4232170    -0.0565940     0.0000060
  C       -1.8793030     0.5348530    -0.0000030
  C       -0.1474190     2.4036860    -0.0000010
  C       -2.1785860    -0.8336660    -0.0000030
  C       -1.1267010    -1.7380260     0.0000010
  C        2.7107190    -0.6607300    -0.0000090
  H       -2.6789950     1.2736560    -0.0000080
  H       -1.0269000     3.0530270    -0.0000180
  H        0.4613570     2.6342930     0.8791020
  H        0.4613860     2.6342840    -0.8790860
  H       -3.2063890    -1.1841980    -0.0000050
  H       -1.3049600    -2.8116020     0.0000010
  H        2.6194040    -1.2894460    -0.8881130
  H        2.6194520    -1.2894310     0.8881110
  H        3.6618180    -0.1291010    -0.0000380
units angstrom
no_reorient  #important for SAPT in psi4, default
symmetry c1  #important for SAPT in psi4, default
}

set PROPERTIES_ORIGIN ["COM"]
properties('MP2/aug-cc-pvtz', properties = ['dipole'])
--------------------------------------------------------------------------

    Molecular point group: c1
  Charge       = 0
  Multiplicity = 1
  Basis Set: AUG-CC-PVTZ
    Blend: AUG-CC-PVTZ
  Basis Set: (AUG-CC-PVTZ AUX)
    Blend: AUG-CC-PVTZ-JKFIT

    Orbital Energies [Eh]
    ---------------------

    Doubly Occupied:

       1A    -20.591222     2A    -15.558954     3A    -11.329547
       4A    -11.283893     5A    -11.272989     6A    -11.251334
       7A    -11.237534     8A    -11.228621     9A    -11.221637
      10A     -1.400277    11A     -1.241897    12A     -1.097135
      13A     -1.034560    14A     -0.950760    15A     -0.936955
      16A     -0.834376    17A     -0.823575    18A     -0.713636
      19A     -0.685182    20A     -0.644372    21A     -0.643595
      22A     -0.599373    23A     -0.581341    24A     -0.574627
      25A     -0.554001    26A     -0.542166    27A     -0.535057
      28A     -0.530748    29A     -0.505128    30A     -0.484195
      31A     -0.420339    32A     -0.375446    33A     -0.313111

  @DF-RHF Final Energy:  -399.75505124772116

   => Energetics <=

    Nuclear Repulsion Energy =            434.5422606347875103
    One-Electron Energy =               -1404.5994600209198779
    Two-Electron Energy =                 570.3021481384113258
    Total Energy =                       -399.7550512477210987
  Basis Set: (AUG-CC-PVTZ AUX)
    Blend: AUG-CC-PVTZ-RI
    Molecular point group: c1

    Geometry (in Angstrom), charge = 0, multiplicity = 1:

       Center              X                  Y                   Z               Mass
    ------------   -----------------  -----------------  -----------------  -----------------
         O            1.699477279544     0.473810378672     0.000008380365    15.994914619570
         N            0.188538779544    -1.350326321328     0.000005480365    14.003074004430
         C           -0.539085220456     0.972212678672    -0.000000519635    12.000000000000
         C            0.440535779544    -0.044811321328     0.000005480365    12.000000000000
         C           -1.861984220456     0.546635678672    -0.000003519635    12.000000000000
         C           -0.130100220456     2.415468678672    -0.000001519635    12.000000000000
         C           -2.161267220456    -0.821883321328    -0.000003519635    12.000000000000
         C           -1.109382220456    -1.726243321328     0.000000480365    12.000000000000
         C            2.728037779544    -0.648947321328    -0.000009519635    12.000000000000
         H           -2.661676220456     1.285438678672    -0.000008519635     1.007825032230
         H           -1.009581220456     3.064809678672    -0.000018519635     1.007825032230
         H            0.478675779544     2.646075678672     0.879101480365     1.007825032230
         H            0.478704779544     2.646066678672    -0.879086519635     1.007825032230
         H           -3.189070220456    -1.172415321328    -0.000005519635     1.007825032230
         H           -1.287641220456    -2.799819321328     0.000000480365     1.007825032230
         H            2.636722779544    -1.277663321328    -0.888113519635     1.007825032230
         H            2.636770779544    -1.277648321328     0.888110480365     1.007825032230
         H            3.679136779544    -0.117318321328    -0.000038519635     1.007825032230

  Basis Set: AUG-CC-PVTZ
    Blend: AUG-CC-PVTZ
  Basis Set: (AUG-CC-PVTZ AUX)
    Blend: AUG-CC-PVTZ-JKFIT
	 Reference Energy          =    -399.7550512477211555 [Eh]
	 Singles Energy            =      -0.0000000000000000 [Eh]
	 Same-Spin Energy          =      -0.4247449201676242 [Eh]
	 Opposite-Spin Energy      =      -1.3399060098149436 [Eh]
	 Correlation Energy        =      -1.7646509299825679 [Eh]
	 Total Energy              =    -401.5197021777037207 [Eh]

	 ================> DF-SCS-MP2 Energies <==================
	-----------------------------------------------------------
	 SCS Same-Spin Scale       =       0.3333333333333333 [-]
	 SCS Opposite-Spin Scale   =       1.2000000000000000 [-]
	 SCS Same-Spin Energy      =      -0.1415816400558747 [Eh]
	 SCS Opposite-Spin Energy  =      -1.6078872117779321 [Eh]
	 SCS Correlation Energy    =      -1.7494688518338068 [Eh]
	 SCS Total Energy          =    -401.5045200995549521 [Eh]
	-----------------------------------------------------------

  Dipole Moment: [D]
     X:    -0.2790      Y:     0.4506      Z:    -0.0000     Total:     0.5300

*** Psi4 exiting successfully. Buy a developer a beer!
