                               Psi4 1.4a3.dev225

  ==> Input File <==

--------------------------------------------------------------------------
#psi4
#
memory 32 gb

molecule  {
0 1
  O        1.7152690     0.3729450     0.0000090
  N        0.1775830    -1.3848181     0.0000060
  C       -0.5564040     0.9604300     0.0000000
  C        0.4232170    -0.0565940     0.0000060
  C       -1.8793030     0.5348530    -0.0000030
  C       -0.1474190     2.4036860    -0.0000010
  C       -2.1785860    -0.8336660    -0.0000030
  C       -1.1267010    -1.7380260     0.0000010
  C        2.7107190    -0.6607300    -0.0000090
  H       -2.6789950     1.2736560    -0.0000080
  H       -1.0269000     3.0530270    -0.0000180
  H        0.4613570     2.6342930     0.8791020
  H        0.4613860     2.6342840    -0.8790860
  H       -3.2063890    -1.1841980    -0.0000050
  H       -1.3049600    -2.8116020     0.0000010
  H        2.6194040    -1.2894460    -0.8881130
  H        2.6194520    -1.2894310     0.8881110
  H        3.6618180    -0.1291010    -0.0000380
units angstrom
no_reorient  #important for SAPT in psi4, default
symmetry c1  #important for SAPT in psi4, default
}

set PROPERTIES_ORIGIN ["COM"]
properties('MP2/aug-cc-pvtz', properties = ['dipole'])
--------------------------------------------------------------------------

    Molecular point group: c1
  Charge       = 0
  Multiplicity = 1
  Basis Set: AUG-CC-PVTZ
    Blend: AUG-CC-PVTZ
  Basis Set: (AUG-CC-PVTZ AUX)
    Blend: AUG-CC-PVTZ-JKFIT

    Orbital Energies [Eh]
    ---------------------

    Doubly Occupied:

       1A    -20.588096     2A    -15.562012     3A    -11.334945
       4A    -11.274389     5A    -11.273860     6A    -11.255379
       7A    -11.242011     8A    -11.230068     9A    -11.224745
      10A     -1.415586    11A     -1.240139    12A     -1.100188
      13A     -1.038998    14A     -0.956211    15A     -0.934450
      16A     -0.835829    17A     -0.823877    18A     -0.719213
      19A     -0.687748    20A     -0.653665    21A     -0.647939
      22A     -0.602831    23A     -0.589663    24A     -0.576718
      25A     -0.560495    26A     -0.547562    27A     -0.528168
      28A     -0.527870    29A     -0.501432    30A     -0.477080
      31A     -0.425152    32A     -0.376413    33A     -0.314726

  @DF-RHF Final Energy:  -399.76378642113065

   => Energetics <=

    Nuclear Repulsion Energy =            434.7568925135621498
    One-Electron Energy =               -1404.9064432028092142
    Two-Electron Energy =                 570.3857642681164180
    Total Energy =                       -399.7637864211305896
  Basis Set: (AUG-CC-PVTZ AUX)
    Blend: AUG-CC-PVTZ-RI
    Molecular point group: c1

    Geometry (in Angstrom), charge = 0, multiplicity = 1:

       Center              X                  Y                   Z               Mass
    ------------   -----------------  -----------------  -----------------  -----------------
         O            1.727560484881     0.398889455306     0.000008467368    15.994914619570
         N            0.189874484881    -1.358873644694     0.000005467368    14.003074004430
         C           -0.544112515119     0.986374455306    -0.000000532632    12.000000000000
         C            0.435508484881    -0.030649544694     0.000005467368    12.000000000000
         C           -1.867011515119     0.560797455306    -0.000003532632    12.000000000000
         C           -0.135127515119     2.429630455306    -0.000001532632    12.000000000000
         C           -2.166294515119    -0.807721544694    -0.000003532632    12.000000000000
         C           -1.114409515119    -1.712081544694     0.000000467368    12.000000000000
         C            2.723010484881    -0.634785544694    -0.000009532632    12.000000000000
         H           -2.666703515119     1.299600455306    -0.000008532632     1.007825032230
         H           -1.014608515119     3.078971455306    -0.000018532632     1.007825032230
         H            0.473648484881     2.660237455306     0.879101467368     1.007825032230
         H            0.473677484881     2.660228455306    -0.879086532632     1.007825032230
         H           -3.194097515119    -1.158253544694    -0.000005532632     1.007825032230
         H           -1.292668515119    -2.785657544694     0.000000467368     1.007825032230
         H            2.631695484881    -1.263501544694    -0.888113532632     1.007825032230
         H            2.631743484881    -1.263486544694     0.888110467368     1.007825032230
         H            3.674109484881    -0.103156544694    -0.000038532632     1.007825032230

  Basis Set: AUG-CC-PVTZ
    Blend: AUG-CC-PVTZ
  Basis Set: (AUG-CC-PVTZ AUX)
    Blend: AUG-CC-PVTZ-JKFIT
	 Reference Energy          =    -399.7637864211306464 [Eh]
	 Singles Energy            =      -0.0000000000000000 [Eh]
	 Same-Spin Energy          =      -0.4239985893582343 [Eh]
	 Opposite-Spin Energy      =      -1.3373241101112538 [Eh]
	 Correlation Energy        =      -1.7613226994694882 [Eh]
	 Total Energy              =    -401.5251091206001206 [Eh]

	 ================> DF-SCS-MP2 Energies <==================
	-----------------------------------------------------------
	 SCS Same-Spin Scale       =       0.3333333333333333 [-]
	 SCS Opposite-Spin Scale   =       1.2000000000000000 [-]
	 SCS Same-Spin Energy      =      -0.1413328631194114 [Eh]
	 SCS Opposite-Spin Energy  =      -1.6047889321335045 [Eh]
	 SCS Correlation Energy    =      -1.7461217952529160 [Eh]
	 SCS Total Energy          =    -401.5099082163835646 [Eh]
	-----------------------------------------------------------

  Dipole Moment: [D]
     X:    -0.5129      Y:     0.7064      Z:    -0.0000     Total:     0.8730

*** Psi4 exiting successfully. Buy a developer a beer!
