                               Psi4 1.4a3.dev225

  ==> Input File <==

--------------------------------------------------------------------------
#psi4
#
memory 32 gb

molecule  {
0 1
  O        1.7152690     0.3729450     0.0000090
  N        0.1418357    -1.2724863     0.0000058
  C       -0.5564040     0.9604300     0.0000000
  C        0.4232170    -0.0565940     0.0000060
  C       -1.8793030     0.5348530    -0.0000030
  C       -0.1474190     2.4036860    -0.0000010
  C       -2.1785860    -0.8336660    -0.0000030
  C       -1.1267010    -1.7380260     0.0000010
  C        2.7107190    -0.6607300    -0.0000090
  H       -2.6789950     1.2736560    -0.0000080
  H       -1.0269000     3.0530270    -0.0000180
  H        0.4613570     2.6342930     0.8791020
  H        0.4613860     2.6342840    -0.8790860
  H       -3.2063890    -1.1841980    -0.0000050
  H       -1.3049600    -2.8116020     0.0000010
  H        2.6194040    -1.2894460    -0.8881130
  H        2.6194520    -1.2894310     0.8881110
  H        3.6618180    -0.1291010    -0.0000380
units angstrom
no_reorient  #important for SAPT in psi4, default
symmetry c1  #important for SAPT in psi4, default
}

set PROPERTIES_ORIGIN ["COM"]
properties('MP2/aug-cc-pvtz', properties = ['dipole'])
--------------------------------------------------------------------------

    Molecular point group: c1
  Charge       = 0
  Multiplicity = 1
  Basis Set: AUG-CC-PVTZ
    Blend: AUG-CC-PVTZ
  Basis Set: (AUG-CC-PVTZ AUX)
    Blend: AUG-CC-PVTZ-JKFIT

    Orbital Energies [Eh]
    ---------------------

    Doubly Occupied:

       1A    -20.581518     2A    -15.546477     3A    -11.319908
       4A    -11.274164     5A    -11.272683     6A    -11.250040
       7A    -11.241106     8A    -11.231686     9A    -11.222675
      10A     -1.414676    11A     -1.263186    12A     -1.097761
      13A     -1.045410    14A     -0.953521    15A     -0.939093
      16A     -0.838877    17A     -0.825041    18A     -0.723238
      19A     -0.691990    20A     -0.654462    21A     -0.649302
      22A     -0.607783    23A     -0.589341    24A     -0.576898
      25A     -0.558218    26A     -0.547372    27A     -0.536035
      28A     -0.527288    29A     -0.501883    30A     -0.474418
      31A     -0.410933    32A     -0.378967    33A     -0.317314

  @DF-RHF Final Energy:  -399.76258953624455

   => Energetics <=

    Nuclear Repulsion Energy =            437.6081855024476681
    One-Electron Energy =               -1410.6150220984206953
    Two-Electron Energy =                 573.2442470597285364
    Total Energy =                       -399.7625895362444908
  Basis Set: (AUG-CC-PVTZ AUX)
    Blend: AUG-CC-PVTZ-RI
    Molecular point group: c1

    Geometry (in Angstrom), charge = 0, multiplicity = 1:

       Center              X                  Y                   Z               Mass
    ------------   -----------------  -----------------  -----------------  -----------------
         O            1.731627914301     0.386108023755     0.000008490125    15.994914619570
         N            0.158194614301    -1.259323276245     0.000005290125    14.003074004430
         C           -0.540045085699     0.973593023755    -0.000000509875    12.000000000000
         C            0.439575914301    -0.043430976245     0.000005490125    12.000000000000
         C           -1.862944085699     0.548016023755    -0.000003509875    12.000000000000
         C           -0.131060085699     2.416849023755    -0.000001509875    12.000000000000
         C           -2.162227085699    -0.820502976245    -0.000003509875    12.000000000000
         C           -1.110342085699    -1.724862976245     0.000000490125    12.000000000000
         C            2.727077914301    -0.647566976245    -0.000009509875    12.000000000000
         H           -2.662636085699     1.286819023755    -0.000008509875     1.007825032230
         H           -1.010541085699     3.066190023755    -0.000018509875     1.007825032230
         H            0.477715914301     2.647456023755     0.879101490125     1.007825032230
         H            0.477744914301     2.647447023755    -0.879086509875     1.007825032230
         H           -3.190030085699    -1.171034976245    -0.000005509875     1.007825032230
         H           -1.288601085699    -2.798438976245     0.000000490125     1.007825032230
         H            2.635762914301    -1.276282976245    -0.888113509875     1.007825032230
         H            2.635810914301    -1.276267976245     0.888110490125     1.007825032230
         H            3.678176914301    -0.115937976245    -0.000038509875     1.007825032230

  Basis Set: AUG-CC-PVTZ
    Blend: AUG-CC-PVTZ
  Basis Set: (AUG-CC-PVTZ AUX)
    Blend: AUG-CC-PVTZ-JKFIT
	 Reference Energy          =    -399.7625895362445476 [Eh]
	 Singles Energy            =      -0.0000000000000000 [Eh]
	 Same-Spin Energy          =      -0.4229523468280127 [Eh]
	 Opposite-Spin Energy      =      -1.3345546008339038 [Eh]
	 Correlation Energy        =      -1.7575069476619165 [Eh]
	 Total Energy              =    -401.5200964839064568 [Eh]

	 ================> DF-SCS-MP2 Energies <==================
	-----------------------------------------------------------
	 SCS Same-Spin Scale       =       0.3333333333333333 [-]
	 SCS Opposite-Spin Scale   =       1.2000000000000000 [-]
	 SCS Same-Spin Energy      =      -0.1409841156093376 [Eh]
	 SCS Opposite-Spin Energy  =      -1.6014655210006845 [Eh]
	 SCS Correlation Energy    =      -1.7424496366100222 [Eh]
	 SCS Total Energy          =    -401.5050391728545947 [Eh]
	-----------------------------------------------------------

  Dipole Moment: [D]
     X:    -0.5799      Y:     0.4078      Z:    -0.0000     Total:     0.7090

*** Psi4 exiting successfully. Buy a developer a beer!
