                               Psi4 1.4a3.dev225

  ==> Input File <==

--------------------------------------------------------------------------
#psi4
#
memory 32 gb

molecule  {
0 1
  O        1.7152690     0.3729450     0.0000090
  N        0.1712200    -1.3621090     0.0000060
  C       -0.5564040     0.9604300     0.0000000
  C        0.4232170    -0.0565940     0.0000060
  C       -1.8793030     0.5348530    -0.0000030
  C       -0.1474190     2.4036860    -0.0000010
  C       -2.1785860    -0.8336660    -0.0000030
  C       -1.2227534    -1.7658457     0.0000006
  C        2.7107190    -0.6607300    -0.0000090
  H       -2.6789950     1.2736560    -0.0000080
  H       -1.0269000     3.0530270    -0.0000180
  H        0.4613570     2.6342930     0.8791020
  H        0.4613860     2.6342840    -0.8790860
  H       -3.2063890    -1.1841980    -0.0000050
  H       -1.3049600    -2.8116020     0.0000010
  H        2.6194040    -1.2894460    -0.8881130
  H        2.6194520    -1.2894310     0.8881110
  H        3.6618180    -0.1291010    -0.0000380
units angstrom
no_reorient  #important for SAPT in psi4, default
symmetry c1  #important for SAPT in psi4, default
}

set PROPERTIES_ORIGIN ["COM"]
properties('MP2/aug-cc-pvtz', properties = ['dipole'])
--------------------------------------------------------------------------

    Molecular point group: c1
  Charge       = 0
  Multiplicity = 1
  Basis Set: AUG-CC-PVTZ
    Blend: AUG-CC-PVTZ
  Basis Set: (AUG-CC-PVTZ AUX)
    Blend: AUG-CC-PVTZ-JKFIT

    Orbital Energies [Eh]
    ---------------------

    Doubly Occupied:

       1A    -20.586211     2A    -15.558562     3A    -11.330934
       4A    -11.272637     5A    -11.270061     6A    -11.255395
       7A    -11.246099     8A    -11.228531     9A    -11.225913
      10A     -1.413976    11A     -1.221220    12A     -1.094775
      13A     -1.049657    14A     -0.953429    15A     -0.940501
      16A     -0.839174    17A     -0.815840    18A     -0.721731
      19A     -0.683521    20A     -0.651926    21A     -0.650076
      22A     -0.601792    23A     -0.599133    24A     -0.577056
      25A     -0.561779    26A     -0.543423    27A     -0.528450
      28A     -0.523443    29A     -0.496419    30A     -0.474533
      31A     -0.421184    32A     -0.368108    33A     -0.325615

  @DF-RHF Final Energy:  -399.75301163859677

   => Energetics <=

    Nuclear Repulsion Energy =            434.0521381319139209
    One-Electron Energy =               -1403.5480979730950821
    Two-Electron Energy =                 569.7429482025843299
    Total Energy =                       -399.7530116385968313
  Basis Set: (AUG-CC-PVTZ AUX)
    Blend: AUG-CC-PVTZ-RI
    Molecular point group: c1

    Geometry (in Angstrom), charge = 0, multiplicity = 1:

       Center              X                  Y                   Z               Mass
    ------------   -----------------  -----------------  -----------------  -----------------
         O            1.737650241630     0.399018157640     0.000008506371    15.994914619570
         N            0.193601241630    -1.336035842360     0.000005506371    14.003074004430
         C           -0.534022758370     0.986503157640    -0.000000493629    12.000000000000
         C            0.445598241630    -0.030520842360     0.000005506371    12.000000000000
         C           -1.856921758370     0.560926157640    -0.000003493629    12.000000000000
         C           -0.125037758370     2.429759157640    -0.000001493629    12.000000000000
         C           -2.156204758370    -0.807592842360    -0.000003493629    12.000000000000
         C           -1.200372158370    -1.739772542360     0.000000106371    12.000000000000
         C            2.733100241630    -0.634656842360    -0.000009493629    12.000000000000
         H           -2.656613758370     1.299729157640    -0.000008493629     1.007825032230
         H           -1.004518758370     3.079100157640    -0.000018493629     1.007825032230
         H            0.483738241630     2.660366157640     0.879101506371     1.007825032230
         H            0.483767241630     2.660357157640    -0.879086493629     1.007825032230
         H           -3.184007758370    -1.158124842360    -0.000005493629     1.007825032230
         H           -1.282578758370    -2.785528842360     0.000000506371     1.007825032230
         H            2.641785241630    -1.263372842360    -0.888113493629     1.007825032230
         H            2.641833241630    -1.263357842360     0.888110506371     1.007825032230
         H            3.684199241630    -0.103027842360    -0.000038493629     1.007825032230

  Basis Set: AUG-CC-PVTZ
    Blend: AUG-CC-PVTZ
  Basis Set: (AUG-CC-PVTZ AUX)
    Blend: AUG-CC-PVTZ-JKFIT
	 Reference Energy          =    -399.7530116385967744 [Eh]
	 Singles Energy            =      -0.0000000000000000 [Eh]
	 Same-Spin Energy          =      -0.4235620100120780 [Eh]
	 Opposite-Spin Energy      =      -1.3385841116628807 [Eh]
	 Correlation Energy        =      -1.7621461216749588 [Eh]
	 Total Energy              =    -401.5151577602717339 [Eh]

	 ================> DF-SCS-MP2 Energies <==================
	-----------------------------------------------------------
	 SCS Same-Spin Scale       =       0.3333333333333333 [-]
	 SCS Opposite-Spin Scale   =       1.2000000000000000 [-]
	 SCS Same-Spin Energy      =      -0.1411873366706927 [Eh]
	 SCS Opposite-Spin Energy  =      -1.6063009339954568 [Eh]
	 SCS Correlation Energy    =      -1.7474882706661494 [Eh]
	 SCS Total Energy          =    -401.5004999092629419 [Eh]
	-----------------------------------------------------------

  Dipole Moment: [D]
     X:    -0.6414      Y:     0.6810      Z:    -0.0000     Total:     0.9355

*** Psi4 exiting successfully. Buy a developer a beer!
