                               Psi4 1.4a3.dev225

  ==> Input File <==

--------------------------------------------------------------------------
#psi4
#
memory 32 gb

molecule  {
0 1
  O        1.7152690     0.3729450     0.0000090
  N        0.1712200    -1.3621090     0.0000060
  C       -0.5893133     1.0516741    -0.0000001
  C        0.4232170    -0.0565940     0.0000060
  C       -1.8793030     0.5348530    -0.0000030
  C       -0.1474190     2.4036860    -0.0000010
  C       -2.1785860    -0.8336660    -0.0000030
  C       -1.1267010    -1.7380260     0.0000010
  C        2.7107190    -0.6607300    -0.0000090
  H       -2.6789950     1.2736560    -0.0000080
  H       -1.0269000     3.0530270    -0.0000180
  H        0.4613570     2.6342930     0.8791020
  H        0.4613860     2.6342840    -0.8790860
  H       -3.2063890    -1.1841980    -0.0000050
  H       -1.3049600    -2.8116020     0.0000010
  H        2.6194040    -1.2894460    -0.8881130
  H        2.6194520    -1.2894310     0.8881110
  H        3.6618180    -0.1291010    -0.0000380
units angstrom
no_reorient  #important for SAPT in psi4, default
symmetry c1  #important for SAPT in psi4, default
}

set PROPERTIES_ORIGIN ["COM"]
properties('MP2/aug-cc-pvtz', properties = ['dipole'])
--------------------------------------------------------------------------

    Molecular point group: c1
  Charge       = 0
  Multiplicity = 1
  Basis Set: AUG-CC-PVTZ
    Blend: AUG-CC-PVTZ
  Basis Set: (AUG-CC-PVTZ AUX)
    Blend: AUG-CC-PVTZ-JKFIT

    Orbital Energies [Eh]
    ---------------------

    Doubly Occupied:

       1A    -20.590222     2A    -15.558248     3A    -11.341820
       4A    -11.275027     5A    -11.272911     6A    -11.251853
       7A    -11.248851     8A    -11.228686     9A    -11.222655
      10A     -1.416757    11A     -1.241125    12A     -1.103854
      13A     -1.040148    14A     -0.962445    15A     -0.936787
      16A     -0.828113    17A     -0.818946    18A     -0.718847
      19A     -0.687853    20A     -0.653961    21A     -0.649630
      22A     -0.609095    23A     -0.591983    24A     -0.583719
      25A     -0.562816    26A     -0.538823    27A     -0.534776
      28A     -0.528087    29A     -0.506024    30A     -0.476943
      31A     -0.417680    32A     -0.377805    33A     -0.306876

  @DF-RHF Final Energy:  -399.75279463924426

   => Energetics <=

    Nuclear Repulsion Energy =            434.2682559404628364
    One-Electron Energy =               -1403.8753671575127555
    Two-Electron Energy =                 569.8543165778056618
    Total Energy =                       -399.7527946392442573
  Basis Set: (AUG-CC-PVTZ AUX)
    Blend: AUG-CC-PVTZ-RI
    Molecular point group: c1

    Geometry (in Angstrom), charge = 0, multiplicity = 1:

       Center              X                  Y                   Z               Mass
    ------------   -----------------  -----------------  -----------------  -----------------
         O            1.731493363713     0.387408634493     0.000008477119    15.994914619570
         N            0.187444363713    -1.347645365507     0.000005477119    14.003074004430
         C           -0.573088936287     1.066137734493    -0.000000622881    12.000000000000
         C            0.439441363713    -0.042130365507     0.000005477119    12.000000000000
         C           -1.863078636287     0.549316634493    -0.000003522881    12.000000000000
         C           -0.131194636287     2.418149634493    -0.000001522881    12.000000000000
         C           -2.162361636287    -0.819202365507    -0.000003522881    12.000000000000
         C           -1.110476636287    -1.723562365507     0.000000477119    12.000000000000
         C            2.726943363713    -0.646266365507    -0.000009522881    12.000000000000
         H           -2.662770636287     1.288119634493    -0.000008522881     1.007825032230
         H           -1.010675636287     3.067490634493    -0.000018522881     1.007825032230
         H            0.477581363713     2.648756634493     0.879101477119     1.007825032230
         H            0.477610363713     2.648747634493    -0.879086522881     1.007825032230
         H           -3.190164636287    -1.169734365507    -0.000005522881     1.007825032230
         H           -1.288735636287    -2.797138365507     0.000000477119     1.007825032230
         H            2.635628363713    -1.274982365507    -0.888113522881     1.007825032230
         H            2.635676363713    -1.274967365507     0.888110477119     1.007825032230
         H            3.678042363713    -0.114637365507    -0.000038522881     1.007825032230

  Basis Set: AUG-CC-PVTZ
    Blend: AUG-CC-PVTZ
  Basis Set: (AUG-CC-PVTZ AUX)
    Blend: AUG-CC-PVTZ-JKFIT
	 Reference Energy          =    -399.7527946392442573 [Eh]
	 Singles Energy            =      -0.0000000000000000 [Eh]
	 Same-Spin Energy          =      -0.4243706714370138 [Eh]
	 Opposite-Spin Energy      =      -1.3381048828603730 [Eh]
	 Correlation Energy        =      -1.7624755542973869 [Eh]
	 Total Energy              =    -401.5152701935416530 [Eh]

	 ================> DF-SCS-MP2 Energies <==================
	-----------------------------------------------------------
	 SCS Same-Spin Scale       =       0.3333333333333333 [-]
	 SCS Opposite-Spin Scale   =       1.2000000000000000 [-]
	 SCS Same-Spin Energy      =      -0.1414568904790046 [Eh]
	 SCS Opposite-Spin Energy  =      -1.6057258594324475 [Eh]
	 SCS Correlation Energy    =      -1.7471827499114521 [Eh]
	 SCS Total Energy          =    -401.4999773891557311 [Eh]
	-----------------------------------------------------------

  Dipole Moment: [D]
     X:    -0.3377      Y:     0.7866      Z:    -0.0000     Total:     0.8560

*** Psi4 exiting successfully. Buy a developer a beer!
