                               Psi4 1.4a3.dev225

  ==> Input File <==

--------------------------------------------------------------------------
#psi4
#
memory 32 gb

molecule  {
0 1
  O        1.7152690     0.3729450     0.0000090
  N        0.1712200    -1.3621090     0.0000060
  C       -0.5564040     0.9604300     0.0000000
  C        0.4232170    -0.0565940     0.0000060
  C       -1.8793030     0.5348530    -0.0000030
  C       -0.1474190     2.4036860    -0.0000010
  C       -2.1785860    -0.8336660    -0.0000030
  C       -1.1267010    -1.7380260     0.0000010
  C        2.7107190    -0.6607300    -0.0000090
  H       -2.6789950     1.2736560    -0.0000080
  H       -1.0269000     3.0530270    -0.0000180
  H        0.4613570     2.6342930     0.8791020
  H        0.3500766     2.5921232    -0.7183605
  H       -3.2063890    -1.1841980    -0.0000050
  H       -1.3049600    -2.8116020     0.0000010
  H        2.6194040    -1.2894460    -0.8881130
  H        2.6194520    -1.2894310     0.8881110
  H        3.6618180    -0.1291010    -0.0000380
units angstrom
no_reorient  #important for SAPT in psi4, default
symmetry c1  #important for SAPT in psi4, default
}

set PROPERTIES_ORIGIN ["COM"]
properties('MP2/aug-cc-pvtz', properties = ['dipole'])
--------------------------------------------------------------------------

    Molecular point group: c1
  Charge       = 0
  Multiplicity = 1
  Basis Set: AUG-CC-PVTZ
    Blend: AUG-CC-PVTZ
  Basis Set: (AUG-CC-PVTZ AUX)
    Blend: AUG-CC-PVTZ-JKFIT

    Orbital Energies [Eh]
    ---------------------

    Doubly Occupied:

       1A    -20.586880     2A    -15.558649     3A    -11.331761
       4A    -11.274086     5A    -11.273432     6A    -11.253606
       7A    -11.240703     8A    -11.229889     9A    -11.200189
      10A     -1.415414    11A     -1.244055    12A     -1.102031
      13A     -1.042941    14A     -0.969100    15A     -0.940087
      16A     -0.839205    17A     -0.826749    18A     -0.720671
      19A     -0.689405    20A     -0.655056    21A     -0.649505
      22A     -0.612165    23A     -0.601178    24A     -0.585497
      25A     -0.559629    26A     -0.548756    27A     -0.535006
      28A     -0.527718    29A     -0.503159    30A     -0.476508
      31A     -0.422351    32A     -0.376985    33A     -0.315642

  @DF-RHF Final Energy:  -399.73169082863973

   => Energetics <=

    Nuclear Repulsion Energy =            436.2963981107322411
    One-Electron Energy =               -1407.8401600576207784
    Two-Electron Energy =                 571.8120711182488094
    Total Energy =                       -399.7316908286396711
  Basis Set: (AUG-CC-PVTZ AUX)
    Blend: AUG-CC-PVTZ-RI
    Molecular point group: c1

    Geometry (in Angstrom), charge = 0, multiplicity = 1:

       Center              X                  Y                   Z               Mass
    ------------   -----------------  -----------------  -----------------  -----------------
         O            1.729196013878     0.396650810234    -0.001307736985    15.994914619570
         N            0.185147013878    -1.338403189766    -0.001310736985    14.003074004430
         C           -0.542476986122     0.984135810234    -0.001316736985    12.000000000000
         C            0.437144013878    -0.032888189766    -0.001310736985    12.000000000000
         C           -1.865375986122     0.558558810234    -0.001319736985    12.000000000000
         C           -0.133491986122     2.427391810234    -0.001317736985    12.000000000000
         C           -2.164658986122    -0.809960189766    -0.001319736985    12.000000000000
         C           -1.112773986122    -1.714320189766    -0.001315736985    12.000000000000
         C            2.724646013878    -0.637024189766    -0.001325736985    12.000000000000
         H           -2.665067986122     1.297361810234    -0.001324736985     1.007825032230
         H           -1.012972986122     3.076732810234    -0.001334736985     1.007825032230
         H            0.475284013878     2.657998810234     0.877785263015     1.007825032230
         H            0.364003613878     2.615829010234    -0.719677236985     1.007825032230
         H           -3.192461986122    -1.160492189766    -0.001321736985     1.007825032230
         H           -1.291032986122    -2.787896189766    -0.001315736985     1.007825032230
         H            2.633331013878    -1.265740189766    -0.889429736985     1.007825032230
         H            2.633379013878    -1.265725189766     0.886794263015     1.007825032230
         H            3.675745013878    -0.105395189766    -0.001354736985     1.007825032230

  Basis Set: AUG-CC-PVTZ
    Blend: AUG-CC-PVTZ
  Basis Set: (AUG-CC-PVTZ AUX)
    Blend: AUG-CC-PVTZ-JKFIT
	 Reference Energy          =    -399.7316908286397279 [Eh]
	 Singles Energy            =      -0.0000000000000000 [Eh]
	 Same-Spin Energy          =      -0.4238123471462714 [Eh]
	 Opposite-Spin Energy      =      -1.3359902703510946 [Eh]
	 Correlation Energy        =      -1.7598026174973660 [Eh]
	 Total Energy              =    -401.4914934461370990 [Eh]

	 ================> DF-SCS-MP2 Energies <==================
	-----------------------------------------------------------
	 SCS Same-Spin Scale       =       0.3333333333333333 [-]
	 SCS Opposite-Spin Scale   =       1.2000000000000000 [-]
	 SCS Same-Spin Energy      =      -0.1412707823820905 [Eh]
	 SCS Opposite-Spin Energy  =      -1.6031883244213134 [Eh]
	 SCS Correlation Energy    =      -1.7444591068034039 [Eh]
	 SCS Total Energy          =    -401.4761499354431180 [Eh]
	-----------------------------------------------------------

  Dipole Moment: [D]
     X:    -0.5112      Y:     0.6910      Z:    -0.0283     Total:     0.8601

*** Psi4 exiting successfully. Buy a developer a beer!
