                               Psi4 1.4a3.dev225

  ==> Input File <==

--------------------------------------------------------------------------
#psi4
#
memory 32 gb

molecule  {
0 1
  O        1.7152690     0.3729450     0.0000090
  N        0.1712200    -1.3621090     0.0000060
  C       -0.5299398     0.8671125     0.0000001
  C        0.4232170    -0.0565940     0.0000060
  C       -1.8793030     0.5348530    -0.0000030
  C       -0.1474190     2.4036860    -0.0000010
  C       -2.1785860    -0.8336660    -0.0000030
  C       -1.1267010    -1.7380260     0.0000010
  C        2.7107190    -0.6607300    -0.0000090
  H       -2.6789950     1.2736560    -0.0000080
  H       -1.0269000     3.0530270    -0.0000180
  H        0.4613570     2.6342930     0.8791020
  H        0.4613860     2.6342840    -0.8790860
  H       -3.2063890    -1.1841980    -0.0000050
  H       -1.3049600    -2.8116020     0.0000010
  H        2.6194040    -1.2894460    -0.8881130
  H        2.6194520    -1.2894310     0.8881110
  H        3.6618180    -0.1291010    -0.0000380
units angstrom
no_reorient  #important for SAPT in psi4, default
symmetry c1  #important for SAPT in psi4, default
}

set PROPERTIES_ORIGIN ["COM"]
properties('MP2/aug-cc-pvtz', properties = ['dipole'])
--------------------------------------------------------------------------

    Molecular point group: c1
  Charge       = 0
  Multiplicity = 1
  Basis Set: AUG-CC-PVTZ
    Blend: AUG-CC-PVTZ
  Basis Set: (AUG-CC-PVTZ AUX)
    Blend: AUG-CC-PVTZ-JKFIT

    Orbital Energies [Eh]
    ---------------------

    Doubly Occupied:

       1A    -20.583330     2A    -15.559434     3A    -11.319947
       4A    -11.274932     5A    -11.272867     6A    -11.257744
       7A    -11.234768     8A    -11.232395     9A    -11.225937
      10A     -1.413735    11A     -1.248845    12A     -1.098031
      13A     -1.043755    14A     -0.948497    15A     -0.932889
      16A     -0.851085    17A     -0.823119    18A     -0.721293
      19A     -0.690260    20A     -0.653695    21A     -0.649027
      22A     -0.602104    23A     -0.588535    24A     -0.571867
      25A     -0.563693    26A     -0.550037    27A     -0.530565
      28A     -0.517742    29A     -0.490837    30A     -0.476011
      31A     -0.422892    32A     -0.375682    33A     -0.324995

  @DF-RHF Final Energy:  -399.75549446685903

   => Energetics <=

    Nuclear Repulsion Energy =            436.4868284884651644
    One-Electron Energy =               -1408.3835584138153081
    Two-Electron Energy =                 572.1412354584911100
    Total Energy =                       -399.7554944668590906
  Basis Set: (AUG-CC-PVTZ AUX)
    Blend: AUG-CC-PVTZ-RI
    Molecular point group: c1

    Geometry (in Angstrom), charge = 0, multiplicity = 1:

       Center              X                  Y                   Z               Mass
    ------------   -----------------  -----------------  -----------------  -----------------
         O            1.725704047207     0.405404634681     0.000008457618    15.994914619570
         N            0.181655047207    -1.329649365319     0.000005457618    14.003074004430
         C           -0.519504752793     0.899572134681    -0.000000442382    12.000000000000
         C            0.433652047207    -0.024134365319     0.000005457618    12.000000000000
         C           -1.868867952793     0.567312634681    -0.000003542382    12.000000000000
         C           -0.136983952793     2.436145634681    -0.000001542382    12.000000000000
         C           -2.168150952793    -0.801206365319    -0.000003542382    12.000000000000
         C           -1.116265952793    -1.705566365319     0.000000457618    12.000000000000
         C            2.721154047207    -0.628270365319    -0.000009542382    12.000000000000
         H           -2.668559952793     1.306115634681    -0.000008542382     1.007825032230
         H           -1.016464952793     3.085486634681    -0.000018542382     1.007825032230
         H            0.471792047207     2.666752634681     0.879101457618     1.007825032230
         H            0.471821047207     2.666743634681    -0.879086542382     1.007825032230
         H           -3.195953952793    -1.151738365319    -0.000005542382     1.007825032230
         H           -1.294524952793    -2.779142365319     0.000000457618     1.007825032230
         H            2.629839047207    -1.256986365319    -0.888113542382     1.007825032230
         H            2.629887047207    -1.256971365319     0.888110457618     1.007825032230
         H            3.672253047207    -0.096641365319    -0.000038542382     1.007825032230

  Basis Set: AUG-CC-PVTZ
    Blend: AUG-CC-PVTZ
  Basis Set: (AUG-CC-PVTZ AUX)
    Blend: AUG-CC-PVTZ-JKFIT
	 Reference Energy          =    -399.7554944668590338 [Eh]
	 Singles Energy            =      -0.0000000000000000 [Eh]
	 Same-Spin Energy          =      -0.4236966280534425 [Eh]
	 Opposite-Spin Energy      =      -1.3365333254944529 [Eh]
	 Correlation Energy        =      -1.7602299535478956 [Eh]
	 Total Energy              =    -401.5157244204069116 [Eh]

	 ================> DF-SCS-MP2 Energies <==================
	-----------------------------------------------------------
	 SCS Same-Spin Scale       =       0.3333333333333333 [-]
	 SCS Opposite-Spin Scale   =       1.2000000000000000 [-]
	 SCS Same-Spin Energy      =      -0.1412322093511475 [Eh]
	 SCS Opposite-Spin Energy  =      -1.6038399905933434 [Eh]
	 SCS Correlation Energy    =      -1.7450721999444909 [Eh]
	 SCS Total Energy          =    -401.5005666668035360 [Eh]
	-----------------------------------------------------------

  Dipole Moment: [D]
     X:    -0.7180      Y:     0.5203      Z:    -0.0000     Total:     0.8867

*** Psi4 exiting successfully. Buy a developer a beer!
