                               Psi4 1.4a3.dev225

  ==> Input File <==

--------------------------------------------------------------------------
#psi4
#
memory 32 gb

molecule  {
0 1
  O        1.8287706     0.4713353     0.0000053
  N        0.1712200    -1.3621090     0.0000060
  C       -0.5564040     0.9604300     0.0000000
  C        0.4232170    -0.0565940     0.0000060
  C       -1.8793030     0.5348530    -0.0000030
  C       -0.1474190     2.4036860    -0.0000010
  C       -2.1785860    -0.8336660    -0.0000030
  C       -1.1267010    -1.7380260     0.0000010
  C        2.7107190    -0.6607300    -0.0000090
  H       -2.6789950     1.2736560    -0.0000080
  H       -1.0269000     3.0530270    -0.0000180
  H        0.4613570     2.6342930     0.8791020
  H        0.4613860     2.6342840    -0.8790860
  H       -3.2063890    -1.1841980    -0.0000050
  H       -1.3049600    -2.8116020     0.0000010
  H        2.6194040    -1.2894460    -0.8881130
  H        2.6194520    -1.2894310     0.8881110
  H        3.6618180    -0.1291010    -0.0000380
units angstrom
no_reorient  #important for SAPT in psi4, default
symmetry c1  #important for SAPT in psi4, default
}

set PROPERTIES_ORIGIN ["COM"]
properties('MP2/aug-cc-pvtz', properties = ['dipole'])
--------------------------------------------------------------------------

    Molecular point group: c1
  Charge       = 0
  Multiplicity = 1
  Basis Set: AUG-CC-PVTZ
    Blend: AUG-CC-PVTZ
  Basis Set: (AUG-CC-PVTZ AUX)
    Blend: AUG-CC-PVTZ-JKFIT

    Orbital Energies [Eh]
    ---------------------

    Doubly Occupied:

       1A    -20.585066     2A    -15.572846     3A    -11.339942
       4A    -11.280357     5A    -11.263351     6A    -11.259297
       7A    -11.250689     8A    -11.240217     9A    -11.225997
      10A     -1.369806    11A     -1.253795    12A     -1.104547
      13A     -1.044344    14A     -0.948021    15A     -0.924242
      16A     -0.838432    17A     -0.831151    18A     -0.710446
      19A     -0.684207    20A     -0.644542    21A     -0.635125
      22A     -0.603996    23A     -0.585841    24A     -0.577944
      25A     -0.558923    26A     -0.553265    27A     -0.530378
      28A     -0.527832    29A     -0.489542    30A     -0.465840
      31A     -0.429662    32A     -0.383097    33A     -0.327897

  @DF-RHF Final Energy:  -399.74239531807586

   => Energetics <=

    Nuclear Repulsion Energy =            431.6605898306672771
    One-Electron Energy =               -1398.7246957764075432
    Two-Electron Energy =                 567.3217106276644017
    Total Energy =                       -399.7423953180758645
  Basis Set: (AUG-CC-PVTZ AUX)
    Blend: AUG-CC-PVTZ-RI
    Molecular point group: c1

    Geometry (in Angstrom), charge = 0, multiplicity = 1:

       Center              X                  Y                   Z               Mass
    ------------   -----------------  -----------------  -----------------  -----------------
         O            1.827034546975     0.481908291616     0.000005248249    15.994914619570
         N            0.169483946975    -1.351536008384     0.000005948249    14.003074004430
         C           -0.558140053025     0.971002991616    -0.000000051751    12.000000000000
         C            0.421480946975    -0.046021008384     0.000005948249    12.000000000000
         C           -1.881039053025     0.545425991616    -0.000003051751    12.000000000000
         C           -0.149155053025     2.414258991616    -0.000001051751    12.000000000000
         C           -2.180322053025    -0.823093008384    -0.000003051751    12.000000000000
         C           -1.128437053025    -1.727453008384     0.000000948249    12.000000000000
         C            2.708982946975    -0.650157008384    -0.000009051751    12.000000000000
         H           -2.680731053025     1.284228991616    -0.000008051751     1.007825032230
         H           -1.028636053025     3.063599991616    -0.000018051751     1.007825032230
         H            0.459620946975     2.644865991616     0.879101948249     1.007825032230
         H            0.459649946975     2.644856991616    -0.879086051751     1.007825032230
         H           -3.208125053025    -1.173625008384    -0.000005051751     1.007825032230
         H           -1.306696053025    -2.801029008384     0.000000948249     1.007825032230
         H            2.617667946975    -1.278873008384    -0.888113051751     1.007825032230
         H            2.617715946975    -1.278858008384     0.888110948249     1.007825032230
         H            3.660081946975    -0.118528008384    -0.000038051751     1.007825032230

  Basis Set: AUG-CC-PVTZ
    Blend: AUG-CC-PVTZ
  Basis Set: (AUG-CC-PVTZ AUX)
    Blend: AUG-CC-PVTZ-JKFIT
	 Reference Energy          =    -399.7423953180758645 [Eh]
	 Singles Energy            =      -0.0000000000000000 [Eh]
	 Same-Spin Energy          =      -0.4256484675906003 [Eh]
	 Opposite-Spin Energy      =      -1.3424335053613849 [Eh]
	 Correlation Energy        =      -1.7680819729519852 [Eh]
	 Total Energy              =    -401.5104772910278257 [Eh]

	 ================> DF-SCS-MP2 Energies <==================
	-----------------------------------------------------------
	 SCS Same-Spin Scale       =       0.3333333333333333 [-]
	 SCS Opposite-Spin Scale   =       1.2000000000000000 [-]
	 SCS Same-Spin Energy      =      -0.1418828225302001 [Eh]
	 SCS Opposite-Spin Energy  =      -1.6109202064336618 [Eh]
	 SCS Correlation Energy    =      -1.7528030289638619 [Eh]
	 SCS Total Energy          =    -401.4951983470397181 [Eh]
	-----------------------------------------------------------

  Dipole Moment: [D]
     X:    -1.4415      Y:     0.4525      Z:    -0.0000     Total:     1.5108

*** Psi4 exiting successfully. Buy a developer a beer!
