                               Psi4 1.4a3.dev225

  ==> Input File <==

--------------------------------------------------------------------------
#psi4
#
memory 32 gb

molecule  {
0 1
  O        1.7152690     0.3729450     0.0000090
  N        0.1712200    -1.3621090     0.0000060
  C       -0.5564040     0.9604300     0.0000000
  C        0.4917747     0.0142183     0.0000062
  C       -1.8793030     0.5348530    -0.0000030
  C       -0.1474190     2.4036860    -0.0000010
  C       -2.1785860    -0.8336660    -0.0000030
  C       -1.1267010    -1.7380260     0.0000010
  C        2.7107190    -0.6607300    -0.0000090
  H       -2.6789950     1.2736560    -0.0000080
  H       -1.0269000     3.0530270    -0.0000180
  H        0.4613570     2.6342930     0.8791020
  H        0.4613860     2.6342840    -0.8790860
  H       -3.2063890    -1.1841980    -0.0000050
  H       -1.3049600    -2.8116020     0.0000010
  H        2.6194040    -1.2894460    -0.8881130
  H        2.6194520    -1.2894310     0.8881110
  H        3.6618180    -0.1291010    -0.0000380
units angstrom
no_reorient  #important for SAPT in psi4, default
symmetry c1  #important for SAPT in psi4, default
}

set PROPERTIES_ORIGIN ["COM"]
properties('MP2/aug-cc-pvtz', properties = ['dipole'])
--------------------------------------------------------------------------

    Molecular point group: c1
  Charge       = 0
  Multiplicity = 1
  Basis Set: AUG-CC-PVTZ
    Blend: AUG-CC-PVTZ
  Basis Set: (AUG-CC-PVTZ AUX)
    Blend: AUG-CC-PVTZ-JKFIT

    Orbital Energies [Eh]
    ---------------------

    Doubly Occupied:

       1A    -20.604728     2A    -15.554601     3A    -11.338037
       4A    -11.286133     5A    -11.269513     6A    -11.252181
       7A    -11.235171     8A    -11.222860     9A    -11.220585
      10A     -1.461552    11A     -1.218144    12A     -1.091834
      13A     -1.037672    14A     -0.971883    15A     -0.931695
      16A     -0.833205    17A     -0.817285    18A     -0.733156
      19A     -0.693676    20A     -0.674150    21A     -0.652767
      22A     -0.601916    23A     -0.592170    24A     -0.575582
      25A     -0.559507    26A     -0.540901    27A     -0.535503
      28A     -0.527657    29A     -0.504960    30A     -0.485141
      31A     -0.405529    32A     -0.367028    33A     -0.305238

  @DF-RHF Final Energy:  -399.75257820908951

   => Energetics <=

    Nuclear Repulsion Energy =            435.2378136084299172
    One-Electron Energy =               -1405.7768587778687106
    Two-Electron Energy =                 570.7864669603493439
    Total Energy =                       -399.7525782090895063
  Basis Set: (AUG-CC-PVTZ AUX)
    Blend: AUG-CC-PVTZ-RI
    Molecular point group: c1

    Geometry (in Angstrom), charge = 0, multiplicity = 1:

       Center              X                  Y                   Z               Mass
    ------------   -----------------  -----------------  -----------------  -----------------
         O            1.721599647191     0.389400872730     0.000008447867    15.994914619570
         N            0.177550647191    -1.345653127270     0.000005447867    14.003074004430
         C           -0.550073352809     0.976885872730    -0.000000552133    12.000000000000
         C            0.498105347191     0.030674172730     0.000005647867    12.000000000000
         C           -1.872972352809     0.551308872730    -0.000003552133    12.000000000000
         C           -0.141088352809     2.420141872730    -0.000001552133    12.000000000000
         C           -2.172255352809    -0.817210127270    -0.000003552133    12.000000000000
         C           -1.120370352809    -1.721570127270     0.000000447867    12.000000000000
         C            2.717049647191    -0.644274127270    -0.000009552133    12.000000000000
         H           -2.672664352809     1.290111872730    -0.000008552133     1.007825032230
         H           -1.020569352809     3.069482872730    -0.000018552133     1.007825032230
         H            0.467687647191     2.650748872730     0.879101447867     1.007825032230
         H            0.467716647191     2.650739872730    -0.879086552133     1.007825032230
         H           -3.200058352809    -1.167742127270    -0.000005552133     1.007825032230
         H           -1.298629352809    -2.795146127270     0.000000447867     1.007825032230
         H            2.625734647191    -1.272990127270    -0.888113552133     1.007825032230
         H            2.625782647191    -1.272975127270     0.888110447867     1.007825032230
         H            3.668148647191    -0.112645127270    -0.000038552133     1.007825032230

  Basis Set: AUG-CC-PVTZ
    Blend: AUG-CC-PVTZ
  Basis Set: (AUG-CC-PVTZ AUX)
    Blend: AUG-CC-PVTZ-JKFIT
	 Reference Energy          =    -399.7525782090895063 [Eh]
	 Singles Energy            =      -0.0000000000000000 [Eh]
	 Same-Spin Energy          =      -0.4244273362947557 [Eh]
	 Opposite-Spin Energy      =      -1.3371825423513264 [Eh]
	 Correlation Energy        =      -1.7616098786460821 [Eh]
	 Total Energy              =    -401.5141880877355902 [Eh]

	 ================> DF-SCS-MP2 Energies <==================
	-----------------------------------------------------------
	 SCS Same-Spin Scale       =       0.3333333333333333 [-]
	 SCS Opposite-Spin Scale   =       1.2000000000000000 [-]
	 SCS Same-Spin Energy      =      -0.1414757787649186 [Eh]
	 SCS Opposite-Spin Energy  =      -1.6046190508215916 [Eh]
	 SCS Correlation Energy    =      -1.7460948295865102 [Eh]
	 SCS Total Energy          =    -401.4986730386760314 [Eh]
	-----------------------------------------------------------

  Dipole Moment: [D]
     X:     0.2127      Y:     0.7454      Z:    -0.0000     Total:     0.7752

*** Psi4 exiting successfully. Buy a developer a beer!
