                               Psi4 1.4a3.dev225

  ==> Input File <==

--------------------------------------------------------------------------
#psi4
#
memory 32 gb

molecule  {
0 1
  O        1.7225687     0.3503302     0.0000090
  N        0.1712200    -1.3621090     0.0000060
  C       -0.5564040     0.9604300     0.0000000
  C        0.4232170    -0.0565940     0.0000060
  C       -1.8793030     0.5348530    -0.0000030
  C       -0.1474190     2.4036860    -0.0000010
  C       -2.1785860    -0.8336660    -0.0000030
  C       -1.1267010    -1.7380260     0.0000010
  C        2.7107190    -0.6607300    -0.0000090
  H       -2.6789950     1.2736560    -0.0000080
  H       -1.0269000     3.0530270    -0.0000180
  H        0.4613570     2.6342930     0.8791020
  H        0.4613860     2.6342840    -0.8790860
  H       -3.2063890    -1.1841980    -0.0000050
  H       -1.3049600    -2.8116020     0.0000010
  H        2.6194040    -1.2894460    -0.8881130
  H        2.6194520    -1.2894310     0.8881110
  H        3.6618180    -0.1291010    -0.0000380
units angstrom
no_reorient  #important for SAPT in psi4, default
symmetry c1  #important for SAPT in psi4, default
}

set PROPERTIES_ORIGIN ["COM"]
properties('MP2/aug-cc-pvtz', properties = ['dipole'])
--------------------------------------------------------------------------

    Molecular point group: c1
  Charge       = 0
  Multiplicity = 1
  Basis Set: AUG-CC-PVTZ
    Blend: AUG-CC-PVTZ
  Basis Set: (AUG-CC-PVTZ AUX)
    Blend: AUG-CC-PVTZ-JKFIT

    Orbital Energies [Eh]
    ---------------------

    Doubly Occupied:

       1A    -20.585531     2A    -15.558979     3A    -11.332943
       4A    -11.274065     5A    -11.271679     6A    -11.255096
       7A    -11.242993     8A    -11.230791     9A    -11.225064
      10A     -1.419780    11A     -1.245142    12A     -1.100279
      13A     -1.041719    14A     -0.957178    15A     -0.935064
      16A     -0.836273    17A     -0.825127    18A     -0.721563
      19A     -0.689430    20A     -0.656515    21A     -0.649423
      22A     -0.605675    23A     -0.591944    24A     -0.577362
      25A     -0.561878    26A     -0.548161    27A     -0.529172
      28A     -0.526594    29A     -0.499370    30A     -0.474174
      31A     -0.423366    32A     -0.377038    33A     -0.315859

  @DF-RHF Final Energy:  -399.76631861281510

   => Energetics <=

    Nuclear Repulsion Energy =            435.5422018543013110
    One-Electron Energy =               -1406.4465835337173303
    Two-Electron Energy =                 571.1380630666009210
    Total Energy =                       -399.7663186128150983
  Basis Set: (AUG-CC-PVTZ AUX)
    Blend: AUG-CC-PVTZ-RI
    Molecular point group: c1

    Geometry (in Angstrom), charge = 0, multiplicity = 1:

       Center              X                  Y                   Z               Mass
    ------------   -----------------  -----------------  -----------------  -----------------
         O            1.734635460133     0.376629942141     0.000008467368    15.994914619570
         N            0.183286760133    -1.335809257859     0.000005467368    14.003074004430
         C           -0.544337239867     0.986729742141    -0.000000532632    12.000000000000
         C            0.435283760133    -0.030294257859     0.000005467368    12.000000000000
         C           -1.867236239867     0.561152742141    -0.000003532632    12.000000000000
         C           -0.135352239867     2.429985742141    -0.000001532632    12.000000000000
         C           -2.166519239867    -0.807366257859    -0.000003532632    12.000000000000
         C           -1.114634239867    -1.711726257859     0.000000467368    12.000000000000
         C            2.722785760133    -0.634430257859    -0.000009532632    12.000000000000
         H           -2.666928239867     1.299955742141    -0.000008532632     1.007825032230
         H           -1.014833239867     3.079326742141    -0.000018532632     1.007825032230
         H            0.473423760133     2.660592742141     0.879101467368     1.007825032230
         H            0.473452760133     2.660583742141    -0.879086532632     1.007825032230
         H           -3.194322239867    -1.157898257859    -0.000005532632     1.007825032230
         H           -1.292893239867    -2.785302257859     0.000000467368     1.007825032230
         H            2.631470760133    -1.263146257859    -0.888113532632     1.007825032230
         H            2.631518760133    -1.263131257859     0.888110467368     1.007825032230
         H            3.673884760133    -0.102801257859    -0.000038532632     1.007825032230

  Basis Set: AUG-CC-PVTZ
    Blend: AUG-CC-PVTZ
  Basis Set: (AUG-CC-PVTZ AUX)
    Blend: AUG-CC-PVTZ-JKFIT
	 Reference Energy          =    -399.7663186128150983 [Eh]
	 Singles Energy            =      -0.0000000000000000 [Eh]
	 Same-Spin Energy          =      -0.4235959907797878 [Eh]
	 Opposite-Spin Energy      =      -1.3359859127662892 [Eh]
	 Correlation Energy        =      -1.7595819035460769 [Eh]
	 Total Energy              =    -401.5259005163611619 [Eh]

	 ================> DF-SCS-MP2 Energies <==================
	-----------------------------------------------------------
	 SCS Same-Spin Scale       =       0.3333333333333333 [-]
	 SCS Opposite-Spin Scale   =       1.2000000000000000 [-]
	 SCS Same-Spin Energy      =      -0.1411986635932626 [Eh]
	 SCS Opposite-Spin Energy  =      -1.6031830953195469 [Eh]
	 SCS Correlation Energy    =      -1.7443817589128094 [Eh]
	 SCS Total Energy          =    -401.5107003717279213 [Eh]
	-----------------------------------------------------------

  Dipole Moment: [D]
     X:    -0.5934      Y:     0.7094      Z:    -0.0000     Total:     0.9248

*** Psi4 exiting successfully. Buy a developer a beer!
