                               Psi4 1.4a3.dev225

  ==> Input File <==

--------------------------------------------------------------------------
#psi4
#
memory 32 gb

molecule  {
0 1
  O        1.7152690     0.3729450     0.0000090
  N        0.1712200    -1.3621090     0.0000060
  C       -0.5564040     0.9604300     0.0000000
  C        0.4232170    -0.0565940     0.0000060
  C       -1.9057672     0.6281705    -0.0000032
  C       -0.1474190     2.4036860    -0.0000010
  C       -2.1785860    -0.8336660    -0.0000030
  C       -1.1267010    -1.7380260     0.0000010
  C        2.7107190    -0.6607300    -0.0000090
  H       -2.6789950     1.2736560    -0.0000080
  H       -1.0269000     3.0530270    -0.0000180
  H        0.4613570     2.6342930     0.8791020
  H        0.4613860     2.6342840    -0.8790860
  H       -3.2063890    -1.1841980    -0.0000050
  H       -1.3049600    -2.8116020     0.0000010
  H        2.6194040    -1.2894460    -0.8881130
  H        2.6194520    -1.2894310     0.8881110
  H        3.6618180    -0.1291010    -0.0000380
units angstrom
no_reorient  #important for SAPT in psi4, default
symmetry c1  #important for SAPT in psi4, default
}

set PROPERTIES_ORIGIN ["COM"]
properties('MP2/aug-cc-pvtz', properties = ['dipole'])
--------------------------------------------------------------------------

    Molecular point group: c1
  Charge       = 0
  Multiplicity = 1
  Basis Set: AUG-CC-PVTZ
    Blend: AUG-CC-PVTZ
  Basis Set: (AUG-CC-PVTZ AUX)
    Blend: AUG-CC-PVTZ-JKFIT

    Orbital Energies [Eh]
    ---------------------

    Doubly Occupied:

       1A    -20.589054     2A    -15.558693     3A    -11.335359
       4A    -11.275131     5A    -11.271255     6A    -11.257214
       7A    -11.245577     8A    -11.237253     9A    -11.222933
      10A     -1.417115    11A     -1.241780    12A     -1.098302
      13A     -1.030969    14A     -0.955166    15A     -0.935838
      16A     -0.844696    17A     -0.821804    18A     -0.724466
      19A     -0.686454    20A     -0.654889    21A     -0.642178
      22A     -0.617652    23A     -0.589246    24A     -0.576279
      25A     -0.573976    26A     -0.549549    27A     -0.527662
      28A     -0.520939    29A     -0.491875    30A     -0.474710
      31A     -0.424128    32A     -0.370901    33A     -0.315453

  @DF-RHF Final Energy:  -399.75267197569929

   => Energetics <=

    Nuclear Repulsion Energy =            434.0798501035330332
    One-Electron Energy =               -1403.5080491017483837
    Two-Electron Energy =                 569.6755270225160075
    Total Energy =                       -399.7526719756992861
  Basis Set: (AUG-CC-PVTZ AUX)
    Blend: AUG-CC-PVTZ-RI
    Molecular point group: c1

    Geometry (in Angstrom), charge = 0, multiplicity = 1:

       Center              X                  Y                   Z               Mass
    ------------   -----------------  -----------------  -----------------  -----------------
         O            1.730864923014     0.387206464015     0.000008486870    15.994914619570
         N            0.186815923014    -1.347847535985     0.000005486870    14.003074004430
         C           -0.540808076986     0.974691464015    -0.000000513130    12.000000000000
         C            0.438812923014    -0.042332535985     0.000005486870    12.000000000000
         C           -1.890171276986     0.642431964015    -0.000003713130    12.000000000000
         C           -0.131823076986     2.417947464015    -0.000001513130    12.000000000000
         C           -2.162990076986    -0.819404535985    -0.000003513130    12.000000000000
         C           -1.111105076986    -1.723764535985     0.000000486870    12.000000000000
         C            2.726314923014    -0.646468535985    -0.000009513130    12.000000000000
         H           -2.663399076986     1.287917464015    -0.000008513130     1.007825032230
         H           -1.011304076986     3.067288464015    -0.000018513130     1.007825032230
         H            0.476952923014     2.648554464015     0.879101486870     1.007825032230
         H            0.476981923014     2.648545464015    -0.879086513130     1.007825032230
         H           -3.190793076986    -1.169936535985    -0.000005513130     1.007825032230
         H           -1.289364076986    -2.797340535985     0.000000486870     1.007825032230
         H            2.634999923014    -1.275184535985    -0.888113513130     1.007825032230
         H            2.635047923014    -1.275169535985     0.888110486870     1.007825032230
         H            3.677413923014    -0.114839535985    -0.000038513130     1.007825032230

  Basis Set: AUG-CC-PVTZ
    Blend: AUG-CC-PVTZ
  Basis Set: (AUG-CC-PVTZ AUX)
    Blend: AUG-CC-PVTZ-JKFIT
	 Reference Energy          =    -399.7526719756992861 [Eh]
	 Singles Energy            =      -0.0000000000000000 [Eh]
	 Same-Spin Energy          =      -0.4235043879752421 [Eh]
	 Opposite-Spin Energy      =      -1.3375928492211626 [Eh]
	 Correlation Energy        =      -1.7610972371964047 [Eh]
	 Total Energy              =    -401.5137692128956814 [Eh]

	 ================> DF-SCS-MP2 Energies <==================
	-----------------------------------------------------------
	 SCS Same-Spin Scale       =       0.3333333333333333 [-]
	 SCS Opposite-Spin Scale   =       1.2000000000000000 [-]
	 SCS Same-Spin Energy      =      -0.1411681293250807 [Eh]
	 SCS Opposite-Spin Energy  =      -1.6051114190653950 [Eh]
	 SCS Correlation Energy    =      -1.7462795483904756 [Eh]
	 SCS Total Energy          =    -401.4989515240897617 [Eh]
	-----------------------------------------------------------

  Dipole Moment: [D]
     X:    -0.5046      Y:     0.6945      Z:    -0.0000     Total:     0.8585

*** Psi4 exiting successfully. Buy a developer a beer!
