                               Psi4 1.4a3.dev225

  ==> Input File <==

--------------------------------------------------------------------------
#psi4
#
memory 32 gb

molecule  {
0 1
  O        1.6455883     0.3009879     0.0000114
  N        0.1712200    -1.3621090     0.0000060
  C       -0.5564040     0.9604300     0.0000000
  C        0.4232170    -0.0565940     0.0000060
  C       -1.8793030     0.5348530    -0.0000030
  C       -0.1474190     2.4036860    -0.0000010
  C       -2.1785860    -0.8336660    -0.0000030
  C       -1.1267010    -1.7380260     0.0000010
  C        2.7107190    -0.6607300    -0.0000090
  H       -2.6789950     1.2736560    -0.0000080
  H       -1.0269000     3.0530270    -0.0000180
  H        0.4613570     2.6342930     0.8791020
  H        0.4613860     2.6342840    -0.8790860
  H       -3.2063890    -1.1841980    -0.0000050
  H       -1.3049600    -2.8116020     0.0000010
  H        2.6194040    -1.2894460    -0.8881130
  H        2.6194520    -1.2894310     0.8881110
  H        3.6618180    -0.1291010    -0.0000380
units angstrom
no_reorient  #important for SAPT in psi4, default
symmetry c1  #important for SAPT in psi4, default
}

set PROPERTIES_ORIGIN ["COM"]
properties('MP2/aug-cc-pvtz', properties = ['dipole'])
--------------------------------------------------------------------------

    Molecular point group: c1
  Charge       = 0
  Multiplicity = 1
  Basis Set: AUG-CC-PVTZ
    Blend: AUG-CC-PVTZ
  Basis Set: (AUG-CC-PVTZ AUX)
    Blend: AUG-CC-PVTZ-JKFIT

    Orbital Energies [Eh]
    ---------------------

    Doubly Occupied:

       1A    -20.588713     2A    -15.547763     3A    -11.326473
       4A    -11.283671     5A    -11.268947     6A    -11.250654
       7A    -11.235029     8A    -11.223120     9A    -11.222362
      10A     -1.454443    11A     -1.237143    12A     -1.096225
      13A     -1.038982    14A     -0.970622    15A     -0.933962
      16A     -0.836352    17A     -0.820398    18A     -0.729662
      19A     -0.694162    20A     -0.670761    21A     -0.648262
      22A     -0.607454    23A     -0.590385    24A     -0.576227
      25A     -0.559701    26A     -0.544215    27A     -0.532571
      28A     -0.525817    29A     -0.501411    30A     -0.481007
      31A     -0.416750    32A     -0.372139    33A     -0.305634

  @DF-RHF Final Energy:  -399.76317543859375

   => Energetics <=

    Nuclear Repulsion Energy =            437.8649568505815068
    One-Electron Energy =               -1411.0742281880443443
    Two-Electron Energy =                 573.4460958988690891
    Total Energy =                       -399.7631754385937484
  Basis Set: (AUG-CC-PVTZ AUX)
    Blend: AUG-CC-PVTZ-RI
    Molecular point group: c1

    Geometry (in Angstrom), charge = 0, multiplicity = 1:

       Center              X                  Y                   Z               Mass
    ------------   -----------------  -----------------  -----------------  -----------------
         O            1.667660023114     0.333700545749     0.000010555446    15.994914619570
         N            0.193291723114    -1.329396354251     0.000005155446    14.003074004430
         C           -0.534332276886     0.993142645749    -0.000000844554    12.000000000000
         C            0.445288723114    -0.023881354251     0.000005155446    12.000000000000
         C           -1.857231276886     0.567565645749    -0.000003844554    12.000000000000
         C           -0.125347276886     2.436398645749    -0.000001844554    12.000000000000
         C           -2.156514276886    -0.800953354251    -0.000003844554    12.000000000000
         C           -1.104629276886    -1.705313354251     0.000000155446    12.000000000000
         C            2.732790723114    -0.628017354251    -0.000009844554    12.000000000000
         H           -2.656923276886     1.306368645749    -0.000008844554     1.007825032230
         H           -1.004828276886     3.085739645749    -0.000018844554     1.007825032230
         H            0.483428723114     2.667005645749     0.879101155446     1.007825032230
         H            0.483457723114     2.666996645749    -0.879086844554     1.007825032230
         H           -3.184317276886    -1.151485354251    -0.000005844554     1.007825032230
         H           -1.282888276886    -2.778889354251     0.000000155446     1.007825032230
         H            2.641475723114    -1.256733354251    -0.888113844554     1.007825032230
         H            2.641523723114    -1.256718354251     0.888110155446     1.007825032230
         H            3.683889723114    -0.096388354251    -0.000038844554     1.007825032230

  Basis Set: AUG-CC-PVTZ
    Blend: AUG-CC-PVTZ
  Basis Set: (AUG-CC-PVTZ AUX)
    Blend: AUG-CC-PVTZ-JKFIT
	 Reference Energy          =    -399.7631754385937484 [Eh]
	 Singles Energy            =      -0.0000000000000000 [Eh]
	 Same-Spin Energy          =      -0.4228819934067199 [Eh]
	 Opposite-Spin Energy      =      -1.3338166587240099 [Eh]
	 Correlation Energy        =      -1.7566986521307300 [Eh]
	 Total Energy              =    -401.5198740907244996 [Eh]

	 ================> DF-SCS-MP2 Energies <==================
	-----------------------------------------------------------
	 SCS Same-Spin Scale       =       0.3333333333333333 [-]
	 SCS Opposite-Spin Scale   =       1.2000000000000000 [-]
	 SCS Same-Spin Energy      =      -0.1409606644689066 [Eh]
	 SCS Opposite-Spin Energy  =      -1.6005799904688118 [Eh]
	 SCS Correlation Energy    =      -1.7415406549377184 [Eh]
	 SCS Total Energy          =    -401.5047160935314423 [Eh]
	-----------------------------------------------------------

  Dipole Moment: [D]
     X:     0.1675      Y:     0.7995      Z:    -0.0000     Total:     0.8169

*** Psi4 exiting successfully. Buy a developer a beer!
