                               Psi4 1.4a3.dev225

  ==> Input File <==

--------------------------------------------------------------------------
#psi4
#
memory 32 gb

molecule  {
0 1
  O        1.7152690     0.3729450     0.0000090
  N        0.1712200    -1.3621090     0.0000060
  C       -0.5564040     0.9604300     0.0000000
  C        0.4232170    -0.0565940     0.0000060
  C       -1.8793030     0.5348530    -0.0000030
  C       -0.1474190     2.4036860    -0.0000010
  C       -2.1358576    -0.6382836    -0.0000030
  C       -1.1267010    -1.7380260     0.0000010
  C        2.7107190    -0.6607300    -0.0000090
  H       -2.6789950     1.2736560    -0.0000080
  H       -1.0269000     3.0530270    -0.0000180
  H        0.4613570     2.6342930     0.8791020
  H        0.4613860     2.6342840    -0.8790860
  H       -3.2063890    -1.1841980    -0.0000050
  H       -1.3049600    -2.8116020     0.0000010
  H        2.6194040    -1.2894460    -0.8881130
  H        2.6194520    -1.2894310     0.8881110
  H        3.6618180    -0.1291010    -0.0000380
units angstrom
no_reorient  #important for SAPT in psi4, default
symmetry c1  #important for SAPT in psi4, default
}

set PROPERTIES_ORIGIN ["COM"]
properties('MP2/aug-cc-pvtz', properties = ['dipole'])
--------------------------------------------------------------------------

    Molecular point group: c1
  Charge       = 0
  Multiplicity = 1
  Basis Set: AUG-CC-PVTZ
    Blend: AUG-CC-PVTZ
  Basis Set: (AUG-CC-PVTZ AUX)
    Blend: AUG-CC-PVTZ-JKFIT

    Orbital Energies [Eh]
    ---------------------

    Doubly Occupied:

       1A    -20.580568     2A    -15.566830     3A    -11.322734
       4A    -11.291923     5A    -11.272027     6A    -11.236184
       7A    -11.231065     8A    -11.224437     9A    -11.221014
      10A     -1.410361    11A     -1.249624    12A     -1.127124
      13A     -1.042568    14A     -0.956282    15A     -0.927078
      16A     -0.845184    17A     -0.810144    18A     -0.722877
      19A     -0.695349    20A     -0.650997    21A     -0.641785
      22A     -0.605732    23A     -0.592521    24A     -0.576271
      25A     -0.557351    26A     -0.542079    27A     -0.530740
      28A     -0.519407    29A     -0.495580    30A     -0.480264
      31A     -0.411365    32A     -0.405337    33A     -0.300013

  @DF-RHF Final Energy:  -399.70008421025580

   => Energetics <=

    Nuclear Repulsion Energy =            437.7200566207831685
    One-Electron Energy =               -1410.7546520331493412
    Two-Electron Energy =                 573.3345112021103205
    Total Energy =                       -399.7000842102557954
  Basis Set: (AUG-CC-PVTZ AUX)
    Blend: AUG-CC-PVTZ-RI
    Molecular point group: c1

    Geometry (in Angstrom), charge = 0, multiplicity = 1:

       Center              X                  Y                   Z               Mass
    ------------   -----------------  -----------------  -----------------  -----------------
         O            1.724118178065     0.377254448213     0.000008467368    15.994914619570
         N            0.180069178065    -1.357799551787     0.000005467368    14.003074004430
         C           -0.547554821935     0.964739448213    -0.000000532632    12.000000000000
         C            0.432066178065    -0.052284551787     0.000005467368    12.000000000000
         C           -1.870453821935     0.539162448213    -0.000003532632    12.000000000000
         C           -0.138569821935     2.407995448213    -0.000001532632    12.000000000000
         C           -2.127008421935    -0.633974151787    -0.000003532632    12.000000000000
         C           -1.117851821935    -1.733716551787     0.000000467368    12.000000000000
         C            2.719568178065    -0.656420551787    -0.000009532632    12.000000000000
         H           -2.670145821935     1.277965448213    -0.000008532632     1.007825032230
         H           -1.018050821935     3.057336448213    -0.000018532632     1.007825032230
         H            0.470206178065     2.638602448213     0.879101467368     1.007825032230
         H            0.470235178065     2.638593448213    -0.879086532632     1.007825032230
         H           -3.197539821935    -1.179888551787    -0.000005532632     1.007825032230
         H           -1.296110821935    -2.807292551787     0.000000467368     1.007825032230
         H            2.628253178065    -1.285136551787    -0.888113532632     1.007825032230
         H            2.628301178065    -1.285121551787     0.888110467368     1.007825032230
         H            3.670667178065    -0.124791551787    -0.000038532632     1.007825032230

  Basis Set: AUG-CC-PVTZ
    Blend: AUG-CC-PVTZ
  Basis Set: (AUG-CC-PVTZ AUX)
    Blend: AUG-CC-PVTZ-JKFIT
	 Reference Energy          =    -399.7000842102557954 [Eh]
	 Singles Energy            =      -0.0000000000000000 [Eh]
	 Same-Spin Energy          =      -0.4253902517347493 [Eh]
	 Opposite-Spin Energy      =      -1.3398309396990205 [Eh]
	 Correlation Energy        =      -1.7652211914337697 [Eh]
	 Total Energy              =    -401.4653054016895908 [Eh]

	 ================> DF-SCS-MP2 Energies <==================
	-----------------------------------------------------------
	 SCS Same-Spin Scale       =       0.3333333333333333 [-]
	 SCS Opposite-Spin Scale   =       1.2000000000000000 [-]
	 SCS Same-Spin Energy      =      -0.1417967505782498 [Eh]
	 SCS Opposite-Spin Energy  =      -1.6077971276388245 [Eh]
	 SCS Correlation Energy    =      -1.7495938782170743 [Eh]
	 SCS Total Energy          =    -401.4496780884728651 [Eh]
	-----------------------------------------------------------

  Dipole Moment: [D]
     X:    -0.5625      Y:     0.4684      Z:    -0.0000     Total:     0.7320

*** Psi4 exiting successfully. Buy a developer a beer!
