                               Psi4 1.4a3.dev225

  ==> Input File <==

--------------------------------------------------------------------------
#psi4
#
memory 32 gb

molecule  {
0 1
  O        1.7152690     0.3729450     0.0000090
  N        0.1712200    -1.3621090     0.0000060
  C       -0.5564040     0.9604300     0.0000000
  C        0.4232170    -0.0565940     0.0000060
  C       -1.8793030     0.5348530    -0.0000030
  C       -0.1474190     2.4036860    -0.0000010
  C       -2.1785860    -0.8336660    -0.0000030
  C       -1.1267010    -1.7380260     0.0000010
  C        2.7107190    -0.6607300    -0.0000090
  H       -2.6789950     1.2736560    -0.0000080
  H       -1.0269000     3.0530270    -0.0000180
  H        0.4613570     2.6342930     0.8791020
  H        0.4502551     2.6300679    -0.8630135
  H       -3.2063890    -1.1841980    -0.0000050
  H       -1.3049600    -2.8116020     0.0000010
  H        2.6194040    -1.2894460    -0.8881130
  H        2.6194520    -1.2894310     0.8881110
  H        3.6618180    -0.1291010    -0.0000380
units angstrom
no_reorient  #important for SAPT in psi4, default
symmetry c1  #important for SAPT in psi4, default
}

set PROPERTIES_ORIGIN ["COM"]
properties('MP2/aug-cc-pvtz', properties = ['dipole'])
--------------------------------------------------------------------------

    Molecular point group: c1
  Charge       = 0
  Multiplicity = 1
  Basis Set: AUG-CC-PVTZ
    Blend: AUG-CC-PVTZ
  Basis Set: (AUG-CC-PVTZ AUX)
    Blend: AUG-CC-PVTZ-JKFIT

    Orbital Energies [Eh]
    ---------------------

    Doubly Occupied:

       1A    -20.586878     2A    -15.558920     3A    -11.332074
       4A    -11.274045     5A    -11.273781     6A    -11.254230
       7A    -11.241723     8A    -11.230278     9A    -11.221994
      10A     -1.415380    11A     -1.244351    12A     -1.099754
      13A     -1.040317    14A     -0.956442    15A     -0.935949
      16A     -0.835906    17A     -0.825204    18A     -0.719963
      19A     -0.688505    20A     -0.653808    21A     -0.648301
      22A     -0.603856    23A     -0.590246    24A     -0.578592
      25A     -0.560009    26A     -0.547676    27A     -0.530241
      28A     -0.528093    29A     -0.501766    30A     -0.476552
      31A     -0.422734    32A     -0.376740    33A     -0.315354

  @DF-RHF Final Energy:  -399.76566809745901

   => Energetics <=

    Nuclear Repulsion Energy =            435.4045001778995925
    One-Electron Energy =               -1406.2010097469151333
    Two-Electron Energy =                 571.0308414715566414
    Total Energy =                       -399.7656680974589563
  Basis Set: (AUG-CC-PVTZ AUX)
    Blend: AUG-CC-PVTZ-RI
    Molecular point group: c1

    Geometry (in Angstrom), charge = 0, multiplicity = 1:

       Center              X                  Y                   Z               Mass
    ------------   -----------------  -----------------  -----------------  -----------------
         O            1.728375637660     0.396340075601    -0.000123152658    15.994914619570
         N            0.184326637660    -1.338713924399    -0.000126152658    14.003074004430
         C           -0.543297362340     0.983825075601    -0.000132152658    12.000000000000
         C            0.436323637660    -0.033198924399    -0.000126152658    12.000000000000
         C           -1.866196362340     0.558248075601    -0.000135152658    12.000000000000
         C           -0.134312362340     2.427081075601    -0.000133152658    12.000000000000
         C           -2.165479362340    -0.810270924399    -0.000135152658    12.000000000000
         C           -1.113594362340    -1.714630924399    -0.000131152658    12.000000000000
         C            2.723825637660    -0.637334924399    -0.000141152658    12.000000000000
         H           -2.665888362340     1.297051075601    -0.000140152658     1.007825032230
         H           -1.013793362340     3.076422075601    -0.000150152658     1.007825032230
         H            0.474463637660     2.657688075601     0.878969847342     1.007825032230
         H            0.463361737660     2.653462975601    -0.863145652658     1.007825032230
         H           -3.193282362340    -1.160802924399    -0.000137152658     1.007825032230
         H           -1.291853362340    -2.788206924399    -0.000131152658     1.007825032230
         H            2.632510637660    -1.266050924399    -0.888245152658     1.007825032230
         H            2.632558637660    -1.266035924399     0.887978847342     1.007825032230
         H            3.674924637660    -0.105705924399    -0.000170152658     1.007825032230

  Basis Set: AUG-CC-PVTZ
    Blend: AUG-CC-PVTZ
  Basis Set: (AUG-CC-PVTZ AUX)
    Blend: AUG-CC-PVTZ-JKFIT
	 Reference Energy          =    -399.7656680974590131 [Eh]
	 Singles Energy            =      -0.0000000000000000 [Eh]
	 Same-Spin Energy          =      -0.4237614629708851 [Eh]
	 Opposite-Spin Energy      =      -1.3365354985024329 [Eh]
	 Correlation Energy        =      -1.7602969614733179 [Eh]
	 Total Energy              =    -401.5259650589323428 [Eh]

	 ================> DF-SCS-MP2 Energies <==================
	-----------------------------------------------------------
	 SCS Same-Spin Scale       =       0.3333333333333333 [-]
	 SCS Opposite-Spin Scale   =       1.2000000000000000 [-]
	 SCS Same-Spin Energy      =      -0.1412538209902950 [Eh]
	 SCS Opposite-Spin Energy  =      -1.6038425982029194 [Eh]
	 SCS Correlation Energy    =      -1.7450964191932143 [Eh]
	 SCS Total Energy          =    -401.5107645166522161 [Eh]
	-----------------------------------------------------------

  Dipole Moment: [D]
     X:    -0.5243      Y:     0.6591      Z:    -0.0047     Total:     0.8422

*** Psi4 exiting successfully. Buy a developer a beer!
