                               Psi4 1.4a3.dev225

  ==> Input File <==

--------------------------------------------------------------------------
#psi4
#
memory 32 gb

molecule  {
0 1
  O        1.7152690     0.3729450     0.0000090
  N        0.1712200    -1.3621090     0.0000060
  C       -0.5564040     0.9604300     0.0000000
  C        0.4232170    -0.0565940     0.0000060
  C       -1.8793030     0.5348530    -0.0000030
  C       -0.1610511     2.3555802    -0.0000010
  C       -2.1785860    -0.8336660    -0.0000030
  C       -1.1267010    -1.7380260     0.0000010
  C        2.7107190    -0.6607300    -0.0000090
  H       -2.6789950     1.2736560    -0.0000080
  H       -1.0269000     3.0530270    -0.0000180
  H        0.4613570     2.6342930     0.8791020
  H        0.4613860     2.6342840    -0.8790860
  H       -3.2063890    -1.1841980    -0.0000050
  H       -1.3049600    -2.8116020     0.0000010
  H        2.6194040    -1.2894460    -0.8881130
  H        2.6194520    -1.2894310     0.8881110
  H        3.6618180    -0.1291010    -0.0000380
units angstrom
no_reorient  #important for SAPT in psi4, default
symmetry c1  #important for SAPT in psi4, default
}

set PROPERTIES_ORIGIN ["COM"]
properties('MP2/aug-cc-pvtz', properties = ['dipole'])
--------------------------------------------------------------------------

    Molecular point group: c1
  Charge       = 0
  Multiplicity = 1
  Basis Set: AUG-CC-PVTZ
    Blend: AUG-CC-PVTZ
  Basis Set: (AUG-CC-PVTZ AUX)
    Blend: AUG-CC-PVTZ-JKFIT

    Orbital Energies [Eh]
    ---------------------

    Doubly Occupied:

       1A    -20.587301     2A    -15.559254     3A    -11.332429
       4A    -11.274261     5A    -11.274110     6A    -11.254475
       7A    -11.239783     8A    -11.230549     9A    -11.225779
      10A     -1.415838    11A     -1.244840    12A     -1.104655
      13A     -1.042368    14A     -0.956361    15A     -0.934982
      16A     -0.835314    17A     -0.824738    18A     -0.720355
      19A     -0.689751    20A     -0.654136    21A     -0.650608
      22A     -0.608345    23A     -0.592209    24A     -0.573765
      25A     -0.561030    26A     -0.544030    27A     -0.529959
      28A     -0.525542    29A     -0.499894    30A     -0.476819
      31A     -0.423621    32A     -0.376015    33A     -0.314614

  @DF-RHF Final Energy:  -399.76230449576849

   => Energetics <=

    Nuclear Repulsion Energy =            436.2168682148945322
    One-Electron Energy =               -1407.8028837568517702
    Two-Electron Energy =                 571.8237110461888051
    Total Energy =                       -399.7623044957684897
  Basis Set: (AUG-CC-PVTZ AUX)
    Blend: AUG-CC-PVTZ-RI
    Molecular point group: c1

    Geometry (in Angstrom), charge = 0, multiplicity = 1:

       Center              X                  Y                   Z               Mass
    ------------   -----------------  -----------------  -----------------  -----------------
         O            1.729613706759     0.400996189145     0.000008467368    15.994914619570
         N            0.185564706759    -1.334057810855     0.000005467368    14.003074004430
         C           -0.542059293241     0.988481189145    -0.000000532632    12.000000000000
         C            0.437561706759    -0.028542810855     0.000005467368    12.000000000000
         C           -1.864958293241     0.562904189145    -0.000003532632    12.000000000000
         C           -0.146706393241     2.383631389145    -0.000001532632    12.000000000000
         C           -2.164241293241    -0.805614810855    -0.000003532632    12.000000000000
         C           -1.112356293241    -1.709974810855     0.000000467368    12.000000000000
         C            2.725063706759    -0.632678810855    -0.000009532632    12.000000000000
         H           -2.664650293241     1.301707189145    -0.000008532632     1.007825032230
         H           -1.012555293241     3.081078189145    -0.000018532632     1.007825032230
         H            0.475701706759     2.662344189145     0.879101467368     1.007825032230
         H            0.475730706759     2.662335189145    -0.879086532632     1.007825032230
         H           -3.192044293241    -1.156146810855    -0.000005532632     1.007825032230
         H           -1.290615293241    -2.783550810855     0.000000467368     1.007825032230
         H            2.633748706759    -1.261394810855    -0.888113532632     1.007825032230
         H            2.633796706759    -1.261379810855     0.888110467368     1.007825032230
         H            3.676162706759    -0.101049810855    -0.000038532632     1.007825032230

  Basis Set: AUG-CC-PVTZ
    Blend: AUG-CC-PVTZ
  Basis Set: (AUG-CC-PVTZ AUX)
    Blend: AUG-CC-PVTZ-JKFIT
	 Reference Energy          =    -399.7623044957684897 [Eh]
	 Singles Energy            =      -0.0000000000000000 [Eh]
	 Same-Spin Energy          =      -0.4243394630102449 [Eh]
	 Opposite-Spin Energy      =      -1.3372120736331818 [Eh]
	 Correlation Energy        =      -1.7615515366434267 [Eh]
	 Total Energy              =    -401.5238560324119135 [Eh]

	 ================> DF-SCS-MP2 Energies <==================
	-----------------------------------------------------------
	 SCS Same-Spin Scale       =       0.3333333333333333 [-]
	 SCS Opposite-Spin Scale   =       1.2000000000000000 [-]
	 SCS Same-Spin Energy      =      -0.1414464876700816 [Eh]
	 SCS Opposite-Spin Energy  =      -1.6046544883598182 [Eh]
	 SCS Correlation Energy    =      -1.7461009760298998 [Eh]
	 SCS Total Energy          =    -401.5084054717983690 [Eh]
	-----------------------------------------------------------

  Dipole Moment: [D]
     X:    -0.5125      Y:     0.6537      Z:    -0.0000     Total:     0.8306

*** Psi4 exiting successfully. Buy a developer a beer!
