                               Psi4 1.4a3.dev225

  ==> Input File <==

--------------------------------------------------------------------------
#psi4
#
memory 32 gb

molecule  {
0 1
  O        1.7152690     0.3729450     0.0000090
  N        0.1712200    -1.3621090     0.0000060
  C       -0.5564040     0.9604300     0.0000000
  C        0.4232170    -0.0565940     0.0000060
  C       -1.8793030     0.5348530    -0.0000030
  C       -0.1474190     2.4036860    -0.0000010
  C       -2.1828588    -0.8532042    -0.0000030
  C       -1.1267010    -1.7380260     0.0000010
  C        2.7107190    -0.6607300    -0.0000090
  H       -2.6789950     1.2736560    -0.0000080
  H       -1.0269000     3.0530270    -0.0000180
  H        0.4613570     2.6342930     0.8791020
  H        0.4613860     2.6342840    -0.8790860
  H       -3.2063890    -1.1841980    -0.0000050
  H       -1.3049600    -2.8116020     0.0000010
  H        2.6194040    -1.2894460    -0.8881130
  H        2.6194520    -1.2894310     0.8881110
  H        3.6618180    -0.1291010    -0.0000380
units angstrom
no_reorient  #important for SAPT in psi4, default
symmetry c1  #important for SAPT in psi4, default
}

set PROPERTIES_ORIGIN ["COM"]
properties('MP2/aug-cc-pvtz', properties = ['dipole'])
--------------------------------------------------------------------------

    Molecular point group: c1
  Charge       = 0
  Multiplicity = 1
  Basis Set: AUG-CC-PVTZ
    Blend: AUG-CC-PVTZ
  Basis Set: (AUG-CC-PVTZ AUX)
    Blend: AUG-CC-PVTZ-JKFIT

    Orbital Energies [Eh]
    ---------------------

    Doubly Occupied:

       1A    -20.587540     2A    -15.558260     3A    -11.333076
       4A    -11.274259     5A    -11.272094     6A    -11.256508
       7A    -11.242417     8A    -11.230142     9A    -11.224682
      10A     -1.415905    11A     -1.243979    12A     -1.098215
      13A     -1.040126    14A     -0.955685    15A     -0.935955
      16A     -0.835208    17A     -0.825791    18A     -0.719648
      19A     -0.688050    20A     -0.654046    21A     -0.649877
      22A     -0.604784    23A     -0.588522    24A     -0.576822
      25A     -0.561275    26A     -0.547492    27A     -0.529385
      28A     -0.527146    29A     -0.501075    30A     -0.476507
      31A     -0.423194    32A     -0.374587    33A     -0.317098

  @DF-RHF Final Energy:  -399.76541482548640

   => Energetics <=

    Nuclear Repulsion Energy =            435.1111706496699298
    One-Electron Energy =               -1405.6144706140353264
    Two-Electron Energy =                 570.7378851388789371
    Total Energy =                       -399.7654148254864594
  Basis Set: (AUG-CC-PVTZ AUX)
    Blend: AUG-CC-PVTZ-RI
    Molecular point group: c1

    Geometry (in Angstrom), charge = 0, multiplicity = 1:

       Center              X                  Y                   Z               Mass
    ------------   -----------------  -----------------  -----------------  -----------------
         O            1.728701111915     0.398210655562     0.000008467368    15.994914619570
         N            0.184652111915    -1.336843344438     0.000005467368    14.003074004430
         C           -0.542971888085     0.985695655562    -0.000000532632    12.000000000000
         C            0.436649111915    -0.031328344438     0.000005467368    12.000000000000
         C           -1.865870888085     0.560118655562    -0.000003532632    12.000000000000
         C           -0.133986888085     2.428951655562    -0.000001532632    12.000000000000
         C           -2.169426688085    -0.827938544438    -0.000003532632    12.000000000000
         C           -1.113268888085    -1.712760344438     0.000000467368    12.000000000000
         C            2.724151111915    -0.635464344438    -0.000009532632    12.000000000000
         H           -2.665562888085     1.298921655562    -0.000008532632     1.007825032230
         H           -1.013467888085     3.078292655562    -0.000018532632     1.007825032230
         H            0.474789111915     2.659558655562     0.879101467368     1.007825032230
         H            0.474818111915     2.659549655562    -0.879086532632     1.007825032230
         H           -3.192956888085    -1.158932344438    -0.000005532632     1.007825032230
         H           -1.291527888085    -2.786336344438     0.000000467368     1.007825032230
         H            2.632836111915    -1.264180344438    -0.888113532632     1.007825032230
         H            2.632884111915    -1.264165344438     0.888110467368     1.007825032230
         H            3.675250111915    -0.103835344438    -0.000038532632     1.007825032230

  Basis Set: AUG-CC-PVTZ
    Blend: AUG-CC-PVTZ
  Basis Set: (AUG-CC-PVTZ AUX)
    Blend: AUG-CC-PVTZ-JKFIT
	 Reference Energy          =    -399.7654148254864026 [Eh]
	 Singles Energy            =      -0.0000000000000000 [Eh]
	 Same-Spin Energy          =      -0.4235383202568869 [Eh]
	 Opposite-Spin Energy      =      -1.3365377798971978 [Eh]
	 Correlation Energy        =      -1.7600761001540848 [Eh]
	 Total Energy              =    -401.5254909256404972 [Eh]

	 ================> DF-SCS-MP2 Energies <==================
	-----------------------------------------------------------
	 SCS Same-Spin Scale       =       0.3333333333333333 [-]
	 SCS Opposite-Spin Scale   =       1.2000000000000000 [-]
	 SCS Same-Spin Energy      =      -0.1411794400856290 [Eh]
	 SCS Opposite-Spin Energy  =      -1.6038453358766374 [Eh]
	 SCS Correlation Energy    =      -1.7450247759622664 [Eh]
	 SCS Total Energy          =    -401.5104396014486952 [Eh]
	-----------------------------------------------------------

  Dipole Moment: [D]
     X:    -0.5180      Y:     0.6736      Z:    -0.0000     Total:     0.8497

*** Psi4 exiting successfully. Buy a developer a beer!
