                               Psi4 1.4a3.dev225

  ==> Input File <==

--------------------------------------------------------------------------
#psi4
#
memory 32 gb

molecule  {
0 1
  O        1.7152690     0.3729450     0.0000090
  N        0.1712200    -1.3621090     0.0000060
  C       -0.5564040     0.9604300     0.0000000
  C        0.4232170    -0.0565940     0.0000060
  C       -1.8793030     0.5348530    -0.0000030
  C       -0.1474190     2.4036860    -0.0000010
  C       -2.1785860    -0.8336660    -0.0000030
  C       -1.1267010    -1.7380260     0.0000010
  C        2.7107190    -0.6607300    -0.0000090
  H       -2.6055433     1.2057970    -0.0000075
  H       -1.0269000     3.0530270    -0.0000180
  H        0.4613570     2.6342930     0.8791020
  H        0.4613860     2.6342840    -0.8790860
  H       -3.2063890    -1.1841980    -0.0000050
  H       -1.3049600    -2.8116020     0.0000010
  H        2.6194040    -1.2894460    -0.8881130
  H        2.6194520    -1.2894310     0.8881110
  H        3.6618180    -0.1291010    -0.0000380
units angstrom
no_reorient  #important for SAPT in psi4, default
symmetry c1  #important for SAPT in psi4, default
}

set PROPERTIES_ORIGIN ["COM"]
properties('MP2/aug-cc-pvtz', properties = ['dipole'])
--------------------------------------------------------------------------

    Molecular point group: c1
  Charge       = 0
  Multiplicity = 1
  Basis Set: AUG-CC-PVTZ
    Blend: AUG-CC-PVTZ
  Basis Set: (AUG-CC-PVTZ AUX)
    Blend: AUG-CC-PVTZ-JKFIT

    Orbital Energies [Eh]
    ---------------------

    Doubly Occupied:

       1A    -20.586529     2A    -15.558664     3A    -11.331456
       4A    -11.273803     5A    -11.273209     6A    -11.242678
       7A    -11.240894     8A    -11.229521     9A    -11.224502
      10A     -1.415028    11A     -1.243987    12A     -1.102021
      13A     -1.040333    14A     -0.955540    15A     -0.937127
      16A     -0.843650    17A     -0.825932    18A     -0.725380
      19A     -0.688715    20A     -0.653439    21A     -0.649087
      22A     -0.611259    23A     -0.589579    24A     -0.576619
      25A     -0.567272    26A     -0.548014    27A     -0.529075
      28A     -0.527821    29A     -0.501080    30A     -0.476194
      31A     -0.422941    32A     -0.376351    33A     -0.314792

  @DF-RHF Final Energy:  -399.75988033282721

   => Energetics <=

    Nuclear Repulsion Energy =            435.8651347948401735
    One-Electron Energy =               -1407.0850522329444630
    Two-Electron Energy =                 571.4600371052771379
    Total Energy =                       -399.7598803328271515
  Basis Set: (AUG-CC-PVTZ AUX)
    Blend: AUG-CC-PVTZ-RI
    Molecular point group: c1

    Geometry (in Angstrom), charge = 0, multiplicity = 1:

       Center              X                  Y                   Z               Mass
    ------------   -----------------  -----------------  -----------------  -----------------
         O            1.727682978521     0.396861256509     0.000008463274    15.994914619570
         N            0.183633978521    -1.338192743491     0.000005463274    14.003074004430
         C           -0.543990021479     0.984346256509    -0.000000536726    12.000000000000
         C            0.435630978521    -0.032677743491     0.000005463274    12.000000000000
         C           -1.866889021479     0.558769256509    -0.000003536726    12.000000000000
         C           -0.135005021479     2.427602256509    -0.000001536726    12.000000000000
         C           -2.166172021479    -0.809749743491    -0.000003536726    12.000000000000
         C           -1.114287021479    -1.714109743491     0.000000463274    12.000000000000
         C            2.723132978521    -0.636813743491    -0.000009536726    12.000000000000
         H           -2.593129321479     1.229713256509    -0.000008036726     1.007825032230
         H           -1.014486021479     3.076943256509    -0.000018536726     1.007825032230
         H            0.473770978521     2.658209256509     0.879101463274     1.007825032230
         H            0.473799978521     2.658200256509    -0.879086536726     1.007825032230
         H           -3.193975021479    -1.160281743491    -0.000005536726     1.007825032230
         H           -1.292546021479    -2.787685743491     0.000000463274     1.007825032230
         H            2.631817978521    -1.265529743491    -0.888113536726     1.007825032230
         H            2.631865978521    -1.265514743491     0.888110463274     1.007825032230
         H            3.674231978521    -0.105184743491    -0.000038536726     1.007825032230

  Basis Set: AUG-CC-PVTZ
    Blend: AUG-CC-PVTZ
  Basis Set: (AUG-CC-PVTZ AUX)
    Blend: AUG-CC-PVTZ-JKFIT
	 Reference Energy          =    -399.7598803328272083 [Eh]
	 Singles Energy            =      -0.0000000000000000 [Eh]
	 Same-Spin Energy          =      -0.4235975705307348 [Eh]
	 Opposite-Spin Energy      =      -1.3361458546280212 [Eh]
	 Correlation Energy        =      -1.7597434251587560 [Eh]
	 Total Energy              =    -401.5196237579859826 [Eh]

	 ================> DF-SCS-MP2 Energies <==================
	-----------------------------------------------------------
	 SCS Same-Spin Scale       =       0.3333333333333333 [-]
	 SCS Opposite-Spin Scale   =       1.2000000000000000 [-]
	 SCS Same-Spin Energy      =      -0.1411991901769116 [Eh]
	 SCS Opposite-Spin Energy  =      -1.6033750255536254 [Eh]
	 SCS Correlation Energy    =      -1.7445742157305371 [Eh]
	 SCS Total Energy          =    -401.5044545485577601 [Eh]
	-----------------------------------------------------------

  Dipole Moment: [D]
     X:    -0.5488      Y:     0.6776      Z:    -0.0000     Total:     0.8720

*** Psi4 exiting successfully. Buy a developer a beer!
