                               Psi4 1.4a3.dev225

  ==> Input File <==

--------------------------------------------------------------------------
#psi4
#
memory 32 gb

molecule  {
0 1
  O        1.6994912     0.4177753     0.0000089
  N        0.1712200    -1.3621090     0.0000060
  C       -0.5564040     0.9604300     0.0000000
  C        0.4232170    -0.0565940     0.0000060
  C       -1.8793030     0.5348530    -0.0000030
  C       -0.1474190     2.4036860    -0.0000010
  C       -2.1785860    -0.8336660    -0.0000030
  C       -1.1267010    -1.7380260     0.0000010
  C        2.7107190    -0.6607300    -0.0000090
  H       -2.6789950     1.2736560    -0.0000080
  H       -1.0269000     3.0530270    -0.0000180
  H        0.4613570     2.6342930     0.8791020
  H        0.4613860     2.6342840    -0.8790860
  H       -3.2063890    -1.1841980    -0.0000050
  H       -1.3049600    -2.8116020     0.0000010
  H        2.6194040    -1.2894460    -0.8881130
  H        2.6194520    -1.2894310     0.8881110
  H        3.6618180    -0.1291010    -0.0000380
units angstrom
no_reorient  #important for SAPT in psi4, default
symmetry c1  #important for SAPT in psi4, default
}

set PROPERTIES_ORIGIN ["COM"]
properties('MP2/aug-cc-pvtz', properties = ['dipole'])
--------------------------------------------------------------------------

    Molecular point group: c1
  Charge       = 0
  Multiplicity = 1
  Basis Set: AUG-CC-PVTZ
    Blend: AUG-CC-PVTZ
  Basis Set: (AUG-CC-PVTZ AUX)
    Blend: AUG-CC-PVTZ-JKFIT

    Orbital Energies [Eh]
    ---------------------

    Doubly Occupied:

       1A    -20.589278     2A    -15.558961     3A    -11.330732
       4A    -11.278902     5A    -11.273432     6A    -11.252841
       7A    -11.239676     8A    -11.229473     9A    -11.223009
      10A     -1.407350    11A     -1.243075    12A     -1.098408
      13A     -1.037270    14A     -0.952959    15A     -0.936160
      16A     -0.834882    17A     -0.824482    18A     -0.716726
      19A     -0.686732    20A     -0.648735    21A     -0.645920
      22A     -0.601166    23A     -0.585317    24A     -0.575518
      25A     -0.556260    26A     -0.545859    27A     -0.531630
      28A     -0.529968    29A     -0.504109    30A     -0.480777
      31A     -0.421617    32A     -0.376088    33A     -0.314253

  @DF-RHF Final Energy:  -399.76181052067540

   => Energetics <=

    Nuclear Repulsion Energy =            434.9051929486274162
    One-Electron Energy =               -1405.2708688580887610
    Two-Electron Energy =                 570.6038653887858345
    Total Energy =                       -399.7618105206754535
  Basis Set: (AUG-CC-PVTZ AUX)
    Blend: AUG-CC-PVTZ-RI
    Molecular point group: c1

    Geometry (in Angstrom), charge = 0, multiplicity = 1:

       Center              X                  Y                   Z               Mass
    ------------   -----------------  -----------------  -----------------  -----------------
         O            1.714557288965     0.435309359853     0.000008380365    15.994914619570
         N            0.186286088965    -1.344574940147     0.000005480365    14.003074004430
         C           -0.541337911035     0.977964059853    -0.000000519635    12.000000000000
         C            0.438283088965    -0.039059940147     0.000005480365    12.000000000000
         C           -1.864236911035     0.552387059853    -0.000003519635    12.000000000000
         C           -0.132352911035     2.421220059853    -0.000001519635    12.000000000000
         C           -2.163519911035    -0.816131940147    -0.000003519635    12.000000000000
         C           -1.111634911035    -1.720491940147     0.000000480365    12.000000000000
         C            2.725785088965    -0.643195940147    -0.000009519635    12.000000000000
         H           -2.663928911035     1.291190059853    -0.000008519635     1.007825032230
         H           -1.011833911035     3.070561059853    -0.000018519635     1.007825032230
         H            0.476423088965     2.651827059853     0.879101480365     1.007825032230
         H            0.476452088965     2.651818059853    -0.879086519635     1.007825032230
         H           -3.191322911035    -1.166663940147    -0.000005519635     1.007825032230
         H           -1.289893911035    -2.794067940147     0.000000480365     1.007825032230
         H            2.634470088965    -1.271911940147    -0.888113519635     1.007825032230
         H            2.634518088965    -1.271896940147     0.888110480365     1.007825032230
         H            3.676884088965    -0.111566940147    -0.000038519635     1.007825032230

  Basis Set: AUG-CC-PVTZ
    Blend: AUG-CC-PVTZ
  Basis Set: (AUG-CC-PVTZ AUX)
    Blend: AUG-CC-PVTZ-JKFIT
	 Reference Energy          =    -399.7618105206753967 [Eh]
	 Singles Energy            =      -0.0000000000000000 [Eh]
	 Same-Spin Energy          =      -0.4241963268163076 [Eh]
	 Opposite-Spin Energy      =      -1.3381676777894156 [Eh]
	 Correlation Energy        =      -1.7623640046057232 [Eh]
	 Total Energy              =    -401.5241745252811256 [Eh]

	 ================> DF-SCS-MP2 Energies <==================
	-----------------------------------------------------------
	 SCS Same-Spin Scale       =       0.3333333333333333 [-]
	 SCS Opposite-Spin Scale   =       1.2000000000000000 [-]
	 SCS Same-Spin Energy      =      -0.1413987756054359 [Eh]
	 SCS Opposite-Spin Energy  =      -1.6058012133472988 [Eh]
	 SCS Correlation Energy    =      -1.7471999889527345 [Eh]
	 SCS Total Energy          =    -401.5090105096281263 [Eh]
	-----------------------------------------------------------

  Dipole Moment: [D]
     X:    -0.4001      Y:     0.5476      Z:    -0.0000     Total:     0.6782

*** Psi4 exiting successfully. Buy a developer a beer!
