                               Psi4 1.4a3.dev225

  ==> Input File <==

--------------------------------------------------------------------------
#psi4
#
memory 32 gb

molecule  {
0 1
  O        1.7152690     0.3729450     0.0000090
  N        0.1712200    -1.3621090     0.0000060
  C       -0.5564040     0.9604300     0.0000000
  C        0.4232170    -0.0565940     0.0000060
  C       -1.8793030     0.5348530    -0.0000030
  C       -0.1474190     2.4036860    -0.0000010
  C       -2.1785860    -0.8336660    -0.0000030
  C       -1.1267010    -1.7380260     0.0000010
  C        2.7107190    -0.6607300    -0.0000090
  H       -2.5320916     1.1379379    -0.0000071
  H       -1.0269000     3.0530270    -0.0000180
  H        0.4613570     2.6342930     0.8791020
  H        0.4613860     2.6342840    -0.8790860
  H       -3.2063890    -1.1841980    -0.0000050
  H       -1.3049600    -2.8116020     0.0000010
  H        2.6194040    -1.2894460    -0.8881130
  H        2.6194520    -1.2894310     0.8881110
  H        3.6618180    -0.1291010    -0.0000380
units angstrom
no_reorient  #important for SAPT in psi4, default
symmetry c1  #important for SAPT in psi4, default
}

set PROPERTIES_ORIGIN ["COM"]
properties('MP2/aug-cc-pvtz', properties = ['dipole'])
--------------------------------------------------------------------------

    Molecular point group: c1
  Charge       = 0
  Multiplicity = 1
  Basis Set: AUG-CC-PVTZ
    Blend: AUG-CC-PVTZ
  Basis Set: (AUG-CC-PVTZ AUX)
    Blend: AUG-CC-PVTZ-JKFIT

    Orbital Energies [Eh]
    ---------------------

    Doubly Occupied:

       1A    -20.586289     2A    -15.558537     3A    -11.330953
       4A    -11.273651     5A    -11.272723     6A    -11.240791
       7A    -11.230670     8A    -11.228830     9A    -11.224664
      10A     -1.414793    11A     -1.243767    12A     -1.105930
      13A     -1.040934    14A     -0.955545    15A     -0.940229
      16A     -0.855313    17A     -0.826218    18A     -0.731752
      19A     -0.689129    20A     -0.653238    21A     -0.650383
      22A     -0.619062    23A     -0.589421    24A     -0.576625
      25A     -0.571683    26A     -0.548144    27A     -0.528892
      28A     -0.527635    29A     -0.500829    30A     -0.475959
      31A     -0.423128    32A     -0.376243    33A     -0.314383

  @DF-RHF Final Energy:  -399.73130188346119

   => Energetics <=

    Nuclear Repulsion Energy =            436.4896289649350365
    One-Electron Energy =               -1408.2291728357824923
    Two-Electron Energy =                 572.0082419873863273
    Total Energy =                       -399.7313018834611285
  Basis Set: (AUG-CC-PVTZ AUX)
    Blend: AUG-CC-PVTZ-RI
    Molecular point group: c1

    Geometry (in Angstrom), charge = 0, multiplicity = 1:

       Center              X                  Y                   Z               Mass
    ------------   -----------------  -----------------  -----------------  -----------------
         O            1.727081471932     0.397416964489     0.000008459998    15.994914619570
         N            0.183032471932    -1.337637035511     0.000005459998    14.003074004430
         C           -0.544591528068     0.984901964489    -0.000000540002    12.000000000000
         C            0.435029471932    -0.032122035511     0.000005459998    12.000000000000
         C           -1.867490528068     0.559324964489    -0.000003540002    12.000000000000
         C           -0.135606528068     2.428157964489    -0.000001540002    12.000000000000
         C           -2.166773528068    -0.809194035511    -0.000003540002    12.000000000000
         C           -1.114888528068    -1.713554035511     0.000000459998    12.000000000000
         C            2.722531471932    -0.636258035511    -0.000009540002    12.000000000000
         H           -2.520279128068     1.162409864489    -0.000007640002     1.007825032230
         H           -1.015087528068     3.077498964489    -0.000018540002     1.007825032230
         H            0.473169471932     2.658764964489     0.879101459998     1.007825032230
         H            0.473198471932     2.658755964489    -0.879086540002     1.007825032230
         H           -3.194576528068    -1.159726035511    -0.000005540002     1.007825032230
         H           -1.293147528068    -2.787130035511     0.000000459998     1.007825032230
         H            2.631216471932    -1.264974035511    -0.888113540002     1.007825032230
         H            2.631264471932    -1.264959035511     0.888110459998     1.007825032230
         H            3.673630471932    -0.104629035511    -0.000038540002     1.007825032230

  Basis Set: AUG-CC-PVTZ
    Blend: AUG-CC-PVTZ
  Basis Set: (AUG-CC-PVTZ AUX)
    Blend: AUG-CC-PVTZ-JKFIT
	 Reference Energy          =    -399.7313018834611853 [Eh]
	 Singles Energy            =      -0.0000000000000000 [Eh]
	 Same-Spin Energy          =      -0.4235479294773753 [Eh]
	 Opposite-Spin Energy      =      -1.3360939973872155 [Eh]
	 Correlation Energy        =      -1.7596419268645906 [Eh]
	 Total Energy              =    -401.4909438103258026 [Eh]

	 ================> DF-SCS-MP2 Energies <==================
	-----------------------------------------------------------
	 SCS Same-Spin Scale       =       0.3333333333333333 [-]
	 SCS Opposite-Spin Scale   =       1.2000000000000000 [-]
	 SCS Same-Spin Energy      =      -0.1411826431591251 [Eh]
	 SCS Opposite-Spin Energy  =      -1.6033127968646586 [Eh]
	 SCS Correlation Energy    =      -1.7444954400237835 [Eh]
	 SCS Total Energy          =    -401.4757973234849828 [Eh]
	-----------------------------------------------------------

  Dipole Moment: [D]
     X:    -0.5571      Y:     0.6916      Z:    -0.0000     Total:     0.8881

*** Psi4 exiting successfully. Buy a developer a beer!
