                               Psi4 1.4a3.dev225

  ==> Input File <==

--------------------------------------------------------------------------
#psi4
#
memory 32 gb

molecule  {
0 1
  O        1.7152690     0.3729450     0.0000090
  N        0.1712200    -1.3621090     0.0000060
  C       -0.5564040     0.9604300     0.0000000
  C        0.4232170    -0.0565940     0.0000060
  C       -1.8793030     0.5348530    -0.0000030
  C       -0.1474190     2.4036860    -0.0000010
  C       -2.1785860    -0.8336660    -0.0000030
  C       -1.1267010    -1.7380260     0.0000010
  C        2.7107190    -0.6607300    -0.0000090
  H       -2.6422692     1.2397265    -0.0000078
  H       -1.0269000     3.0530270    -0.0000180
  H        0.4613570     2.6342930     0.8791020
  H        0.4613860     2.6342840    -0.8790860
  H       -3.2063890    -1.1841980    -0.0000050
  H       -1.3049600    -2.8116020     0.0000010
  H        2.6194040    -1.2894460    -0.8881130
  H        2.6194520    -1.2894310     0.8881110
  H        3.6618180    -0.1291010    -0.0000380
units angstrom
no_reorient  #important for SAPT in psi4, default
symmetry c1  #important for SAPT in psi4, default
}

set PROPERTIES_ORIGIN ["COM"]
properties('MP2/aug-cc-pvtz', properties = ['dipole'])
--------------------------------------------------------------------------

    Molecular point group: c1
  Charge       = 0
  Multiplicity = 1
  Basis Set: AUG-CC-PVTZ
    Blend: AUG-CC-PVTZ
  Basis Set: (AUG-CC-PVTZ AUX)
    Blend: AUG-CC-PVTZ-JKFIT

    Orbital Energies [Eh]
    ---------------------

    Doubly Occupied:

       1A    -20.586693     2A    -15.558794     3A    -11.331776
       4A    -11.273912     5A    -11.273512     6A    -11.248478
       7A    -11.241434     8A    -11.229899     9A    -11.224434
      10A     -1.415191    11A     -1.244173    12A     -1.100678
      13A     -1.040204    14A     -0.955589    15A     -0.936128
      16A     -0.839149    17A     -0.825610    18A     -0.722503
      19A     -0.688570    20A     -0.653581    21A     -0.648616
      22A     -0.607361    23A     -0.589681    24A     -0.576645
      25A     -0.564047    26A     -0.547865    27A     -0.529211
      28A     -0.527944    29A     -0.501264    30A     -0.476363
      31A     -0.422868    32A     -0.376505    33A     -0.315048

  @DF-RHF Final Energy:  -399.76488781862395

   => Energetics <=

    Nuclear Repulsion Energy =            435.5830363297723125
    One-Electron Energy =               -1406.5483972950723910
    Two-Electron Energy =                 571.2004731466761314
    Total Energy =                       -399.7648878186239472
  Basis Set: (AUG-CC-PVTZ AUX)
    Blend: AUG-CC-PVTZ-RI
    Molecular point group: c1

    Geometry (in Angstrom), charge = 0, multiplicity = 1:

       Center              X                  Y                   Z               Mass
    ------------   -----------------  -----------------  -----------------  -----------------
         O            1.727983732225     0.396583402929     0.000008465731    15.994914619570
         N            0.183934732225    -1.338470597071     0.000005465731    14.003074004430
         C           -0.543689267775     0.984068402929    -0.000000534269    12.000000000000
         C            0.435931732225    -0.032955597071     0.000005465731    12.000000000000
         C           -1.866588267775     0.558491402929    -0.000003534269    12.000000000000
         C           -0.134704267775     2.427324402929    -0.000001534269    12.000000000000
         C           -2.165871267775    -0.810027597071    -0.000003534269    12.000000000000
         C           -1.113986267775    -1.714387597071     0.000000465731    12.000000000000
         C            2.723433732225    -0.637091597071    -0.000009534269    12.000000000000
         H           -2.629554467775     1.263364902929    -0.000008334269     1.007825032230
         H           -1.014185267775     3.076665402929    -0.000018534269     1.007825032230
         H            0.474071732225     2.657931402929     0.879101465731     1.007825032230
         H            0.474100732225     2.657922402929    -0.879086534269     1.007825032230
         H           -3.193674267775    -1.160559597071    -0.000005534269     1.007825032230
         H           -1.292245267775    -2.787963597071     0.000000465731     1.007825032230
         H            2.632118732225    -1.265807597071    -0.888113534269     1.007825032230
         H            2.632166732225    -1.265792597071     0.888110465731     1.007825032230
         H            3.674532732225    -0.105462597071    -0.000038534269     1.007825032230

  Basis Set: AUG-CC-PVTZ
    Blend: AUG-CC-PVTZ
  Basis Set: (AUG-CC-PVTZ AUX)
    Blend: AUG-CC-PVTZ-JKFIT
	 Reference Energy          =    -399.7648878186239472 [Eh]
	 Singles Energy            =      -0.0000000000000000 [Eh]
	 Same-Spin Energy          =      -0.4236685433099222 [Eh]
	 Opposite-Spin Energy      =      -1.3363450762531079 [Eh]
	 Correlation Energy        =      -1.7600136195630300 [Eh]
	 Total Energy              =    -401.5249014381869870 [Eh]

	 ================> DF-SCS-MP2 Energies <==================
	-----------------------------------------------------------
	 SCS Same-Spin Scale       =       0.3333333333333333 [-]
	 SCS Opposite-Spin Scale   =       1.2000000000000000 [-]
	 SCS Same-Spin Energy      =      -0.1412228477699741 [Eh]
	 SCS Opposite-Spin Energy  =      -1.6036140915037296 [Eh]
	 SCS Correlation Energy    =      -1.7448369392737035 [Eh]
	 SCS Total Energy          =    -401.5097247578976294 [Eh]
	-----------------------------------------------------------

  Dipole Moment: [D]
     X:    -0.5397      Y:     0.6668      Z:    -0.0000     Total:     0.8578

*** Psi4 exiting successfully. Buy a developer a beer!
