                               Psi4 1.4a3.dev225

  ==> Input File <==

--------------------------------------------------------------------------
#psi4
#
memory 32 gb

molecule  {
0 1
  O        1.7075757     0.3954290     0.0000090
  N        0.1712200    -1.3621090     0.0000060
  C       -0.5564040     0.9604300     0.0000000
  C        0.4232170    -0.0565940     0.0000060
  C       -1.8793030     0.5348530    -0.0000030
  C       -0.1474190     2.4036860    -0.0000010
  C       -2.1785860    -0.8336660    -0.0000030
  C       -1.1267010    -1.7380260     0.0000010
  C        2.7107190    -0.6607300    -0.0000090
  H       -2.6789950     1.2736560    -0.0000080
  H       -1.0269000     3.0530270    -0.0000180
  H        0.4613570     2.6342930     0.8791020
  H        0.4613860     2.6342840    -0.8790860
  H       -3.2063890    -1.1841980    -0.0000050
  H       -1.3049600    -2.8116020     0.0000010
  H        2.6194040    -1.2894460    -0.8881130
  H        2.6194520    -1.2894310     0.8881110
  H        3.6618180    -0.1291010    -0.0000380
units angstrom
no_reorient  #important for SAPT in psi4, default
symmetry c1  #important for SAPT in psi4, default
}

set PROPERTIES_ORIGIN ["COM"]
properties('MP2/aug-cc-pvtz', properties = ['dipole'])
--------------------------------------------------------------------------

    Molecular point group: c1
  Charge       = 0
  Multiplicity = 1
  Basis Set: AUG-CC-PVTZ
    Blend: AUG-CC-PVTZ
  Basis Set: (AUG-CC-PVTZ AUX)
    Blend: AUG-CC-PVTZ-JKFIT

    Orbital Energies [Eh]
    ---------------------

    Doubly Occupied:

       1A    -20.588137     2A    -15.558964     3A    -11.331407
       4A    -11.276454     5A    -11.273646     6A    -11.253593
       7A    -11.240768     8A    -11.229906     9A    -11.223692
      10A     -1.411244    11A     -1.243722    12A     -1.099036
      13A     -1.038698    14A     -0.954256    15A     -0.935770
      16A     -0.835244    17A     -0.824806    18A     -0.718318
      19A     -0.687576    20A     -0.651160    21A     -0.647089
      22A     -0.602352    23A     -0.587538    24A     -0.576074
      25A     -0.558132    26A     -0.546819    27A     -0.529780
      28A     -0.529643    29A     -0.503041    30A     -0.478769
      31A     -0.422220    32A     -0.376407    33A     -0.314804

  @DF-RHF Final Energy:  -399.76411787037165

   => Energetics <=

    Nuclear Repulsion Energy =            435.1053653963994066
    One-Electron Energy =               -1405.6408351960037635
    Two-Electron Energy =                 570.7713519292326509
    Total Energy =                       -399.7641178703717060
  Basis Set: (AUG-CC-PVTZ AUX)
    Blend: AUG-CC-PVTZ-RI
    Molecular point group: c1

    Geometry (in Angstrom), charge = 0, multiplicity = 1:

       Center              X                  Y                   Z               Mass
    ------------   -----------------  -----------------  -----------------  -----------------
         O            1.721591065362     0.415867356327     0.000008467368    15.994914619570
         N            0.185235365362    -1.341670643673     0.000005467368    14.003074004430
         C           -0.542388634638     0.980868356327    -0.000000532632    12.000000000000
         C            0.437232365362    -0.036155643673     0.000005467368    12.000000000000
         C           -1.865287634638     0.555291356327    -0.000003532632    12.000000000000
         C           -0.133403634638     2.424124356327    -0.000001532632    12.000000000000
         C           -2.164570634638    -0.813227643673    -0.000003532632    12.000000000000
         C           -1.112685634638    -1.717587643673     0.000000467368    12.000000000000
         C            2.724734365362    -0.640291643673    -0.000009532632    12.000000000000
         H           -2.664979634638     1.294094356327    -0.000008532632     1.007825032230
         H           -1.012884634638     3.073465356327    -0.000018532632     1.007825032230
         H            0.475372365362     2.654731356327     0.879101467368     1.007825032230
         H            0.475401365362     2.654722356327    -0.879086532632     1.007825032230
         H           -3.192373634638    -1.163759643673    -0.000005532632     1.007825032230
         H           -1.290944634638    -2.791163643673     0.000000467368     1.007825032230
         H            2.633419365362    -1.269007643673    -0.888113532632     1.007825032230
         H            2.633467365362    -1.268992643673     0.888110467368     1.007825032230
         H            3.675833365362    -0.108662643673    -0.000038532632     1.007825032230

  Basis Set: AUG-CC-PVTZ
    Blend: AUG-CC-PVTZ
  Basis Set: (AUG-CC-PVTZ AUX)
    Blend: AUG-CC-PVTZ-JKFIT
	 Reference Energy          =    -399.7641178703716491 [Eh]
	 Singles Energy            =      -0.0000000000000000 [Eh]
	 Same-Spin Energy          =      -0.4239656697210789 [Eh]
	 Opposite-Spin Energy      =      -1.3373814919875429 [Eh]
	 Correlation Energy        =      -1.7613471617086218 [Eh]
	 Total Energy              =    -401.5254650320802625 [Eh]

	 ================> DF-SCS-MP2 Energies <==================
	-----------------------------------------------------------
	 SCS Same-Spin Scale       =       0.3333333333333333 [-]
	 SCS Opposite-Spin Scale   =       1.2000000000000000 [-]
	 SCS Same-Spin Energy      =      -0.1413218899070263 [Eh]
	 SCS Opposite-Spin Energy  =      -1.6048577903850514 [Eh]
	 SCS Correlation Energy    =      -1.7461796802920777 [Eh]
	 SCS Total Energy          =    -401.5102975506637222 [Eh]
	-----------------------------------------------------------

  Dipole Moment: [D]
     X:    -0.4629      Y:     0.5994      Z:    -0.0000     Total:     0.7573

*** Psi4 exiting successfully. Buy a developer a beer!
