                               Psi4 1.4a3.dev225

  ==> Input File <==

--------------------------------------------------------------------------
#psi4
#
memory 32 gb

molecule  {
0 1
  O        1.7152690     0.3729450     0.0000090
  N        0.1712200    -1.3621090     0.0000060
  C       -0.5564040     0.9604300     0.0000000
  C        0.4232170    -0.0565940     0.0000060
  C       -1.8793030     0.5348530    -0.0000030
  C       -0.1474190     2.4036860    -0.0000010
  C       -2.1785860    -0.8336660    -0.0000030
  C       -1.1267010    -1.7380260     0.0000010
  C        2.7107190    -0.6607300    -0.0000090
  H       -2.7157208     1.3075855    -0.0000082
  H       -1.0269000     3.0530270    -0.0000180
  H        0.4613570     2.6342930     0.8791020
  H        0.4613860     2.6342840    -0.8790860
  H       -3.2063890    -1.1841980    -0.0000050
  H       -1.3049600    -2.8116020     0.0000010
  H        2.6194040    -1.2894460    -0.8881130
  H        2.6194520    -1.2894310     0.8881110
  H        3.6618180    -0.1291010    -0.0000380
units angstrom
no_reorient  #important for SAPT in psi4, default
symmetry c1  #important for SAPT in psi4, default
}

set PROPERTIES_ORIGIN ["COM"]
properties('MP2/aug-cc-pvtz', properties = ['dipole'])
--------------------------------------------------------------------------

    Molecular point group: c1
  Charge       = 0
  Multiplicity = 1
  Basis Set: AUG-CC-PVTZ
    Blend: AUG-CC-PVTZ
  Basis Set: (AUG-CC-PVTZ AUX)
    Blend: AUG-CC-PVTZ-JKFIT

    Orbital Energies [Eh]
    ---------------------

    Doubly Occupied:

       1A    -20.587111     2A    -15.559191     3A    -11.332554
       4A    -11.274244     5A    -11.274199     6A    -11.260044
       7A    -11.242373     8A    -11.230859     9A    -11.224333
      10A     -1.415610    11A     -1.244696    12A     -1.098914
      13A     -1.040250    14A     -0.955772    15A     -0.934896
      16A     -0.833383    17A     -0.824058    18A     -0.717708
      19A     -0.688429    20A     -0.653951    21A     -0.648001
      22A     -0.600863    23A     -0.589900    24A     -0.576761
      25A     -0.555653    26A     -0.546673    27A     -0.529571
      28A     -0.528123    29A     -0.501736    30A     -0.476803
      31A     -0.422735    32A     -0.377006    33A     -0.315668

  @DF-RHF Final Energy:  -399.76316675549657

   => Energetics <=

    Nuclear Repulsion Energy =            435.0674190436061508
    One-Electron Energy =               -1405.5370428728797378
    Two-Electron Energy =                 570.7064570737769600
    Total Energy =                       -399.7631667554966270
  Basis Set: (AUG-CC-PVTZ AUX)
    Blend: AUG-CC-PVTZ-RI
    Molecular point group: c1

    Geometry (in Angstrom), charge = 0, multiplicity = 1:

       Center              X                  Y                   Z               Mass
    ------------   -----------------  -----------------  -----------------  -----------------
         O            1.728585237996     0.396027695768     0.000008469006    15.994914619570
         N            0.184536237996    -1.339026304232     0.000005469006    14.003074004430
         C           -0.543087762004     0.983512695768    -0.000000530994    12.000000000000
         C            0.436533237996    -0.033511304232     0.000005469006    12.000000000000
         C           -1.865986762004     0.557935695768    -0.000003530994    12.000000000000
         C           -0.134102762004     2.426768695768    -0.000001530994    12.000000000000
         C           -2.165269762004    -0.810583304232    -0.000003530994    12.000000000000
         C           -1.113384762004    -1.714943304232     0.000000469006    12.000000000000
         C            2.724035237996    -0.637647304232    -0.000009530994    12.000000000000
         H           -2.702404562004     1.330668195768    -0.000008730994     1.007825032230
         H           -1.013583762004     3.076109695768    -0.000018530994     1.007825032230
         H            0.474673237996     2.657375695768     0.879101469006     1.007825032230
         H            0.474702237996     2.657366695768    -0.879086530994     1.007825032230
         H           -3.193072762004    -1.161115304232    -0.000005530994     1.007825032230
         H           -1.291643762004    -2.788519304232     0.000000469006     1.007825032230
         H            2.632720237996    -1.266363304232    -0.888113530994     1.007825032230
         H            2.632768237996    -1.266348304232     0.888110469006     1.007825032230
         H            3.675134237996    -0.106018304232    -0.000038530994     1.007825032230

  Basis Set: AUG-CC-PVTZ
    Blend: AUG-CC-PVTZ
  Basis Set: (AUG-CC-PVTZ AUX)
    Blend: AUG-CC-PVTZ-JKFIT
	 Reference Energy          =    -399.7631667554965702 [Eh]
	 Singles Energy            =      -0.0000000000000000 [Eh]
	 Same-Spin Energy          =      -0.4238832829703781 [Eh]
	 Opposite-Spin Energy      =      -1.3370619611101877 [Eh]
	 Correlation Energy        =      -1.7609452440805657 [Eh]
	 Total Energy              =    -401.5241119995771442 [Eh]

	 ================> DF-SCS-MP2 Energies <==================
	-----------------------------------------------------------
	 SCS Same-Spin Scale       =       0.3333333333333333 [-]
	 SCS Opposite-Spin Scale   =       1.2000000000000000 [-]
	 SCS Same-Spin Energy      =      -0.1412944276567927 [Eh]
	 SCS Opposite-Spin Energy  =      -1.6044743533322252 [Eh]
	 SCS Correlation Energy    =      -1.7457687809890179 [Eh]
	 SCS Total Energy          =    -401.5089355364855805 [Eh]
	-----------------------------------------------------------

  Dipole Moment: [D]
     X:    -0.5115      Y:     0.6371      Z:    -0.0000     Total:     0.8170

*** Psi4 exiting successfully. Buy a developer a beer!
