                               Psi4 1.4a3.dev225

  ==> Input File <==

--------------------------------------------------------------------------
#psi4
#
memory 32 gb

molecule  {
0 1
  O        1.7152690     0.3729450     0.0000090
  N        0.1712200    -1.3621090     0.0000060
  C       -0.5564040     0.9604300     0.0000000
  C        0.3871266    -0.0901627     0.0000059
  C       -1.8793030     0.5348530    -0.0000030
  C       -0.1474190     2.4036860    -0.0000010
  C       -2.1785860    -0.8336660    -0.0000030
  C       -1.1267010    -1.7380260     0.0000010
  C        2.7107190    -0.6607300    -0.0000090
  H       -2.6789950     1.2736560    -0.0000080
  H       -1.0269000     3.0530270    -0.0000180
  H        0.4613570     2.6342930     0.8791020
  H        0.4613860     2.6342840    -0.8790860
  H       -3.2063890    -1.1841980    -0.0000050
  H       -1.3049600    -2.8116020     0.0000010
  H        2.6194040    -1.2894460    -0.8881130
  H        2.6194520    -1.2894310     0.8881110
  H        3.6618180    -0.1291010    -0.0000380
units angstrom
no_reorient  #important for SAPT in psi4, default
symmetry c1  #important for SAPT in psi4, default
}

set PROPERTIES_ORIGIN ["COM"]
properties('MP2/aug-cc-pvtz', properties = ['dipole'])
--------------------------------------------------------------------------

    Molecular point group: c1
  Charge       = 0
  Multiplicity = 1
  Basis Set: AUG-CC-PVTZ
    Blend: AUG-CC-PVTZ
  Basis Set: (AUG-CC-PVTZ AUX)
    Blend: AUG-CC-PVTZ-JKFIT

    Orbital Energies [Eh]
    ---------------------

    Doubly Occupied:

       1A    -20.577767     2A    -15.560704     3A    -11.329600
       4A    -11.276116     5A    -11.268375     6A    -11.255479
       7A    -11.245227     8A    -11.233771     9A    -11.226213
      10A     -1.395792    11A     -1.258551    12A     -1.104268
      13A     -1.041692    14A     -0.951773    15A     -0.932974
      16A     -0.840035    17A     -0.826839    18A     -0.715426
      19A     -0.687786    20A     -0.645419    21A     -0.644552
      22A     -0.604492    23A     -0.588018    24A     -0.577507
      25A     -0.559162    26A     -0.550975    27A     -0.533940
      28A     -0.526809    29A     -0.495070    30A     -0.469280
      31A     -0.430096    32A     -0.382230    33A     -0.319594

  @DF-RHF Final Energy:  -399.76279107310614

   => Energetics <=

    Nuclear Repulsion Energy =            435.4338843573353870
    One-Electron Energy =               -1406.2822816908967525
    Two-Electron Energy =                 571.0856062604552790
    Total Energy =                       -399.7627910731060865
  Basis Set: (AUG-CC-PVTZ AUX)
    Blend: AUG-CC-PVTZ-RI
    Molecular point group: c1

    Geometry (in Angstrom), charge = 0, multiplicity = 1:

       Center              X                  Y                   Z               Mass
    ------------   -----------------  -----------------  -----------------  -----------------
         O            1.731803542407     0.399578723896     0.000008477119    15.994914619570
         N            0.187754542407    -1.335475276104     0.000005477119    14.003074004430
         C           -0.539869457593     0.987063723896    -0.000000522881    12.000000000000
         C            0.403661142407    -0.063528976104     0.000005377119    12.000000000000
         C           -1.862768457593     0.561486723896    -0.000003522881    12.000000000000
         C           -0.130884457593     2.430319723896    -0.000001522881    12.000000000000
         C           -2.162051457593    -0.807032276104    -0.000003522881    12.000000000000
         C           -1.110166457593    -1.711392276104     0.000000477119    12.000000000000
         C            2.727253542407    -0.634096276104    -0.000009522881    12.000000000000
         H           -2.662460457593     1.300289723896    -0.000008522881     1.007825032230
         H           -1.010365457593     3.079660723896    -0.000018522881     1.007825032230
         H            0.477891542407     2.660926723896     0.879101477119     1.007825032230
         H            0.477920542407     2.660917723896    -0.879086522881     1.007825032230
         H           -3.189854457593    -1.157564276104    -0.000005522881     1.007825032230
         H           -1.288425457593    -2.784968276104     0.000000477119     1.007825032230
         H            2.635938542407    -1.262812276104    -0.888113522881     1.007825032230
         H            2.635986542407    -1.262797276104     0.888110477119     1.007825032230
         H            3.678352542407    -0.102467276104    -0.000038522881     1.007825032230

  Basis Set: AUG-CC-PVTZ
    Blend: AUG-CC-PVTZ
  Basis Set: (AUG-CC-PVTZ AUX)
    Blend: AUG-CC-PVTZ-JKFIT
	 Reference Energy          =    -399.7627910731061434 [Eh]
	 Singles Energy            =      -0.0000000000000000 [Eh]
	 Same-Spin Energy          =      -0.4236031964930608 [Eh]
	 Opposite-Spin Energy      =      -1.3368746000297169 [Eh]
	 Correlation Energy        =      -1.7604777965227778 [Eh]
	 Total Energy              =    -401.5232688696289074 [Eh]

	 ================> DF-SCS-MP2 Energies <==================
	-----------------------------------------------------------
	 SCS Same-Spin Scale       =       0.3333333333333333 [-]
	 SCS Opposite-Spin Scale   =       1.2000000000000000 [-]
	 SCS Same-Spin Energy      =      -0.1412010654976869 [Eh]
	 SCS Opposite-Spin Energy  =      -1.6042495200356603 [Eh]
	 SCS Correlation Energy    =      -1.7454505855333473 [Eh]
	 SCS Total Energy          =    -401.5082416586394629 [Eh]
	-----------------------------------------------------------

  Dipole Moment: [D]
     X:    -0.8821      Y:     0.6008      Z:    -0.0000     Total:     1.0672

*** Psi4 exiting successfully. Buy a developer a beer!
