                               Psi4 1.4a3.dev225

  ==> Input File <==

--------------------------------------------------------------------------
#psi4
#
memory 32 gb

molecule  {
0 1
  O        1.7152690     0.3729450     0.0000090
  N        0.1712200    -1.3621090     0.0000060
  C       -0.5564040     0.9604300     0.0000000
  C        0.4232170    -0.0565940     0.0000060
  C       -1.8793030     0.5348530    -0.0000030
  C       -0.1474190     2.4036860    -0.0000010
  C       -2.1785860    -0.8336660    -0.0000030
  C       -1.1267010    -1.7380260     0.0000010
  C        2.7107190    -0.6607300    -0.0000090
  H       -2.6789950     1.2736560    -0.0000080
  H       -1.0269000     3.0530270    -0.0000180
  H        0.4613570     2.6342930     0.8791020
  H        0.4335586     2.6237438    -0.8389046
  H       -3.2063890    -1.1841980    -0.0000050
  H       -1.3049600    -2.8116020     0.0000010
  H        2.6194040    -1.2894460    -0.8881130
  H        2.6194520    -1.2894310     0.8881110
  H        3.6618180    -0.1291010    -0.0000380
units angstrom
no_reorient  #important for SAPT in psi4, default
symmetry c1  #important for SAPT in psi4, default
}

set PROPERTIES_ORIGIN ["COM"]
properties('MP2/aug-cc-pvtz', properties = ['dipole'])
--------------------------------------------------------------------------

    Molecular point group: c1
  Charge       = 0
  Multiplicity = 1
  Basis Set: AUG-CC-PVTZ
    Blend: AUG-CC-PVTZ
  Basis Set: (AUG-CC-PVTZ AUX)
    Blend: AUG-CC-PVTZ-JKFIT

    Orbital Energies [Eh]
    ---------------------

    Doubly Occupied:

       1A    -20.586870     2A    -15.558853     3A    -11.331986
       4A    -11.274049     5A    -11.273682     6A    -11.254077
       7A    -11.241511     8A    -11.230187     9A    -11.218376
      10A     -1.415377    11A     -1.244273    12A     -1.099945
      13A     -1.040571    14A     -0.957810    15A     -0.936762
      16A     -0.836270    17A     -0.825479    18A     -0.720025
      19A     -0.688575    20A     -0.653912    21A     -0.648398
      22A     -0.603978    23A     -0.591448    24A     -0.581180
      25A     -0.559927    26A     -0.547878    27A     -0.531448
      28A     -0.528030    29A     -0.502114    30A     -0.476534
      31A     -0.422642    32A     -0.376768    33A     -0.315382

  @DF-RHF Final Energy:  -399.76466379895305

   => Energetics <=

    Nuclear Repulsion Energy =            435.5385935677334146
    One-Electron Energy =               -1406.4578786135912196
    Two-Electron Energy =                 571.1546212469047532
    Total Energy =                       -399.7646637989530518
  Basis Set: (AUG-CC-PVTZ AUX)
    Blend: AUG-CC-PVTZ-RI
    Molecular point group: c1

    Geometry (in Angstrom), charge = 0, multiplicity = 1:

       Center              X                  Y                   Z               Mass
    ------------   -----------------  -----------------  -----------------  -----------------
         O            1.728512367712     0.396391864570    -0.000320583925    15.994914619570
         N            0.184463367712    -1.338662135430    -0.000323583925    14.003074004430
         C           -0.543160632288     0.983876864570    -0.000329583925    12.000000000000
         C            0.436460367712    -0.033147135430    -0.000323583925    12.000000000000
         C           -1.866059632288     0.558299864570    -0.000332583925    12.000000000000
         C           -0.134175632288     2.427132864570    -0.000330583925    12.000000000000
         C           -2.165342632288    -0.810219135430    -0.000332583925    12.000000000000
         C           -1.113457632288    -1.714579135430    -0.000328583925    12.000000000000
         C            2.723962367712    -0.637283135430    -0.000338583925    12.000000000000
         H           -2.665751632288     1.297102864570    -0.000337583925     1.007825032230
         H           -1.013656632288     3.076473864570    -0.000347583925     1.007825032230
         H            0.474600367712     2.657739864570     0.878772416075     1.007825032230
         H            0.446801967712     2.647190664570    -0.839234183925     1.007825032230
         H           -3.193145632288    -1.160751135430    -0.000334583925     1.007825032230
         H           -1.291716632288    -2.788155135430    -0.000328583925     1.007825032230
         H            2.632647367712    -1.265999135430    -0.888442583925     1.007825032230
         H            2.632695367712    -1.265984135430     0.887781416075     1.007825032230
         H            3.675061367712    -0.105654135430    -0.000367583925     1.007825032230

  Basis Set: AUG-CC-PVTZ
    Blend: AUG-CC-PVTZ
  Basis Set: (AUG-CC-PVTZ AUX)
    Blend: AUG-CC-PVTZ-JKFIT
	 Reference Energy          =    -399.7646637989530518 [Eh]
	 Singles Energy            =      -0.0000000000000000 [Eh]
	 Same-Spin Energy          =      -0.4237579890828025 [Eh]
	 Opposite-Spin Energy      =      -1.3363761106178671 [Eh]
	 Correlation Energy        =      -1.7601340997006696 [Eh]
	 Total Energy              =    -401.5247978986537305 [Eh]

	 ================> DF-SCS-MP2 Energies <==================
	-----------------------------------------------------------
	 SCS Same-Spin Scale       =       0.3333333333333333 [-]
	 SCS Opposite-Spin Scale   =       1.2000000000000000 [-]
	 SCS Same-Spin Energy      =      -0.1412526630276008 [Eh]
	 SCS Opposite-Spin Energy  =      -1.6036513327414406 [Eh]
	 SCS Correlation Energy    =      -1.7449039957690413 [Eh]
	 SCS Total Energy          =    -401.5095677947221020 [Eh]
	-----------------------------------------------------------

  Dipole Moment: [D]
     X:    -0.5203      Y:     0.6670      Z:    -0.0110     Total:     0.8460

*** Psi4 exiting successfully. Buy a developer a beer!
