                               Psi4 1.4a3.dev225

  ==> Input File <==

--------------------------------------------------------------------------
#psi4
#
memory 32 gb

molecule  {
0 1
  O        1.7152690     0.3729450     0.0000090
  N        0.1712200    -1.3621090     0.0000060
  C       -0.5564040     0.9604300     0.0000000
  C        0.4232170    -0.0565940     0.0000060
  C       -1.8793030     0.5348530    -0.0000030
  C       -0.1474190     2.4036860    -0.0000010
  C       -2.1743132    -0.8141278    -0.0000030
  C       -1.1267010    -1.7380260     0.0000010
  C        2.7107190    -0.6607300    -0.0000090
  H       -2.6789950     1.2736560    -0.0000080
  H       -1.0269000     3.0530270    -0.0000180
  H        0.4613570     2.6342930     0.8791020
  H        0.4613860     2.6342840    -0.8790860
  H       -3.2063890    -1.1841980    -0.0000050
  H       -1.3049600    -2.8116020     0.0000010
  H        2.6194040    -1.2894460    -0.8881130
  H        2.6194520    -1.2894310     0.8881110
  H        3.6618180    -0.1291010    -0.0000380
units angstrom
no_reorient  #important for SAPT in psi4, default
symmetry c1  #important for SAPT in psi4, default
}

set PROPERTIES_ORIGIN ["COM"]
properties('MP2/aug-cc-pvtz', properties = ['dipole'])
--------------------------------------------------------------------------

    Molecular point group: c1
  Charge       = 0
  Multiplicity = 1
  Basis Set: AUG-CC-PVTZ
    Blend: AUG-CC-PVTZ
  Basis Set: (AUG-CC-PVTZ AUX)
    Blend: AUG-CC-PVTZ-JKFIT

    Orbital Energies [Eh]
    ---------------------

    Doubly Occupied:

       1A    -20.586229     2A    -15.559702     3A    -11.331196
       4A    -11.275656     5A    -11.273829     6A    -11.252030
       7A    -11.241306     8A    -11.230537     9A    -11.224059
      10A     -1.414862    11A     -1.244857    12A     -1.101296
      13A     -1.040297    14A     -0.955678    15A     -0.934778
      16A     -0.836356    17A     -0.824075    18A     -0.720220
      19A     -0.689031    20A     -0.653457    21A     -0.646781
      22A     -0.602807    23A     -0.591157    24A     -0.576564
      25A     -0.558955    26A     -0.547471    27A     -0.529383
      28A     -0.528673    29A     -0.501650    30A     -0.476663
      31A     -0.422304    32A     -0.378995    33A     -0.313608

  @DF-RHF Final Energy:  -399.76486148808237

   => Energetics <=

    Nuclear Repulsion Energy =            435.5292154552490160
    One-Electron Energy =               -1406.4592333923089882
    Two-Electron Energy =                 571.1651564489776547
    Total Energy =                       -399.7648614880823743
  Basis Set: (AUG-CC-PVTZ AUX)
    Blend: AUG-CC-PVTZ-RI
    Molecular point group: c1

    Geometry (in Angstrom), charge = 0, multiplicity = 1:

       Center              X                  Y                   Z               Mass
    ------------   -----------------  -----------------  -----------------  -----------------
         O            1.727867858306     0.394400443135     0.000008467368    15.994914619570
         N            0.183818858306    -1.340653556865     0.000005467368    14.003074004430
         C           -0.543805141694     0.981885443135    -0.000000532632    12.000000000000
         C            0.435815858306    -0.035138556865     0.000005467368    12.000000000000
         C           -1.866704141694     0.556308443135    -0.000003532632    12.000000000000
         C           -0.134820141694     2.425141443135    -0.000001532632    12.000000000000
         C           -2.161714341694    -0.792672356865    -0.000003532632    12.000000000000
         C           -1.114102141694    -1.716570556865     0.000000467368    12.000000000000
         C            2.723317858306    -0.639274556865    -0.000009532632    12.000000000000
         H           -2.666396141694     1.295111443135    -0.000008532632     1.007825032230
         H           -1.014301141694     3.074482443135    -0.000018532632     1.007825032230
         H            0.473955858306     2.655748443135     0.879101467368     1.007825032230
         H            0.473984858306     2.655739443135    -0.879086532632     1.007825032230
         H           -3.193790141694    -1.162742556865    -0.000005532632     1.007825032230
         H           -1.292361141694    -2.790146556865     0.000000467368     1.007825032230
         H            2.632002858306    -1.267990556865    -0.888113532632     1.007825032230
         H            2.632050858306    -1.267975556865     0.888110467368     1.007825032230
         H            3.674416858306    -0.107645556865    -0.000038532632     1.007825032230

  Basis Set: AUG-CC-PVTZ
    Blend: AUG-CC-PVTZ
  Basis Set: (AUG-CC-PVTZ AUX)
    Blend: AUG-CC-PVTZ-JKFIT
	 Reference Energy          =    -399.7648614880823743 [Eh]
	 Singles Energy            =      -0.0000000000000000 [Eh]
	 Same-Spin Energy          =      -0.4239861827202407 [Eh]
	 Opposite-Spin Energy      =      -1.3368102021220996 [Eh]
	 Correlation Energy        =      -1.7607963848423402 [Eh]
	 Total Energy              =    -401.5256578729247394 [Eh]

	 ================> DF-SCS-MP2 Energies <==================
	-----------------------------------------------------------
	 SCS Same-Spin Scale       =       0.3333333333333333 [-]
	 SCS Opposite-Spin Scale   =       1.2000000000000000 [-]
	 SCS Same-Spin Energy      =      -0.1413287275734136 [Eh]
	 SCS Opposite-Spin Energy  =      -1.6041722425465195 [Eh]
	 SCS Correlation Energy    =      -1.7455009701199331 [Eh]
	 SCS Total Energy          =    -401.5103624582022803 [Eh]
	-----------------------------------------------------------

  Dipole Moment: [D]
     X:    -0.5357      Y:     0.6332      Z:    -0.0000     Total:     0.8295

*** Psi4 exiting successfully. Buy a developer a beer!
