                               Psi4 1.4a3.dev225

  ==> Input File <==

--------------------------------------------------------------------------
#psi4
#
memory 32 gb

molecule  {
0 1
  O        1.7152690     0.3729450     0.0000090
  N        0.1712200    -1.3621090     0.0000060
  C       -0.5564040     0.9604300     0.0000000
  C        0.5241585     0.0513756     0.0000062
  C       -1.8793030     0.5348530    -0.0000030
  C       -0.1474190     2.4036860    -0.0000010
  C       -2.1785860    -0.8336660    -0.0000030
  C       -1.1267010    -1.7380260     0.0000010
  C        2.7107190    -0.6607300    -0.0000090
  H       -2.6789950     1.2736560    -0.0000080
  H       -1.0269000     3.0530270    -0.0000180
  H        0.4613570     2.6342930     0.8791020
  H        0.4613860     2.6342840    -0.8790860
  H       -3.2063890    -1.1841980    -0.0000050
  H       -1.3049600    -2.8116020     0.0000010
  H        2.6194040    -1.2894460    -0.8881130
  H        2.6194520    -1.2894310     0.8881110
  H        3.6618180    -0.1291010    -0.0000380
units angstrom
no_reorient  #important for SAPT in psi4, default
symmetry c1  #important for SAPT in psi4, default
}

set PROPERTIES_ORIGIN ["COM"]
properties('MP2/aug-cc-pvtz', properties = ['dipole'])
--------------------------------------------------------------------------

    Molecular point group: c1
  Charge       = 0
  Multiplicity = 1
  Basis Set: AUG-CC-PVTZ
    Blend: AUG-CC-PVTZ
  Basis Set: (AUG-CC-PVTZ AUX)
    Blend: AUG-CC-PVTZ-JKFIT

    Orbital Energies [Eh]
    ---------------------

    Doubly Occupied:

       1A    -20.613767     2A    -15.551736     3A    -11.341187
       4A    -11.292622     5A    -11.267208     6A    -11.251063
       7A    -11.231792     8A    -11.218779     9A    -11.218648
      10A     -1.487503    11A     -1.206466    12A     -1.088829
      13A     -1.037331    14A     -0.980687    15A     -0.928291
      16A     -0.833373    17A     -0.814032    18A     -0.740319
      19A     -0.698582    20A     -0.686279    21A     -0.653633
      22A     -0.600932    23A     -0.591796    24A     -0.575495
      25A     -0.558349    26A     -0.543327    27A     -0.535554
      28A     -0.531519    29A     -0.502447    30A     -0.485178
      31A     -0.395866    32A     -0.362889    33A     -0.299510

  @DF-RHF Final Energy:  -399.73659028218651

   => Energetics <=

    Nuclear Repulsion Energy =            435.2720148692296789
    One-Electron Energy =               -1405.7672347493567031
    Two-Electron Energy =                 570.7586295979405122
    Total Energy =                       -399.7365902821865120
  Basis Set: (AUG-CC-PVTZ AUX)
    Blend: AUG-CC-PVTZ-RI
    Molecular point group: c1

    Geometry (in Angstrom), charge = 0, multiplicity = 1:

       Center              X                  Y                   Z               Mass
    ------------   -----------------  -----------------  -----------------  -----------------
         O            1.718442008382     0.385777785491     0.000008447867    15.994914619570
         N            0.174393008382    -1.349276214509     0.000005447867    14.003074004430
         C           -0.553230991618     0.973262785491    -0.000000552133    12.000000000000
         C            0.527331508382     0.064208385491     0.000005647867    12.000000000000
         C           -1.876129991618     0.547685785491    -0.000003552133    12.000000000000
         C           -0.144245991618     2.416518785491    -0.000001552133    12.000000000000
         C           -2.175412991618    -0.820833214509    -0.000003552133    12.000000000000
         C           -1.123527991618    -1.725193214509     0.000000447867    12.000000000000
         C            2.713892008382    -0.647897214509    -0.000009552133    12.000000000000
         H           -2.675821991618     1.286488785491    -0.000008552133     1.007825032230
         H           -1.023726991618     3.065859785491    -0.000018552133     1.007825032230
         H            0.464530008382     2.647125785491     0.879101447867     1.007825032230
         H            0.464559008382     2.647116785491    -0.879086552133     1.007825032230
         H           -3.203215991618    -1.171365214509    -0.000005552133     1.007825032230
         H           -1.301786991618    -2.798769214509     0.000000447867     1.007825032230
         H            2.622577008382    -1.276613214509    -0.888113552133     1.007825032230
         H            2.622625008382    -1.276598214509     0.888110447867     1.007825032230
         H            3.664991008382    -0.116268214509    -0.000038552133     1.007825032230

  Basis Set: AUG-CC-PVTZ
    Blend: AUG-CC-PVTZ
  Basis Set: (AUG-CC-PVTZ AUX)
    Blend: AUG-CC-PVTZ-JKFIT
	 Reference Energy          =    -399.7365902821865120 [Eh]
	 Singles Energy            =      -0.0000000000000000 [Eh]
	 Same-Spin Energy          =      -0.4248840691342802 [Eh]
	 Opposite-Spin Energy      =      -1.3378889846187780 [Eh]
	 Correlation Energy        =      -1.7627730537530582 [Eh]
	 Total Energy              =    -401.4993633359395631 [Eh]

	 ================> DF-SCS-MP2 Energies <==================
	-----------------------------------------------------------
	 SCS Same-Spin Scale       =       0.3333333333333333 [-]
	 SCS Opposite-Spin Scale   =       1.2000000000000000 [-]
	 SCS Same-Spin Energy      =      -0.1416280230447600 [Eh]
	 SCS Opposite-Spin Energy  =      -1.6054667815425336 [Eh]
	 SCS Correlation Energy    =      -1.7470948045872936 [Eh]
	 SCS Total Energy          =    -401.4836850867737894 [Eh]
	-----------------------------------------------------------

  Dipole Moment: [D]
     X:     0.6008      Y:     0.7874      Z:    -0.0000     Total:     0.9904

*** Psi4 exiting successfully. Buy a developer a beer!
