                               Psi4 1.4a3.dev225

  ==> Input File <==

--------------------------------------------------------------------------
#psi4
#
memory 32 gb

molecule  {
0 1
  O        1.7152690     0.3729450     0.0000090
  N        0.1712200    -1.3621090     0.0000060
  C       -0.5564040     0.9604300     0.0000000
  C        0.4232170    -0.0565940     0.0000060
  C       -1.8793030     0.5348530    -0.0000030
  C       -0.1419662     2.4229283    -0.0000010
  C       -2.1785860    -0.8336660    -0.0000030
  C       -1.1267010    -1.7380260     0.0000010
  C        2.7107190    -0.6607300    -0.0000090
  H       -2.6789950     1.2736560    -0.0000080
  H       -1.0269000     3.0530270    -0.0000180
  H        0.4613570     2.6342930     0.8791020
  H        0.4613860     2.6342840    -0.8790860
  H       -3.2063890    -1.1841980    -0.0000050
  H       -1.3049600    -2.8116020     0.0000010
  H        2.6194040    -1.2894460    -0.8881130
  H        2.6194520    -1.2894310     0.8881110
  H        3.6618180    -0.1291010    -0.0000380
units angstrom
no_reorient  #important for SAPT in psi4, default
symmetry c1  #important for SAPT in psi4, default
}

set PROPERTIES_ORIGIN ["COM"]
properties('MP2/aug-cc-pvtz', properties = ['dipole'])
--------------------------------------------------------------------------

    Molecular point group: c1
  Charge       = 0
  Multiplicity = 1
  Basis Set: AUG-CC-PVTZ
    Blend: AUG-CC-PVTZ
  Basis Set: (AUG-CC-PVTZ AUX)
    Blend: AUG-CC-PVTZ-JKFIT

    Orbital Energies [Eh]
    ---------------------

    Doubly Occupied:

       1A    -20.586731     2A    -15.558860     3A    -11.332037
       4A    -11.273960     5A    -11.273759     6A    -11.254295
       7A    -11.242590     8A    -11.230263     9A    -11.224017
      10A     -1.415213    11A     -1.244249    12A     -1.097945
      13A     -1.039332    14A     -0.955476    15A     -0.935596
      16A     -0.835876    17A     -0.825045    18A     -0.719774
      19A     -0.688012    20A     -0.653611    21A     -0.647515
      22A     -0.602536    23A     -0.588756    24A     -0.578193
      25A     -0.559997    26A     -0.549564    27A     -0.530702
      28A     -0.526120    29A     -0.501536    30A     -0.476466
      31A     -0.422368    32A     -0.376945    33A     -0.315551

  @DF-RHF Final Energy:  -399.76554918296478

   => Energetics <=

    Nuclear Repulsion Energy =            434.9664612304241587
    One-Electron Energy =               -1405.3382325730492539
    Two-Electron Energy =                 570.6062221596604331
    Total Energy =                       -399.7655491829647190
  Basis Set: (AUG-CC-PVTZ AUX)
    Blend: AUG-CC-PVTZ-RI
    Molecular point group: c1

    Geometry (in Angstrom), charge = 0, multiplicity = 1:

       Center              X                  Y                   Z               Mass
    ------------   -----------------  -----------------  -----------------  -----------------
         O            1.727752800351     0.394429295380     0.000008467368    15.994914619570
         N            0.183703800351    -1.340624704620     0.000005467368    14.003074004430
         C           -0.543920199649     0.981914295380    -0.000000532632    12.000000000000
         C            0.435700800351    -0.035109704620     0.000005467368    12.000000000000
         C           -1.866819199649     0.556337295380    -0.000003532632    12.000000000000
         C           -0.129482399649     2.444412595380    -0.000001532632    12.000000000000
         C           -2.166102199649    -0.812181704620    -0.000003532632    12.000000000000
         C           -1.114217199649    -1.716541704620     0.000000467368    12.000000000000
         C            2.723202800351    -0.639245704620    -0.000009532632    12.000000000000
         H           -2.666511199649     1.295140295380    -0.000008532632     1.007825032230
         H           -1.014416199649     3.074511295380    -0.000018532632     1.007825032230
         H            0.473840800351     2.655777295380     0.879101467368     1.007825032230
         H            0.473869800351     2.655768295380    -0.879086532632     1.007825032230
         H           -3.193905199649    -1.162713704620    -0.000005532632     1.007825032230
         H           -1.292476199649    -2.790117704620     0.000000467368     1.007825032230
         H            2.631887800351    -1.267961704620    -0.888113532632     1.007825032230
         H            2.631935800351    -1.267946704620     0.888110467368     1.007825032230
         H            3.674301800351    -0.107616704620    -0.000038532632     1.007825032230

  Basis Set: AUG-CC-PVTZ
    Blend: AUG-CC-PVTZ
  Basis Set: (AUG-CC-PVTZ AUX)
    Blend: AUG-CC-PVTZ-JKFIT
	 Reference Energy          =    -399.7655491829647758 [Eh]
	 Singles Energy            =      -0.0000000000000000 [Eh]
	 Same-Spin Energy          =      -0.4235959135549122 [Eh]
	 Opposite-Spin Energy      =      -1.3365276191960209 [Eh]
	 Correlation Energy        =      -1.7601235327509330 [Eh]
	 Total Energy              =    -401.5256727157157002 [Eh]

	 ================> DF-SCS-MP2 Energies <==================
	-----------------------------------------------------------
	 SCS Same-Spin Scale       =       0.3333333333333333 [-]
	 SCS Opposite-Spin Scale   =       1.2000000000000000 [-]
	 SCS Same-Spin Energy      =      -0.1411986378516374 [Eh]
	 SCS Opposite-Spin Energy  =      -1.6038331430352251 [Eh]
	 SCS Correlation Energy    =      -1.7450317808868625 [Eh]
	 SCS Total Energy          =    -401.5105809638516234 [Eh]
	-----------------------------------------------------------

  Dipole Moment: [D]
     X:    -0.5326      Y:     0.6528      Z:    -0.0000     Total:     0.8425

*** Psi4 exiting successfully. Buy a developer a beer!
