                               Psi4 1.4a3.dev225

  ==> Input File <==

--------------------------------------------------------------------------
#psi4
#
memory 32 gb

molecule  {
0 1
  O        1.7152690     0.3729450     0.0000090
  N        0.1712200    -1.3621090     0.0000060
  C       -0.5564040     0.9604300     0.0000000
  C        0.4408173    -0.0393424     0.0000060
  C       -1.8793030     0.5348530    -0.0000030
  C       -0.1474190     2.4036860    -0.0000010
  C       -2.1785860    -0.8336660    -0.0000030
  C       -1.1267010    -1.7380260     0.0000010
  C        2.7107190    -0.6607300    -0.0000090
  H       -2.6789950     1.2736560    -0.0000080
  H       -1.0269000     3.0530270    -0.0000180
  H        0.4613570     2.6342930     0.8791020
  H        0.4613860     2.6342840    -0.8790860
  H       -3.2063890    -1.1841980    -0.0000050
  H       -1.3049600    -2.8116020     0.0000010
  H        2.6194040    -1.2894460    -0.8881130
  H        2.6194520    -1.2894310     0.8881110
  H        3.6618180    -0.1291010    -0.0000380
units angstrom
no_reorient  #important for SAPT in psi4, default
symmetry c1  #important for SAPT in psi4, default
}

set PROPERTIES_ORIGIN ["COM"]
properties('MP2/aug-cc-pvtz', properties = ['dipole'])
--------------------------------------------------------------------------

    Molecular point group: c1
  Charge       = 0
  Multiplicity = 1
  Basis Set: AUG-CC-PVTZ
    Blend: AUG-CC-PVTZ
  Basis Set: (AUG-CC-PVTZ AUX)
    Blend: AUG-CC-PVTZ-JKFIT

    Orbital Energies [Eh]
    ---------------------

    Doubly Occupied:

       1A    -20.591359     2A    -15.558015     3A    -11.333537
       4A    -11.276961     5A    -11.272771     6A    -11.253800
       7A    -11.240206     8A    -11.228560     9A    -11.223444
      10A     -1.426118    11A     -1.237520    12A     -1.097514
      13A     -1.039450    14A     -0.959076    15A     -0.935185
      16A     -0.834425    17A     -0.823415    18A     -0.722821
      19A     -0.689239    20A     -0.658382    21A     -0.649775
      22A     -0.603400    23A     -0.590647    24A     -0.576335
      25A     -0.560201    26A     -0.545708    27A     -0.529333
      28A     -0.527841    29A     -0.503640    30A     -0.479642
      31A     -0.418764    32A     -0.374121    33A     -0.313013

  @DF-RHF Final Energy:  -399.76472440216287

   => Energetics <=

    Nuclear Repulsion Energy =            435.2787312284847872
    One-Electron Energy =               -1405.9384749392152116
    Two-Electron Energy =                 570.8950193085676119
    Total Energy =                       -399.7647244021628694
  Basis Set: (AUG-CC-PVTZ AUX)
    Blend: AUG-CC-PVTZ-RI
    Molecular point group: c1

    Geometry (in Angstrom), charge = 0, multiplicity = 1:

       Center              X                  Y                   Z               Mass
    ------------   -----------------  -----------------  -----------------  -----------------
         O            1.726568337211     0.394623402050     0.000008467368    15.994914619570
         N            0.182519337211    -1.340430597950     0.000005467368    14.003074004430
         C           -0.545104662789     0.982108402050    -0.000000532632    12.000000000000
         C            0.452116637211    -0.017663997950     0.000005467368    12.000000000000
         C           -1.868003662789     0.556531402050    -0.000003532632    12.000000000000
         C           -0.136119662789     2.425364402050    -0.000001532632    12.000000000000
         C           -2.167286662789    -0.811987597950    -0.000003532632    12.000000000000
         C           -1.115401662789    -1.716347597950     0.000000467368    12.000000000000
         C            2.722018337211    -0.639051597950    -0.000009532632    12.000000000000
         H           -2.667695662789     1.295334402050    -0.000008532632     1.007825032230
         H           -1.015600662789     3.074705402050    -0.000018532632     1.007825032230
         H            0.472656337211     2.655971402050     0.879101467368     1.007825032230
         H            0.472685337211     2.655962402050    -0.879086532632     1.007825032230
         H           -3.195089662789    -1.162519597950    -0.000005532632     1.007825032230
         H           -1.293660662789    -2.789923597950     0.000000467368     1.007825032230
         H            2.630703337211    -1.267767597950    -0.888113532632     1.007825032230
         H            2.630751337211    -1.267752597950     0.888110467368     1.007825032230
         H            3.673117337211    -0.107422597950    -0.000038532632     1.007825032230

  Basis Set: AUG-CC-PVTZ
    Blend: AUG-CC-PVTZ
  Basis Set: (AUG-CC-PVTZ AUX)
    Blend: AUG-CC-PVTZ-JKFIT
	 Reference Energy          =    -399.7647244021628694 [Eh]
	 Singles Energy            =      -0.0000000000000000 [Eh]
	 Same-Spin Energy          =      -0.4238932968711173 [Eh]
	 Opposite-Spin Energy      =      -1.3366680065335648 [Eh]
	 Correlation Energy        =      -1.7605613034046821 [Eh]
	 Total Energy              =    -401.5252857055675690 [Eh]

	 ================> DF-SCS-MP2 Energies <==================
	-----------------------------------------------------------
	 SCS Same-Spin Scale       =       0.3333333333333333 [-]
	 SCS Opposite-Spin Scale   =       1.2000000000000000 [-]
	 SCS Same-Spin Energy      =      -0.1412977656237058 [Eh]
	 SCS Opposite-Spin Energy  =      -1.6040016078402777 [Eh]
	 SCS Correlation Energy    =      -1.7452993734639834 [Eh]
	 SCS Total Energy          =    -401.5100237756268484 [Eh]
	-----------------------------------------------------------

  Dipole Moment: [D]
     X:    -0.3465      Y:     0.6777      Z:    -0.0000     Total:     0.7612

*** Psi4 exiting successfully. Buy a developer a beer!
