                               Psi4 1.4a3.dev225

  ==> Input File <==

--------------------------------------------------------------------------
#psi4
#
memory 32 gb

molecule  {
0 1
  O        1.7152690     0.3729450     0.0000090
  N        0.1712200    -1.3621090     0.0000060
  C       -0.5491781     0.9372774     0.0000000
  C        0.4232170    -0.0565940     0.0000060
  C       -1.8793030     0.5348530    -0.0000030
  C       -0.1474190     2.4036860    -0.0000010
  C       -2.1785860    -0.8336660    -0.0000030
  C       -1.1267010    -1.7380260     0.0000010
  C        2.7107190    -0.6607300    -0.0000090
  H       -2.6789950     1.2736560    -0.0000080
  H       -1.0269000     3.0530270    -0.0000180
  H        0.4613570     2.6342930     0.8791020
  H        0.4613860     2.6342840    -0.8790860
  H       -3.2063890    -1.1841980    -0.0000050
  H       -1.3049600    -2.8116020     0.0000010
  H        2.6194040    -1.2894460    -0.8881130
  H        2.6194520    -1.2894310     0.8881110
  H        3.6618180    -0.1291010    -0.0000380
units angstrom
no_reorient  #important for SAPT in psi4, default
symmetry c1  #important for SAPT in psi4, default
}

set PROPERTIES_ORIGIN ["COM"]
properties('MP2/aug-cc-pvtz', properties = ['dipole'])
--------------------------------------------------------------------------

    Molecular point group: c1
  Charge       = 0
  Multiplicity = 1
  Basis Set: AUG-CC-PVTZ
    Blend: AUG-CC-PVTZ
  Basis Set: (AUG-CC-PVTZ AUX)
    Blend: AUG-CC-PVTZ-JKFIT

    Orbital Energies [Eh]
    ---------------------

    Doubly Occupied:

       1A    -20.586002     2A    -15.559093     3A    -11.329279
       4A    -11.274119     5A    -11.273760     6A    -11.255130
       7A    -11.240088     8A    -11.230818     9A    -11.224809
      10A     -1.414986    11A     -1.245384    12A     -1.099065
      13A     -1.040730    14A     -0.953818    15A     -0.934919
      16A     -0.839567    17A     -0.824596    18A     -0.720234
      19A     -0.688803    20A     -0.653708    21A     -0.648283
      22A     -0.603089    23A     -0.589328    24A     -0.575263
      25A     -0.560115    26A     -0.549455    27A     -0.529687
      28A     -0.525190    29A     -0.499516    30A     -0.476436
      31A     -0.423317    32A     -0.376453    33A     -0.317648

  @DF-RHF Final Energy:  -399.76535477910068

   => Energetics <=

    Nuclear Repulsion Energy =            435.5987341426790636
    One-Electron Energy =               -1406.6028010439165428
    Two-Electron Energy =                 571.2387121221368034
    Total Energy =                       -399.7653547791006758
  Basis Set: (AUG-CC-PVTZ AUX)
    Blend: AUG-CC-PVTZ-RI
    Molecular point group: c1

    Geometry (in Angstrom), charge = 0, multiplicity = 1:

       Center              X                  Y                   Z               Mass
    ------------   -----------------  -----------------  -----------------  -----------------
         O            1.727579911148     0.398563083927     0.000008467368    15.994914619570
         N            0.183530911148    -1.336490916073     0.000005467368    14.003074004430
         C           -0.536867188852     0.962895483927    -0.000000532632    12.000000000000
         C            0.435527911148    -0.030975916073     0.000005467368    12.000000000000
         C           -1.866992088852     0.560471083927    -0.000003532632    12.000000000000
         C           -0.135108088852     2.429304083927    -0.000001532632    12.000000000000
         C           -2.166275088852    -0.808047916073    -0.000003532632    12.000000000000
         C           -1.114390088852    -1.712407916073     0.000000467368    12.000000000000
         C            2.723029911148    -0.635111916073    -0.000009532632    12.000000000000
         H           -2.666684088852     1.299274083927    -0.000008532632     1.007825032230
         H           -1.014589088852     3.078645083927    -0.000018532632     1.007825032230
         H            0.473667911148     2.659911083927     0.879101467368     1.007825032230
         H            0.473696911148     2.659902083927    -0.879086532632     1.007825032230
         H           -3.194078088852    -1.158579916073    -0.000005532632     1.007825032230
         H           -1.292649088852    -2.785983916073     0.000000467368     1.007825032230
         H            2.631714911148    -1.263827916073    -0.888113532632     1.007825032230
         H            2.631762911148    -1.263812916073     0.888110467368     1.007825032230
         H            3.674128911148    -0.103482916073    -0.000038532632     1.007825032230

  Basis Set: AUG-CC-PVTZ
    Blend: AUG-CC-PVTZ
  Basis Set: (AUG-CC-PVTZ AUX)
    Blend: AUG-CC-PVTZ-JKFIT
	 Reference Energy          =    -399.7653547791006758 [Eh]
	 Singles Energy            =      -0.0000000000000000 [Eh]
	 Same-Spin Energy          =      -0.4236979072342328 [Eh]
	 Opposite-Spin Energy      =      -1.3364960920416427 [Eh]
	 Correlation Energy        =      -1.7601939992758755 [Eh]
	 Total Energy              =    -401.5255487783765602 [Eh]

	 ================> DF-SCS-MP2 Energies <==================
	-----------------------------------------------------------
	 SCS Same-Spin Scale       =       0.3333333333333333 [-]
	 SCS Opposite-Spin Scale   =       1.2000000000000000 [-]
	 SCS Same-Spin Energy      =      -0.1412326357447443 [Eh]
	 SCS Opposite-Spin Energy  =      -1.6037953104499711 [Eh]
	 SCS Correlation Energy    =      -1.7450279461947154 [Eh]
	 SCS Total Energy          =    -401.5103827252954147 [Eh]
	-----------------------------------------------------------

  Dipole Moment: [D]
     X:    -0.5750      Y:     0.6204      Z:    -0.0000     Total:     0.8459

*** Psi4 exiting successfully. Buy a developer a beer!
