                               Psi4 1.4a3.dev225

  ==> Input File <==

--------------------------------------------------------------------------
#psi4
#
memory 32 gb

molecule  {
0 1
  O        1.7152690     0.3729450     0.0000090
  N        0.1712200    -1.3621090     0.0000060
  C       -0.5564040     0.9604300     0.0000000
  C        0.4232170    -0.0565940     0.0000060
  C       -1.8793030     0.5348530    -0.0000030
  C       -0.1528718     2.3844437    -0.0000010
  C       -2.1785860    -0.8336660    -0.0000030
  C       -1.1267010    -1.7380260     0.0000010
  C        2.7107190    -0.6607300    -0.0000090
  H       -2.6789950     1.2736560    -0.0000080
  H       -1.0269000     3.0530270    -0.0000180
  H        0.4613570     2.6342930     0.8791020
  H        0.4613860     2.6342840    -0.8790860
  H       -3.2063890    -1.1841980    -0.0000050
  H       -1.3049600    -2.8116020     0.0000010
  H        2.6194040    -1.2894460    -0.8881130
  H        2.6194520    -1.2894310     0.8881110
  H        3.6618180    -0.1291010    -0.0000380
units angstrom
no_reorient  #important for SAPT in psi4, default
symmetry c1  #important for SAPT in psi4, default
}

set PROPERTIES_ORIGIN ["COM"]
properties('MP2/aug-cc-pvtz', properties = ['dipole'])
--------------------------------------------------------------------------

    Molecular point group: c1
  Charge       = 0
  Multiplicity = 1
  Basis Set: AUG-CC-PVTZ
    Blend: AUG-CC-PVTZ
  Basis Set: (AUG-CC-PVTZ AUX)
    Blend: AUG-CC-PVTZ-JKFIT

    Orbital Energies [Eh]
    ---------------------

    Doubly Occupied:

       1A    -20.587047     2A    -15.559081     3A    -11.332252
       4A    -11.274129     5A    -11.273956     6A    -11.254395
       7A    -11.241088     8A    -11.230427     9A    -11.224855
      10A     -1.415561    11A     -1.244577    12A     -1.101528
      13A     -1.041044    14A     -0.955907    15A     -0.935220
      16A     -0.835537    17A     -0.824954    18A     -0.720097
      19A     -0.688962    20A     -0.653900    21A     -0.649103
      22A     -0.605413    23A     -0.590820    24A     -0.575376
      25A     -0.560346    26A     -0.545707    27A     -0.529436
      28A     -0.527925    29A     -0.501095    30A     -0.476666
      31A     -0.423174    32A     -0.376467    33A     -0.315086

  @DF-RHF Final Energy:  -399.76494572136477

   => Energetics <=

    Nuclear Repulsion Energy =            435.6736741608653460
    One-Electron Energy =               -1406.7349805533631297
    Two-Electron Energy =                 571.2963606711329021
    Total Energy =                       -399.7649457213648247
  Basis Set: (AUG-CC-PVTZ AUX)
    Blend: AUG-CC-PVTZ-RI
    Molecular point group: c1

    Geometry (in Angstrom), charge = 0, multiplicity = 1:

       Center              X                  Y                   Z               Mass
    ------------   -----------------  -----------------  -----------------  -----------------
         O            1.728816169870     0.398181803317     0.000008467368    15.994914619570
         N            0.184767169870    -1.336872196683     0.000005467368    14.003074004430
         C           -0.542856830130     0.985666803317    -0.000000532632    12.000000000000
         C            0.436764169870    -0.031357196683     0.000005467368    12.000000000000
         C           -1.865755830130     0.560089803317    -0.000003532632    12.000000000000
         C           -0.139324630130     2.409680503317    -0.000001532632    12.000000000000
         C           -2.165038830130    -0.808429196683    -0.000003532632    12.000000000000
         C           -1.113153830130    -1.712789196683     0.000000467368    12.000000000000
         C            2.724266169870    -0.635493196683    -0.000009532632    12.000000000000
         H           -2.665447830130     1.298892803317    -0.000008532632     1.007825032230
         H           -1.013352830130     3.078263803317    -0.000018532632     1.007825032230
         H            0.474904169870     2.659529803317     0.879101467368     1.007825032230
         H            0.474933169870     2.659520803317    -0.879086532632     1.007825032230
         H           -3.192841830130    -1.158961196683    -0.000005532632     1.007825032230
         H           -1.291412830130    -2.786365196683     0.000000467368     1.007825032230
         H            2.632951169870    -1.264209196683    -0.888113532632     1.007825032230
         H            2.632999169870    -1.264194196683     0.888110467368     1.007825032230
         H            3.675365169870    -0.103864196683    -0.000038532632     1.007825032230

  Basis Set: AUG-CC-PVTZ
    Blend: AUG-CC-PVTZ
  Basis Set: (AUG-CC-PVTZ AUX)
    Blend: AUG-CC-PVTZ-JKFIT
	 Reference Energy          =    -399.7649457213647679 [Eh]
	 Singles Energy            =      -0.0000000000000000 [Eh]
	 Same-Spin Energy          =      -0.4239685015266524 [Eh]
	 Opposite-Spin Energy      =      -1.3368341989558821 [Eh]
	 Correlation Energy        =      -1.7608027004825344 [Eh]
	 Total Energy              =    -401.5257484218473110 [Eh]

	 ================> DF-SCS-MP2 Energies <==================
	-----------------------------------------------------------
	 SCS Same-Spin Scale       =       0.3333333333333333 [-]
	 SCS Opposite-Spin Scale   =       1.2000000000000000 [-]
	 SCS Same-Spin Energy      =      -0.1413228338422174 [Eh]
	 SCS Opposite-Spin Energy  =      -1.6042010387470584 [Eh]
	 SCS Correlation Energy    =      -1.7455238725892759 [Eh]
	 SCS Total Energy          =    -401.5104695939540420 [Eh]
	-----------------------------------------------------------

  Dipole Moment: [D]
     X:    -0.5216      Y:     0.6536      Z:    -0.0000     Total:     0.8362

*** Psi4 exiting successfully. Buy a developer a beer!
