                               Psi4 1.4a3.dev225

  ==> Input File <==

--------------------------------------------------------------------------
#psi4
#
memory 32 gb

molecule  {
0 1
  O        1.7152690     0.3729450     0.0000090
  N        0.1712200    -1.3621090     0.0000060
  C       -0.5564040     0.9604300     0.0000000
  C        0.4421957    -0.0502846     0.0000060
  C       -1.8793030     0.5348530    -0.0000030
  C       -0.1474190     2.4036860    -0.0000010
  C       -2.1785860    -0.8336660    -0.0000030
  C       -1.1267010    -1.7380260     0.0000010
  C        2.7107190    -0.6607300    -0.0000090
  H       -2.6789950     1.2736560    -0.0000080
  H       -1.0269000     3.0530270    -0.0000180
  H        0.4613570     2.6342930     0.8791020
  H        0.4613860     2.6342840    -0.8790860
  H       -3.2063890    -1.1841980    -0.0000050
  H       -1.3049600    -2.8116020     0.0000010
  H        2.6194040    -1.2894460    -0.8881130
  H        2.6194520    -1.2894310     0.8881110
  H        3.6618180    -0.1291010    -0.0000380
units angstrom
no_reorient  #important for SAPT in psi4, default
symmetry c1  #important for SAPT in psi4, default
}

set PROPERTIES_ORIGIN ["COM"]
properties('MP2/aug-cc-pvtz', properties = ['dipole'])
--------------------------------------------------------------------------

    Molecular point group: c1
  Charge       = 0
  Multiplicity = 1
  Basis Set: AUG-CC-PVTZ
    Blend: AUG-CC-PVTZ
  Basis Set: (AUG-CC-PVTZ AUX)
    Blend: AUG-CC-PVTZ-JKFIT

    Orbital Energies [Eh]
    ---------------------

    Doubly Occupied:

       1A    -20.591360     2A    -15.557567     3A    -11.333640
       4A    -11.276667     5A    -11.272706     6A    -11.253219
       7A    -11.241283     8A    -11.228729     9A    -11.223607
      10A     -1.425684    11A     -1.240025    12A     -1.097274
      13A     -1.039283    14A     -0.958700    15A     -0.935461
      16A     -0.833031    17A     -0.824439    18A     -0.722853
      19A     -0.689234    20A     -0.658328    21A     -0.649659
      22A     -0.603803    23A     -0.589815    24A     -0.576204
      25A     -0.559992    26A     -0.545995    27A     -0.529386
      28A     -0.528568    29A     -0.504048    30A     -0.479499
      31A     -0.418846    32A     -0.375041    33A     -0.312616

  @DF-RHF Final Energy:  -399.76525402887745

   => Energetics <=

    Nuclear Repulsion Energy =            435.2891174535968162
    One-Electron Energy =               -1405.9556197229949248
    Two-Electron Energy =                 570.9012482405206583
    Total Energy =                       -399.7652540288773935
  Basis Set: (AUG-CC-PVTZ AUX)
    Blend: AUG-CC-PVTZ-RI
    Molecular point group: c1

    Geometry (in Angstrom), charge = 0, multiplicity = 1:

       Center              X                  Y                   Z               Mass
    ------------   -----------------  -----------------  -----------------  -----------------
         O            1.726433933919     0.395690340315     0.000008467368    15.994914619570
         N            0.182384933919    -1.339363659685     0.000005467368    14.003074004430
         C           -0.545239066081     0.983175340315    -0.000000532632    12.000000000000
         C            0.453360633919    -0.027539259685     0.000005467368    12.000000000000
         C           -1.868138066081     0.557598340315    -0.000003532632    12.000000000000
         C           -0.136254066081     2.426431340315    -0.000001532632    12.000000000000
         C           -2.167421066081    -0.810920659685    -0.000003532632    12.000000000000
         C           -1.115536066081    -1.715280659685     0.000000467368    12.000000000000
         C            2.721883933919    -0.637984659685    -0.000009532632    12.000000000000
         H           -2.667830066081     1.296401340315    -0.000008532632     1.007825032230
         H           -1.015735066081     3.075772340315    -0.000018532632     1.007825032230
         H            0.472521933919     2.657038340315     0.879101467368     1.007825032230
         H            0.472550933919     2.657029340315    -0.879086532632     1.007825032230
         H           -3.195224066081    -1.161452659685    -0.000005532632     1.007825032230
         H           -1.293795066081    -2.788856659685     0.000000467368     1.007825032230
         H            2.630568933919    -1.266700659685    -0.888113532632     1.007825032230
         H            2.630616933919    -1.266685659685     0.888110467368     1.007825032230
         H            3.672982933919    -0.106355659685    -0.000038532632     1.007825032230

  Basis Set: AUG-CC-PVTZ
    Blend: AUG-CC-PVTZ
  Basis Set: (AUG-CC-PVTZ AUX)
    Blend: AUG-CC-PVTZ-JKFIT
	 Reference Energy          =    -399.7652540288774503 [Eh]
	 Singles Energy            =      -0.0000000000000000 [Eh]
	 Same-Spin Energy          =      -0.4237823889160507 [Eh]
	 Opposite-Spin Energy      =      -1.3365486467829764 [Eh]
	 Correlation Energy        =      -1.7603310356990272 [Eh]
	 Total Energy              =    -401.5255850645764895 [Eh]

	 ================> DF-SCS-MP2 Energies <==================
	-----------------------------------------------------------
	 SCS Same-Spin Scale       =       0.3333333333333333 [-]
	 SCS Opposite-Spin Scale   =       1.2000000000000000 [-]
	 SCS Same-Spin Energy      =      -0.1412607963053502 [Eh]
	 SCS Opposite-Spin Energy  =      -1.6038583761395715 [Eh]
	 SCS Correlation Energy    =      -1.7451191724449218 [Eh]
	 SCS Total Energy          =    -401.5103732013223521 [Eh]
	-----------------------------------------------------------

  Dipole Moment: [D]
     X:    -0.3528      Y:     0.6737      Z:    -0.0000     Total:     0.7604

*** Psi4 exiting successfully. Buy a developer a beer!
