                               Psi4 1.4a3.dev225

  ==> Input File <==

--------------------------------------------------------------------------
#psi4
#
memory 32 gb

molecule  {
0 1
  O        1.7152690     0.3729450     0.0000090
  N        0.1712200    -1.3621090     0.0000060
  C       -0.5720623     1.0063393    -0.0000001
  C        0.4232170    -0.0565940     0.0000060
  C       -1.8793030     0.5348530    -0.0000030
  C       -0.1474190     2.4036860    -0.0000010
  C       -2.1785860    -0.8336660    -0.0000030
  C       -1.1267010    -1.7380260     0.0000010
  C        2.7107190    -0.6607300    -0.0000090
  H       -2.6789950     1.2736560    -0.0000080
  H       -1.0269000     3.0530270    -0.0000180
  H        0.4613570     2.6342930     0.8791020
  H        0.4613860     2.6342840    -0.8790860
  H       -3.2063890    -1.1841980    -0.0000050
  H       -1.3049600    -2.8116020     0.0000010
  H        2.6194040    -1.2894460    -0.8881130
  H        2.6194520    -1.2894310     0.8881110
  H        3.6618180    -0.1291010    -0.0000380
units angstrom
no_reorient  #important for SAPT in psi4, default
symmetry c1  #important for SAPT in psi4, default
}

set PROPERTIES_ORIGIN ["COM"]
properties('MP2/aug-cc-pvtz', properties = ['dipole'])
--------------------------------------------------------------------------

    Molecular point group: c1
  Charge       = 0
  Multiplicity = 1
  Basis Set: AUG-CC-PVTZ
    Blend: AUG-CC-PVTZ
  Basis Set: (AUG-CC-PVTZ AUX)
    Blend: AUG-CC-PVTZ-JKFIT

    Orbital Energies [Eh]
    ---------------------

    Doubly Occupied:

       1A    -20.588607     2A    -15.558667     3A    -11.337373
       4A    -11.274572     5A    -11.273358     6A    -11.252938
       7A    -11.245415     8A    -11.229472     9A    -11.223495
      10A     -1.416126    11A     -1.242666    12A     -1.101348
      13A     -1.039753    14A     -0.959241    15A     -0.936181
      16A     -0.828980    17A     -0.824860    18A     -0.719376
      19A     -0.688028    20A     -0.653861    21A     -0.648620
      22A     -0.606016    23A     -0.590850    24A     -0.579956
      25A     -0.561206    26A     -0.541764    27A     -0.533725
      28A     -0.528740    29A     -0.504317    30A     -0.476789
      31A     -0.420863    32A     -0.377267    33A     -0.310950

  @DF-RHF Final Energy:  -399.76193251335008

   => Energetics <=

    Nuclear Repulsion Energy =            434.7784106935103523
    One-Electron Energy =               -1404.9299304100941299
    Two-Electron Energy =                 570.3895872032337593
    Total Energy =                       -399.7619325133500752
  Basis Set: (AUG-CC-PVTZ AUX)
    Blend: AUG-CC-PVTZ-RI
    Molecular point group: c1

    Geometry (in Angstrom), charge = 0, multiplicity = 1:

       Center              X                  Y                   Z               Mass
    ------------   -----------------  -----------------  -----------------  -----------------
         O            1.729811274918     0.391829083109     0.000008477119    15.994914619570
         N            0.185762274918    -1.343224916891     0.000005477119    14.003074004430
         C           -0.557520025082     1.025223383109    -0.000000622881    12.000000000000
         C            0.437759274918    -0.037709916891     0.000005477119    12.000000000000
         C           -1.864760725082     0.553737083109    -0.000003522881    12.000000000000
         C           -0.132876725082     2.422570083109    -0.000001522881    12.000000000000
         C           -2.164043725082    -0.814781916891    -0.000003522881    12.000000000000
         C           -1.112158725082    -1.719141916891     0.000000477119    12.000000000000
         C            2.725261274918    -0.641845916891    -0.000009522881    12.000000000000
         H           -2.664452725082     1.292540083109    -0.000008522881     1.007825032230
         H           -1.012357725082     3.071911083109    -0.000018522881     1.007825032230
         H            0.475899274918     2.653177083109     0.879101477119     1.007825032230
         H            0.475928274918     2.653168083109    -0.879086522881     1.007825032230
         H           -3.191846725082    -1.165313916891    -0.000005522881     1.007825032230
         H           -1.290417725082    -2.792717916891     0.000000477119     1.007825032230
         H            2.633946274918    -1.270561916891    -0.888113522881     1.007825032230
         H            2.633994274918    -1.270546916891     0.888110477119     1.007825032230
         H            3.676360274918    -0.110216916891    -0.000038522881     1.007825032230

  Basis Set: AUG-CC-PVTZ
    Blend: AUG-CC-PVTZ
  Basis Set: (AUG-CC-PVTZ AUX)
    Blend: AUG-CC-PVTZ-JKFIT
	 Reference Energy          =    -399.7619325133500752 [Eh]
	 Singles Energy            =      -0.0000000000000000 [Eh]
	 Same-Spin Energy          =      -0.4240005034799459 [Eh]
	 Opposite-Spin Energy      =      -1.3372184011411696 [Eh]
	 Correlation Energy        =      -1.7612189046211155 [Eh]
	 Total Energy              =    -401.5231514179711780 [Eh]

	 ================> DF-SCS-MP2 Energies <==================
	-----------------------------------------------------------
	 SCS Same-Spin Scale       =       0.3333333333333333 [-]
	 SCS Opposite-Spin Scale   =       1.2000000000000000 [-]
	 SCS Same-Spin Energy      =      -0.1413335011599819 [Eh]
	 SCS Opposite-Spin Energy  =      -1.6046620813694035 [Eh]
	 SCS Correlation Energy    =      -1.7459955825293854 [Eh]
	 SCS Total Energy          =    -401.5079280958794357 [Eh]
	-----------------------------------------------------------

  Dipole Moment: [D]
     X:    -0.4321      Y:     0.7193      Z:    -0.0000     Total:     0.8391

*** Psi4 exiting successfully. Buy a developer a beer!
