                               Psi4 1.4a3.dev225

  ==> Input File <==

--------------------------------------------------------------------------
#psi4
#
memory 32 gb

molecule  {
0 1
  O        1.7530901     0.2355357     0.0000092
  N        0.1712200    -1.3621090     0.0000060
  C       -0.5564040     0.9604300     0.0000000
  C        0.4232170    -0.0565940     0.0000060
  C       -1.8793030     0.5348530    -0.0000030
  C       -0.1474190     2.4036860    -0.0000010
  C       -2.1785860    -0.8336660    -0.0000030
  C       -1.1267010    -1.7380260     0.0000010
  C        2.7107190    -0.6607300    -0.0000090
  H       -2.6789950     1.2736560    -0.0000080
  H       -1.0269000     3.0530270    -0.0000180
  H        0.4613570     2.6342930     0.8791020
  H        0.4613860     2.6342840    -0.8790860
  H       -3.2063890    -1.1841980    -0.0000050
  H       -1.3049600    -2.8116020     0.0000010
  H        2.6194040    -1.2894460    -0.8881130
  H        2.6194520    -1.2894310     0.8881110
  H        3.6618180    -0.1291010    -0.0000380
units angstrom
no_reorient  #important for SAPT in psi4, default
symmetry c1  #important for SAPT in psi4, default
}

set PROPERTIES_ORIGIN ["COM"]
properties('MP2/aug-cc-pvtz', properties = ['dipole'])
--------------------------------------------------------------------------

    Molecular point group: c1
  Charge       = 0
  Multiplicity = 1
  Basis Set: AUG-CC-PVTZ
    Blend: AUG-CC-PVTZ
  Basis Set: (AUG-CC-PVTZ AUX)
    Blend: AUG-CC-PVTZ-JKFIT

    Orbital Energies [Eh]
    ---------------------

    Doubly Occupied:

       1A    -20.577454     2A    -15.559145     3A    -11.338120
       4A    -11.275105     5A    -11.260760     6A    -11.258926
       7A    -11.248843     8A    -11.233169     9A    -11.228588
      10A     -1.445696    11A     -1.249543    12A     -1.103400
      13A     -1.050420    14A     -0.965894    15A     -0.933971
      16A     -0.840766    17A     -0.824075    18A     -0.729640
      19A     -0.695378    20A     -0.672993    21A     -0.655187
      22A     -0.620578    23A     -0.599163    24A     -0.581294
      25A     -0.568686    26A     -0.551212    27A     -0.529189
      28A     -0.523707    29A     -0.480952    30A     -0.459849
      31A     -0.425962    32A     -0.378604    33A     -0.318141

  @DF-RHF Final Energy:  -399.75507827094509

   => Energetics <=

    Nuclear Repulsion Energy =            436.8345369144042820
    One-Electron Energy =               -1408.8104105564671045
    Two-Electron Energy =                 572.2207953711177879
    Total Energy =                       -399.7550782709450914
  Basis Set: (AUG-CC-PVTZ AUX)
    Blend: AUG-CC-PVTZ-RI
    Molecular point group: c1

    Geometry (in Angstrom), charge = 0, multiplicity = 1:

       Center              X                  Y                   Z               Mass
    ------------   -----------------  -----------------  -----------------  -----------------
         O            1.761190064986     0.276755015473     0.000008641375    15.994914619570
         N            0.179319964986    -1.320889684527     0.000005441375    14.003074004430
         C           -0.548304035014     1.001649315473    -0.000000558625    12.000000000000
         C            0.431316964986    -0.015374684527     0.000005441375    12.000000000000
         C           -1.871203035014     0.576072315473    -0.000003558625    12.000000000000
         C           -0.139319035014     2.444905315473    -0.000001558625    12.000000000000
         C           -2.170486035014    -0.792446684527    -0.000003558625    12.000000000000
         C           -1.118601035014    -1.696806684527     0.000000441375    12.000000000000
         C            2.718818964986    -0.619510684527    -0.000009558625    12.000000000000
         H           -2.670895035014     1.314875315473    -0.000008558625     1.007825032230
         H           -1.018800035014     3.094246315473    -0.000018558625     1.007825032230
         H            0.469456964986     2.675512315473     0.879101441375     1.007825032230
         H            0.469485964986     2.675503315473    -0.879086558625     1.007825032230
         H           -3.198289035014    -1.142978684527    -0.000005558625     1.007825032230
         H           -1.296860035014    -2.770382684527     0.000000441375     1.007825032230
         H            2.627503964986    -1.248226684527    -0.888113558625     1.007825032230
         H            2.627551964986    -1.248211684527     0.888110441375     1.007825032230
         H            3.669917964986    -0.087881684527    -0.000038558625     1.007825032230

  Basis Set: AUG-CC-PVTZ
    Blend: AUG-CC-PVTZ
  Basis Set: (AUG-CC-PVTZ AUX)
    Blend: AUG-CC-PVTZ-JKFIT
	 Reference Energy          =    -399.7550782709450914 [Eh]
	 Singles Energy            =      -0.0000000000000000 [Eh]
	 Same-Spin Energy          =      -0.4232360348122064 [Eh]
	 Opposite-Spin Energy      =      -1.3336129971512389 [Eh]
	 Correlation Energy        =      -1.7568490319634453 [Eh]
	 Total Energy              =    -401.5119273029085321 [Eh]

	 ================> DF-SCS-MP2 Energies <==================
	-----------------------------------------------------------
	 SCS Same-Spin Scale       =       0.3333333333333333 [-]
	 SCS Opposite-Spin Scale   =       1.2000000000000000 [-]
	 SCS Same-Spin Energy      =      -0.1410786782707354 [Eh]
	 SCS Opposite-Spin Energy  =      -1.6003355965814867 [Eh]
	 SCS Correlation Energy    =      -1.7414142748522221 [Eh]
	 SCS Total Energy          =    -401.4964925457973095 [Eh]
	-----------------------------------------------------------

  Dipole Moment: [D]
     X:    -0.9543      Y:     1.0245      Z:    -0.0000     Total:     1.4001

*** Psi4 exiting successfully. Buy a developer a beer!
