                               Psi4 1.4a3.dev225

  ==> Input File <==

--------------------------------------------------------------------------
#psi4
#
memory 32 gb

molecule  {
0 1
  O        1.7152690     0.3729450     0.0000090
  N        0.1644617    -1.3395144     0.0000060
  C       -0.5564040     0.9604300     0.0000000
  C        0.4232170    -0.0565940     0.0000060
  C       -1.8793030     0.5348530    -0.0000030
  C       -0.1474190     2.4036860    -0.0000010
  C       -2.1785860    -0.8336660    -0.0000030
  C       -1.1267010    -1.7380260     0.0000010
  C        2.7107190    -0.6607300    -0.0000090
  H       -2.6789950     1.2736560    -0.0000080
  H       -1.0269000     3.0530270    -0.0000180
  H        0.4613570     2.6342930     0.8791020
  H        0.4613860     2.6342840    -0.8790860
  H       -3.2063890    -1.1841980    -0.0000050
  H       -1.3049600    -2.8116020     0.0000010
  H        2.6194040    -1.2894460    -0.8881130
  H        2.6194520    -1.2894310     0.8881110
  H        3.6618180    -0.1291010    -0.0000380
units angstrom
no_reorient  #important for SAPT in psi4, default
symmetry c1  #important for SAPT in psi4, default
}

set PROPERTIES_ORIGIN ["COM"]
properties('MP2/aug-cc-pvtz', properties = ['dipole'])
--------------------------------------------------------------------------

    Molecular point group: c1
  Charge       = 0
  Multiplicity = 1
  Basis Set: AUG-CC-PVTZ
    Blend: AUG-CC-PVTZ
  Basis Set: (AUG-CC-PVTZ AUX)
    Blend: AUG-CC-PVTZ-JKFIT

    Orbital Energies [Eh]
    ---------------------

    Doubly Occupied:

       1A    -20.585624     2A    -15.555886     3A    -11.329223
       4A    -11.273886     5A    -11.273700     6A    -11.253292
       7A    -11.241715     8A    -11.230645     9A    -11.223988
      10A     -1.415189    11A     -1.248864    12A     -1.099149
      13A     -1.041417    14A     -0.955122    15A     -0.936351
      16A     -0.835983    17A     -0.825685    18A     -0.720692
      19A     -0.689262    20A     -0.653868    21A     -0.648558
      22A     -0.604838    23A     -0.589819    24A     -0.576690
      25A     -0.559611    26A     -0.547501    27A     -0.530953
      28A     -0.527919    29A     -0.501558    30A     -0.476042
      31A     -0.420186    32A     -0.377138    33A     -0.315909

  @DF-RHF Final Energy:  -399.76652676571342

   => Energetics <=

    Nuclear Repulsion Energy =            435.8836315681361953
    One-Electron Energy =               -1407.1677946216007058
    Two-Electron Energy =                 571.5176362877509746
    Total Energy =                       -399.7665267657134791
  Basis Set: (AUG-CC-PVTZ AUX)
    Blend: AUG-CC-PVTZ-RI
    Molecular point group: c1

    Geometry (in Angstrom), charge = 0, multiplicity = 1:

       Center              X                  Y                   Z               Mass
    ------------   -----------------  -----------------  -----------------  -----------------
         O            1.729053463698     0.393734671527     0.000008467368    15.994914619570
         N            0.178246163698    -1.318724728473     0.000005467368    14.003074004430
         C           -0.542619536302     0.981219671527    -0.000000532632    12.000000000000
         C            0.437001463698    -0.035804328473     0.000005467368    12.000000000000
         C           -1.865518536302     0.555642671527    -0.000003532632    12.000000000000
         C           -0.133634536302     2.424475671527    -0.000001532632    12.000000000000
         C           -2.164801536302    -0.812876328473    -0.000003532632    12.000000000000
         C           -1.112916536302    -1.717236328473     0.000000467368    12.000000000000
         C            2.724503463698    -0.639940328473    -0.000009532632    12.000000000000
         H           -2.665210536302     1.294445671527    -0.000008532632     1.007825032230
         H           -1.013115536302     3.073816671527    -0.000018532632     1.007825032230
         H            0.475141463698     2.655082671527     0.879101467368     1.007825032230
         H            0.475170463698     2.655073671527    -0.879086532632     1.007825032230
         H           -3.192604536302    -1.163408328473    -0.000005532632     1.007825032230
         H           -1.291175536302    -2.790812328473     0.000000467368     1.007825032230
         H            2.633188463698    -1.268656328473    -0.888113532632     1.007825032230
         H            2.633236463698    -1.268641328473     0.888110467368     1.007825032230
         H            3.675602463698    -0.108311328473    -0.000038532632     1.007825032230

  Basis Set: AUG-CC-PVTZ
    Blend: AUG-CC-PVTZ
  Basis Set: (AUG-CC-PVTZ AUX)
    Blend: AUG-CC-PVTZ-JKFIT
	 Reference Energy          =    -399.7665267657134223 [Eh]
	 Singles Energy            =      -0.0000000000000000 [Eh]
	 Same-Spin Energy          =      -0.4235423010858821 [Eh]
	 Opposite-Spin Energy      =      -1.3360405533568978 [Eh]
	 Correlation Energy        =      -1.7595828544427798 [Eh]
	 Total Energy              =    -401.5261096201562054 [Eh]

	 ================> DF-SCS-MP2 Energies <==================
	-----------------------------------------------------------
	 SCS Same-Spin Scale       =       0.3333333333333333 [-]
	 SCS Opposite-Spin Scale   =       1.2000000000000000 [-]
	 SCS Same-Spin Energy      =      -0.1411807670286274 [Eh]
	 SCS Opposite-Spin Energy  =      -1.6032486640282773 [Eh]
	 SCS Correlation Energy    =      -1.7444294310569046 [Eh]
	 SCS Total Energy          =    -401.5109561967703371 [Eh]
	-----------------------------------------------------------

  Dipole Moment: [D]
     X:    -0.5412      Y:     0.5969      Z:    -0.0000     Total:     0.8057

*** Psi4 exiting successfully. Buy a developer a beer!
