                               Psi4 1.4a3.dev225

  ==> Input File <==

--------------------------------------------------------------------------
#psi4
#
memory 32 gb

molecule  {
0 1
  O        1.7152690     0.3729450     0.0000090
  N        0.1712200    -1.3621090     0.0000060
  C       -0.5564040     0.9604300     0.0000000
  C        0.4232170    -0.0565940     0.0000060
  C       -1.8793030     0.5348530    -0.0000030
  C       -0.1474190     2.4036860    -0.0000010
  C       -2.1785860    -0.8336660    -0.0000030
  C       -1.1267010    -1.7380260     0.0000010
  C        2.7107190    -0.6607300    -0.0000090
  H       -2.6789950     1.2736560    -0.0000080
  H       -1.0269000     3.0530270    -0.0000180
  H        0.4322951     2.6232850     0.9012857
  H        0.4613860     2.6342840    -0.8790860
  H       -3.2063890    -1.1841980    -0.0000050
  H       -1.3049600    -2.8116020     0.0000010
  H        2.6194040    -1.2894460    -0.8881130
  H        2.6194520    -1.2894310     0.8881110
  H        3.6618180    -0.1291010    -0.0000380
units angstrom
no_reorient  #important for SAPT in psi4, default
symmetry c1  #important for SAPT in psi4, default
}

set PROPERTIES_ORIGIN ["COM"]
properties('MP2/aug-cc-pvtz', properties = ['dipole'])
--------------------------------------------------------------------------

    Molecular point group: c1
  Charge       = 0
  Multiplicity = 1
  Basis Set: AUG-CC-PVTZ
    Blend: AUG-CC-PVTZ
  Basis Set: (AUG-CC-PVTZ AUX)
    Blend: AUG-CC-PVTZ-JKFIT

    Orbital Energies [Eh]
    ---------------------

    Doubly Occupied:

       1A    -20.586775     2A    -15.558914     3A    -11.332046
       4A    -11.273975     5A    -11.273772     6A    -11.254192
       7A    -11.241641     8A    -11.230263     9A    -11.224457
      10A     -1.415290    11A     -1.244339    12A     -1.099668
      13A     -1.040160    14A     -0.955706    15A     -0.935276
      16A     -0.835596    17A     -0.824840    18A     -0.719773
      19A     -0.688216    20A     -0.653772    21A     -0.648080
      22A     -0.603579    23A     -0.589033    24A     -0.579373
      25A     -0.559882    26A     -0.546822    27A     -0.530399
      28A     -0.527278    29A     -0.500528    30A     -0.476489
      31A     -0.422740    32A     -0.376741    33A     -0.315339

  @DF-RHF Final Energy:  -399.76550097412235

   => Energetics <=

    Nuclear Repulsion Energy =            435.3320685291638483
    One-Electron Energy =               -1406.0652287461091419
    Two-Electron Energy =                 570.9676592428229469
    Total Energy =                       -399.7655009741223466
  Basis Set: (AUG-CC-PVTZ AUX)
    Blend: AUG-CC-PVTZ-RI
    Molecular point group: c1

    Geometry (in Angstrom), charge = 0, multiplicity = 1:

       Center              X                  Y                   Z               Mass
    ------------   -----------------  -----------------  -----------------  -----------------
         O            1.728522477211     0.396395695452    -0.000173198158    15.994914619570
         N            0.184473477211    -1.338658304548    -0.000176198158    14.003074004430
         C           -0.543150522789     0.983880695452    -0.000182198158    12.000000000000
         C            0.436470477211    -0.033143304548    -0.000176198158    12.000000000000
         C           -1.866049522789     0.558303695452    -0.000185198158    12.000000000000
         C           -0.134165522789     2.427136695452    -0.000183198158    12.000000000000
         C           -2.165332522789    -0.810215304548    -0.000185198158    12.000000000000
         C           -1.113447522789    -1.714575304548    -0.000181198158    12.000000000000
         C            2.723972477211    -0.637279304548    -0.000191198158    12.000000000000
         H           -2.665741522789     1.297106695452    -0.000190198158     1.007825032230
         H           -1.013646522789     3.076477695452    -0.000200198158     1.007825032230
         H            0.445548577211     2.646735695452     0.901103501842     1.007825032230
         H            0.474639477211     2.657734695452    -0.879268198158     1.007825032230
         H           -3.193135522789    -1.160747304548    -0.000187198158     1.007825032230
         H           -1.291706522789    -2.788151304548    -0.000181198158     1.007825032230
         H            2.632657477211    -1.265995304548    -0.888295198158     1.007825032230
         H            2.632705477211    -1.265980304548     0.887928801842     1.007825032230
         H            3.675071477211    -0.105650304548    -0.000220198158     1.007825032230

  Basis Set: AUG-CC-PVTZ
    Blend: AUG-CC-PVTZ
  Basis Set: (AUG-CC-PVTZ AUX)
    Blend: AUG-CC-PVTZ-JKFIT
	 Reference Energy          =    -399.7655009741223466 [Eh]
	 Singles Energy            =      -0.0000000000000000 [Eh]
	 Same-Spin Energy          =      -0.4237660433202312 [Eh]
	 Opposite-Spin Energy      =      -1.3366829057202045 [Eh]
	 Correlation Energy        =      -1.7604489490404358 [Eh]
	 Total Energy              =    -401.5259499231627842 [Eh]

	 ================> DF-SCS-MP2 Energies <==================
	-----------------------------------------------------------
	 SCS Same-Spin Scale       =       0.3333333333333333 [-]
	 SCS Opposite-Spin Scale   =       1.2000000000000000 [-]
	 SCS Same-Spin Energy      =      -0.1412553477734104 [Eh]
	 SCS Opposite-Spin Energy  =      -1.6040194868642454 [Eh]
	 SCS Correlation Energy    =      -1.7452748346376559 [Eh]
	 SCS Total Energy          =    -401.5107758087600018 [Eh]
	-----------------------------------------------------------

  Dipole Moment: [D]
     X:    -0.5390      Y:     0.6552      Z:     0.0055     Total:     0.8485

*** Psi4 exiting successfully. Buy a developer a beer!
