                               Psi4 1.4a3.dev225

  ==> Input File <==

--------------------------------------------------------------------------
#psi4
#
memory 32 gb

molecule  {
0 1
  O        1.7152690     0.3729450     0.0000090
  N        0.1712200    -1.3621090     0.0000060
  C       -0.5564040     0.9604300     0.0000000
  C        0.4232170    -0.0565940     0.0000060
  C       -1.9165409     0.6754650    -0.0000033
  C       -0.1474190     2.4036860    -0.0000010
  C       -2.1785860    -0.8336660    -0.0000030
  C       -1.1267010    -1.7380260     0.0000010
  C        2.7107190    -0.6607300    -0.0000090
  H       -2.6789950     1.2736560    -0.0000080
  H       -1.0269000     3.0530270    -0.0000180
  H        0.4613570     2.6342930     0.8791020
  H        0.4613860     2.6342840    -0.8790860
  H       -3.2063890    -1.1841980    -0.0000050
  H       -1.3049600    -2.8116020     0.0000010
  H        2.6194040    -1.2894460    -0.8881130
  H        2.6194520    -1.2894310     0.8881110
  H        3.6618180    -0.1291010    -0.0000380
units angstrom
no_reorient  #important for SAPT in psi4, default
symmetry c1  #important for SAPT in psi4, default
}

set PROPERTIES_ORIGIN ["COM"]
properties('MP2/aug-cc-pvtz', properties = ['dipole'])
--------------------------------------------------------------------------

    Molecular point group: c1
  Charge       = 0
  Multiplicity = 1
  Basis Set: AUG-CC-PVTZ
    Blend: AUG-CC-PVTZ
  Basis Set: (AUG-CC-PVTZ AUX)
    Blend: AUG-CC-PVTZ-JKFIT

    Orbital Energies [Eh]
    ---------------------

    Doubly Occupied:

       1A    -20.590216     2A    -15.558715     3A    -11.337107
       4A    -11.275734     5A    -11.270125     6A    -11.258848
       7A    -11.247929     8A    -11.240278     9A    -11.222292
      10A     -1.418071    11A     -1.240900    12A     -1.098443
      13A     -1.027086    14A     -0.955016    15A     -0.936196
      16A     -0.850986    17A     -0.819652    18A     -0.727387
      19A     -0.687574    20A     -0.655556    21A     -0.639419
      22A     -0.624671    23A     -0.589032    24A     -0.577415
      25A     -0.576232    26A     -0.550026    27A     -0.527139
      28A     -0.519363    29A     -0.484086    30A     -0.474024
      31A     -0.424374    32A     -0.368857    33A     -0.315364

  @DF-RHF Final Energy:  -399.73694016480567

   => Energetics <=

    Nuclear Repulsion Energy =            433.5240353844251899
    One-Electron Energy =               -1402.3457251591289605
    Two-Electron Energy =                 569.0847496098981537
    Total Energy =                       -399.7369401648056737
  Basis Set: (AUG-CC-PVTZ AUX)
    Blend: AUG-CC-PVTZ-RI
    Molecular point group: c1

    Geometry (in Angstrom), charge = 0, multiplicity = 1:

       Center              X                  Y                   Z               Mass
    ------------   -----------------  -----------------  -----------------  -----------------
         O            1.731915431393     0.382594931438     0.000008496620    15.994914619570
         N            0.187866431393    -1.352459068562     0.000005496620    14.003074004430
         C           -0.539757568607     0.970079931438    -0.000000503380    12.000000000000
         C            0.439863431393    -0.046944068562     0.000005496620    12.000000000000
         C           -1.899894468607     0.685114931438    -0.000003803380    12.000000000000
         C           -0.130772568607     2.413335931438    -0.000001503380    12.000000000000
         C           -2.161939568607    -0.824016068562    -0.000003503380    12.000000000000
         C           -1.110054568607    -1.728376068562     0.000000496620    12.000000000000
         C            2.727365431393    -0.651080068562    -0.000009503380    12.000000000000
         H           -2.662348568607     1.283305931438    -0.000008503380     1.007825032230
         H           -1.010253568607     3.062676931438    -0.000018503380     1.007825032230
         H            0.478003431393     2.643942931438     0.879101496620     1.007825032230
         H            0.478032431393     2.643933931438    -0.879086503380     1.007825032230
         H           -3.189742568607    -1.174548068562    -0.000005503380     1.007825032230
         H           -1.288313568607    -2.801952068562     0.000000496620     1.007825032230
         H            2.636050431393    -1.279796068562    -0.888113503380     1.007825032230
         H            2.636098431393    -1.279781068562     0.888110496620     1.007825032230
         H            3.678464431393    -0.119451068562    -0.000038503380     1.007825032230

  Basis Set: AUG-CC-PVTZ
    Blend: AUG-CC-PVTZ
  Basis Set: (AUG-CC-PVTZ AUX)
    Blend: AUG-CC-PVTZ-JKFIT
	 Reference Energy          =    -399.7369401648056737 [Eh]
	 Singles Energy            =      -0.0000000000000000 [Eh]
	 Same-Spin Energy          =      -0.4235129454290861 [Eh]
	 Opposite-Spin Energy      =      -1.3385718520474008 [Eh]
	 Correlation Energy        =      -1.7620847974764868 [Eh]
	 Total Energy              =    -401.4990249622821352 [Eh]

	 ================> DF-SCS-MP2 Energies <==================
	-----------------------------------------------------------
	 SCS Same-Spin Scale       =       0.3333333333333333 [-]
	 SCS Opposite-Spin Scale   =       1.2000000000000000 [-]
	 SCS Same-Spin Energy      =      -0.1411709818096954 [Eh]
	 SCS Opposite-Spin Energy  =      -1.6062862224568810 [Eh]
	 SCS Correlation Energy    =      -1.7474572042665764 [Eh]
	 SCS Total Energy          =    -401.4843973690722692 [Eh]
	-----------------------------------------------------------

  Dipole Moment: [D]
     X:    -0.4801      Y:     0.7075      Z:    -0.0000     Total:     0.8550

*** Psi4 exiting successfully. Buy a developer a beer!
