                               Psi4 1.4a3.dev225

  ==> Input File <==

--------------------------------------------------------------------------
#psi4
#
memory 32 gb

molecule  {
0 1
  O        1.7152690     0.3729450     0.0000090
  N        0.1712200    -1.3621090     0.0000060
  C       -0.5564040     0.9604300     0.0000000
  C        0.4232170    -0.0565940     0.0000060
  C       -1.8793030     0.5348530    -0.0000030
  C       -0.1474190     2.4036860    -0.0000010
  C       -2.1785860    -0.8336660    -0.0000030
  C       -1.1267010    -1.7380260     0.0000010
  C        2.7107190    -0.6607300    -0.0000090
  H       -2.7524467     1.3415150    -0.0000085
  H       -1.0269000     3.0530270    -0.0000180
  H        0.4613570     2.6342930     0.8791020
  H        0.4613860     2.6342840    -0.8790860
  H       -3.2063890    -1.1841980    -0.0000050
  H       -1.3049600    -2.8116020     0.0000010
  H        2.6194040    -1.2894460    -0.8881130
  H        2.6194520    -1.2894310     0.8881110
  H        3.6618180    -0.1291010    -0.0000380
units angstrom
no_reorient  #important for SAPT in psi4, default
symmetry c1  #important for SAPT in psi4, default
}

set PROPERTIES_ORIGIN ["COM"]
properties('MP2/aug-cc-pvtz', properties = ['dipole'])
--------------------------------------------------------------------------

    Molecular point group: c1
  Charge       = 0
  Multiplicity = 1
  Basis Set: AUG-CC-PVTZ
    Blend: AUG-CC-PVTZ
  Basis Set: (AUG-CC-PVTZ AUX)
    Blend: AUG-CC-PVTZ-JKFIT

    Orbital Energies [Eh]
    ---------------------

    Doubly Occupied:

       1A    -20.587365     2A    -15.559460     3A    -11.333012
       4A    -11.274673     5A    -11.274378     6A    -11.265530
       7A    -11.242943     8A    -11.231437     9A    -11.224302
      10A     -1.415866    11A     -1.245029    12A     -1.098401
      13A     -1.040408    14A     -0.955904    15A     -0.934569
      16A     -0.832079    17A     -0.822750    18A     -0.715835
      19A     -0.688441    20A     -0.654179    21A     -0.647841
      22A     -0.598562    23A     -0.589998    24A     -0.576853
      25A     -0.552142    26A     -0.544147    27A     -0.529795
      28A     -0.528011    29A     -0.502018    30A     -0.477073
      31A     -0.422658    32A     -0.377353    33A     -0.316032

  @DF-RHF Final Energy:  -399.75826653380051

   => Energetics <=

    Nuclear Repulsion Energy =            434.8303623628294758
    One-Electron Energy =               -1405.0591725283070446
    Two-Electron Energy =                 570.4705436316771738
    Total Energy =                       -399.7582665338004517
  Basis Set: (AUG-CC-PVTZ AUX)
    Blend: AUG-CC-PVTZ-RI
    Molecular point group: c1

    Geometry (in Angstrom), charge = 0, multiplicity = 1:

       Center              X                  Y                   Z               Mass
    ------------   -----------------  -----------------  -----------------  -----------------
         O            1.728885991700     0.395749842188     0.000008471463    15.994914619570
         N            0.184836991700    -1.339304157812     0.000005471463    14.003074004430
         C           -0.542787008300     0.983234842188    -0.000000528537    12.000000000000
         C            0.436833991700    -0.033789157812     0.000005471463    12.000000000000
         C           -1.865686008300     0.557657842188    -0.000003528537    12.000000000000
         C           -0.133802008300     2.426490842188    -0.000001528537    12.000000000000
         C           -2.164969008300    -0.810861157812    -0.000003528537    12.000000000000
         C           -1.113084008300    -1.715221157812     0.000000471463    12.000000000000
         C            2.724335991700    -0.637925157812    -0.000009528537    12.000000000000
         H           -2.738829708300     1.364319842188    -0.000009028537     1.007825032230
         H           -1.013283008300     3.075831842188    -0.000018528537     1.007825032230
         H            0.474973991700     2.657097842188     0.879101471463     1.007825032230
         H            0.475002991700     2.657088842188    -0.879086528537     1.007825032230
         H           -3.192772008300    -1.161393157812    -0.000005528537     1.007825032230
         H           -1.291343008300    -2.788797157812     0.000000471463     1.007825032230
         H            2.633020991700    -1.266641157812    -0.888113528537     1.007825032230
         H            2.633068991700    -1.266626157812     0.888110471463     1.007825032230
         H            3.675434991700    -0.106296157812    -0.000038528537     1.007825032230

  Basis Set: AUG-CC-PVTZ
    Blend: AUG-CC-PVTZ
  Basis Set: (AUG-CC-PVTZ AUX)
    Blend: AUG-CC-PVTZ-JKFIT
	 Reference Energy          =    -399.7582665338005086 [Eh]
	 Singles Energy            =      -0.0000000000000000 [Eh]
	 Same-Spin Energy          =      -0.4240184733711928 [Eh]
	 Opposite-Spin Energy      =      -1.3375596096304125 [Eh]
	 Correlation Energy        =      -1.7615780830016052 [Eh]
	 Total Energy              =    -401.5198446168021178 [Eh]

	 ================> DF-SCS-MP2 Energies <==================
	-----------------------------------------------------------
	 SCS Same-Spin Scale       =       0.3333333333333333 [-]
	 SCS Opposite-Spin Scale   =       1.2000000000000000 [-]
	 SCS Same-Spin Energy      =      -0.1413394911237309 [Eh]
	 SCS Opposite-Spin Energy  =      -1.6050715315564950 [Eh]
	 SCS Correlation Energy    =      -1.7464110226802259 [Eh]
	 SCS Total Energy          =    -401.5046775564807149 [Eh]
	-----------------------------------------------------------

  Dipole Moment: [D]
     X:    -0.4922      Y:     0.6183      Z:    -0.0000     Total:     0.7903

*** Psi4 exiting successfully. Buy a developer a beer!
