                               Psi4 1.4a3.dev225

  ==> Input File <==

--------------------------------------------------------------------------
#psi4
#
memory 32 gb

molecule  {
0 1
  O        1.7152690     0.3729450     0.0000090
  N        0.1712200    -1.3621090     0.0000060
  C       -0.5564040     0.9604300     0.0000000
  C        0.4232170    -0.0565940     0.0000060
  C       -1.8793030     0.5348530    -0.0000030
  C       -0.1474190     2.4036860    -0.0000010
  C       -2.1785860    -0.8336660    -0.0000030
  C       -1.1267010    -1.7380260     0.0000010
  C        2.7107190    -0.6607300    -0.0000090
  H       -2.6789950     1.2736560    -0.0000080
  H       -1.0269000     3.0530270    -0.0000180
  H        0.4613570     2.6342930     0.8791020
  H        0.4892134     2.6448242    -0.9192674
  H       -3.2063890    -1.1841980    -0.0000050
  H       -1.3049600    -2.8116020     0.0000010
  H        2.6194040    -1.2894460    -0.8881130
  H        2.6194520    -1.2894310     0.8881110
  H        3.6618180    -0.1291010    -0.0000380
units angstrom
no_reorient  #important for SAPT in psi4, default
symmetry c1  #important for SAPT in psi4, default
}

set PROPERTIES_ORIGIN ["COM"]
properties('MP2/aug-cc-pvtz', properties = ['dipole'])
--------------------------------------------------------------------------

    Molecular point group: c1
  Charge       = 0
  Multiplicity = 1
  Basis Set: AUG-CC-PVTZ
    Blend: AUG-CC-PVTZ
  Basis Set: (AUG-CC-PVTZ AUX)
    Blend: AUG-CC-PVTZ-JKFIT

    Orbital Energies [Eh]
    ---------------------

    Doubly Occupied:

       1A    -20.586916     2A    -15.559115     3A    -11.332342
       4A    -11.274083     5A    -11.274045     6A    -11.254670
       7A    -11.242281     8A    -11.230536     9A    -11.230215
      10A     -1.415407    11A     -1.244584    12A     -1.099525
      13A     -1.039932    14A     -0.954137    15A     -0.934056
      16A     -0.835327    17A     -0.824596    18A     -0.719898
      19A     -0.688446    20A     -0.653646    21A     -0.648212
      22A     -0.603861    23A     -0.589315    24A     -0.572142
      25A     -0.560147    26A     -0.547188    27A     -0.528658
      28A     -0.526040    29A     -0.500519    30A     -0.476612
      31A     -0.422998    32A     -0.376688    33A     -0.315321

  @DF-RHF Final Energy:  -399.76353939162277

   => Energetics <=

    Nuclear Repulsion Energy =            435.1095177626348232
    One-Electron Energy =               -1405.6232017912834635
    Two-Electron Energy =                 570.7501446370258691
    Total Energy =                       -399.7635393916227713
  Basis Set: (AUG-CC-PVTZ AUX)
    Blend: AUG-CC-PVTZ-RI
    Molecular point group: c1

    Geometry (in Angstrom), charge = 0, multiplicity = 1:

       Center              X                  Y                   Z               Mass
    ------------   -----------------  -----------------  -----------------  -----------------
         O            1.728056602509     0.396219234127     0.000337518662    15.994914619570
         N            0.184007602509    -1.338834765873     0.000334518662    14.003074004430
         C           -0.543616397491     0.983704234127     0.000328518662    12.000000000000
         C            0.436004602509    -0.033319765873     0.000334518662    12.000000000000
         C           -1.866515397491     0.558127234127     0.000325518662    12.000000000000
         C           -0.134631397491     2.426960234127     0.000327518662    12.000000000000
         C           -2.165798397491    -0.810391765873     0.000325518662    12.000000000000
         C           -1.113913397491    -1.714751765873     0.000329518662    12.000000000000
         C            2.723506602509    -0.637455765873     0.000319518662    12.000000000000
         H           -2.666207397491     1.296930234127     0.000320518662     1.007825032230
         H           -1.014112397491     3.076301234127     0.000310518662     1.007825032230
         H            0.474144602509     2.657567234127     0.879430518662     1.007825032230
         H            0.502001002509     2.668098434127    -0.918938881338     1.007825032230
         H           -3.193601397491    -1.160923765873     0.000323518662     1.007825032230
         H           -1.292172397491    -2.788327765873     0.000329518662     1.007825032230
         H            2.632191602509    -1.266171765873    -0.887784481338     1.007825032230
         H            2.632239602509    -1.266156765873     0.888439518662     1.007825032230
         H            3.674605602509    -0.105826765873     0.000290518662     1.007825032230

  Basis Set: AUG-CC-PVTZ
    Blend: AUG-CC-PVTZ
  Basis Set: (AUG-CC-PVTZ AUX)
    Blend: AUG-CC-PVTZ-JKFIT
	 Reference Energy          =    -399.7635393916227713 [Eh]
	 Singles Energy            =      -0.0000000000000000 [Eh]
	 Same-Spin Energy          =      -0.4237779919340521 [Eh]
	 Opposite-Spin Energy      =      -1.3369836988018147 [Eh]
	 Correlation Energy        =      -1.7607616907358667 [Eh]
	 Total Energy              =    -401.5243010823586474 [Eh]

	 ================> DF-SCS-MP2 Energies <==================
	-----------------------------------------------------------
	 SCS Same-Spin Scale       =       0.3333333333333333 [-]
	 SCS Opposite-Spin Scale   =       1.2000000000000000 [-]
	 SCS Same-Spin Energy      =      -0.1412593306446840 [Eh]
	 SCS Opposite-Spin Energy  =      -1.6043804385621776 [Eh]
	 SCS Correlation Energy    =      -1.7456397692068617 [Eh]
	 SCS Total Energy          =    -401.5091791608296603 [Eh]
	-----------------------------------------------------------

  Dipole Moment: [D]
     X:    -0.5363      Y:     0.6363      Z:     0.0135     Total:     0.8323

*** Psi4 exiting successfully. Buy a developer a beer!
