                               Psi4 1.4a3.dev225

  ==> Input File <==

--------------------------------------------------------------------------
#psi4
#
memory 32 gb

molecule  {
0 1
  O        1.7152690     0.3729450     0.0000090
  N        0.1712200    -1.3621090     0.0000060
  C       -0.5564040     0.9604300     0.0000000
  C        0.4232170    -0.0565940     0.0000060
  C       -1.8793030     0.5348530    -0.0000030
  C       -0.1474190     2.4036860    -0.0000010
  C       -2.1785860    -0.8336660    -0.0000030
  C       -1.1267010    -1.7380260     0.0000010
  C        2.7107190    -0.6607300    -0.0000090
  H       -2.8258984     1.4093741    -0.0000089
  H       -1.0269000     3.0530270    -0.0000180
  H        0.4613570     2.6342930     0.8791020
  H        0.4613860     2.6342840    -0.8790860
  H       -3.2063890    -1.1841980    -0.0000050
  H       -1.3049600    -2.8116020     0.0000010
  H        2.6194040    -1.2894460    -0.8881130
  H        2.6194520    -1.2894310     0.8881110
  H        3.6618180    -0.1291010    -0.0000380
units angstrom
no_reorient  #important for SAPT in psi4, default
symmetry c1  #important for SAPT in psi4, default
}

set PROPERTIES_ORIGIN ["COM"]
properties('MP2/aug-cc-pvtz', properties = ['dipole'])
--------------------------------------------------------------------------

    Molecular point group: c1
  Charge       = 0
  Multiplicity = 1
  Basis Set: AUG-CC-PVTZ
    Blend: AUG-CC-PVTZ
  Basis Set: (AUG-CC-PVTZ AUX)
    Blend: AUG-CC-PVTZ-JKFIT

    Orbital Energies [Eh]
    ---------------------

    Doubly Occupied:

       1A    -20.587966     2A    -15.560136     3A    -11.334065
       4A    -11.275789     5A    -11.275661     6A    -11.274805
       7A    -11.244287     8A    -11.232781     9A    -11.224286
      10A     -1.416472    11A     -1.245835    12A     -1.097945
      13A     -1.040961    14A     -0.956245    15A     -0.934334
      16A     -0.831329    17A     -0.819979    18A     -0.713079
      19A     -0.688649    20A     -0.654721    21A     -0.647779
      22A     -0.595806    23A     -0.590115    24A     -0.577110
      25A     -0.550127    26A     -0.535002    27A     -0.530333
      28A     -0.524865    29A     -0.502657    30A     -0.477716
      31A     -0.422414    32A     -0.378235    33A     -0.316870

  @DF-RHF Final Energy:  -399.74351294568851

   => Energetics <=

    Nuclear Repulsion Energy =            434.3908981196183845
    One-Electron Energy =               -1404.1521169019520130
    Two-Electron Energy =                 570.0177058366450638
    Total Energy =                       -399.7435129456885079
  Basis Set: (AUG-CC-PVTZ AUX)
    Blend: AUG-CC-PVTZ-RI
    Molecular point group: c1

    Geometry (in Angstrom), charge = 0, multiplicity = 1:

       Center              X                  Y                   Z               Mass
    ------------   -----------------  -----------------  -----------------  -----------------
         O            1.729487498289     0.395194134208     0.000008474739    15.994914619570
         N            0.185438498289    -1.339859865792     0.000005474739    14.003074004430
         C           -0.542185501711     0.982679134208    -0.000000525261    12.000000000000
         C            0.437435498289    -0.034344865792     0.000005474739    12.000000000000
         C           -1.865084501711     0.557102134208    -0.000003525261    12.000000000000
         C           -0.133200501711     2.425935134208    -0.000001525261    12.000000000000
         C           -2.164367501711    -0.811416865792    -0.000003525261    12.000000000000
         C           -1.112482501711    -1.715776865792     0.000000474739    12.000000000000
         C            2.724937498289    -0.638480865792    -0.000009525261    12.000000000000
         H           -2.811679901711     1.431623234208    -0.000009425261     1.007825032230
         H           -1.012681501711     3.075276134208    -0.000018525261     1.007825032230
         H            0.475575498289     2.656542134208     0.879101474739     1.007825032230
         H            0.475604498289     2.656533134208    -0.879086525261     1.007825032230
         H           -3.192170501711    -1.161948865792    -0.000005525261     1.007825032230
         H           -1.290741501711    -2.789352865792     0.000000474739     1.007825032230
         H            2.633622498289    -1.267196865792    -0.888113525261     1.007825032230
         H            2.633670498289    -1.267181865792     0.888110474739     1.007825032230
         H            3.676036498289    -0.106851865792    -0.000038525261     1.007825032230

  Basis Set: AUG-CC-PVTZ
    Blend: AUG-CC-PVTZ
  Basis Set: (AUG-CC-PVTZ AUX)
    Blend: AUG-CC-PVTZ-JKFIT
	 Reference Energy          =    -399.7435129456885079 [Eh]
	 Singles Energy            =      -0.0000000000000000 [Eh]
	 Same-Spin Energy          =      -0.4243296309501372 [Eh]
	 Opposite-Spin Energy      =      -1.3387865202246321 [Eh]
	 Correlation Energy        =      -1.7631161511747693 [Eh]
	 Total Energy              =    -401.5066290968632643 [Eh]

	 ================> DF-SCS-MP2 Energies <==================
	-----------------------------------------------------------
	 SCS Same-Spin Scale       =       0.3333333333333333 [-]
	 SCS Opposite-Spin Scale   =       1.2000000000000000 [-]
	 SCS Same-Spin Energy      =      -0.1414432103167124 [Eh]
	 SCS Opposite-Spin Energy  =      -1.6065438242695584 [Eh]
	 SCS Correlation Energy    =      -1.7479870345862709 [Eh]
	 SCS Total Energy          =    -401.4914999802747957 [Eh]
	-----------------------------------------------------------

  Dipole Moment: [D]
     X:    -0.4439      Y:     0.5730      Z:    -0.0000     Total:     0.7248

*** Psi4 exiting successfully. Buy a developer a beer!
