                               Psi4 1.4a3.dev225

  ==> Input File <==

--------------------------------------------------------------------------
#psi4
#
memory 32 gb

molecule  {
0 1
  O        1.7152690     0.3729450     0.0000090
  N        0.1712200    -1.3621090     0.0000060
  C       -0.5640328     0.9834530    -0.0000000
  C        0.4232170    -0.0565940     0.0000060
  C       -1.8793030     0.5348530    -0.0000030
  C       -0.1474190     2.4036860    -0.0000010
  C       -2.1785860    -0.8336660    -0.0000030
  C       -1.1267010    -1.7380260     0.0000010
  C        2.7107190    -0.6607300    -0.0000090
  H       -2.6789950     1.2736560    -0.0000080
  H       -1.0269000     3.0530270    -0.0000180
  H        0.4613570     2.6342930     0.8791020
  H        0.4613860     2.6342840    -0.8790860
  H       -3.2063890    -1.1841980    -0.0000050
  H       -1.3049600    -2.8116020     0.0000010
  H        2.6194040    -1.2894460    -0.8881130
  H        2.6194520    -1.2894310     0.8881110
  H        3.6618180    -0.1291010    -0.0000380
units angstrom
no_reorient  #important for SAPT in psi4, default
symmetry c1  #important for SAPT in psi4, default
}

set PROPERTIES_ORIGIN ["COM"]
properties('MP2/aug-cc-pvtz', properties = ['dipole'])
--------------------------------------------------------------------------

    Molecular point group: c1
  Charge       = 0
  Multiplicity = 1
  Basis Set: AUG-CC-PVTZ
    Blend: AUG-CC-PVTZ
  Basis Set: (AUG-CC-PVTZ AUX)
    Blend: AUG-CC-PVTZ-JKFIT

    Orbital Energies [Eh]
    ---------------------

    Doubly Occupied:

       1A    -20.587757     2A    -15.558830     3A    -11.334846
       4A    -11.274316     5A    -11.273602     6A    -11.253610
       7A    -11.243651     8A    -11.229897     9A    -11.223936
      10A     -1.415766    11A     -1.243507    12A     -1.100412
      13A     -1.039856    14A     -0.957486    15A     -0.935818
      16A     -0.831988    17A     -0.825293    18A     -0.719649
      19A     -0.688216    20A     -0.653805    21A     -0.648364
      22A     -0.604801    23A     -0.590306    24A     -0.578258
      25A     -0.560503    26A     -0.544882    27A     -0.530942
      28A     -0.529060    29A     -0.503063    30A     -0.476685
      31A     -0.421984    32A     -0.376995    33A     -0.313107

  @DF-RHF Final Energy:  -399.76448528831139

   => Energetics <=

    Nuclear Repulsion Energy =            435.0443601497225927
    One-Electron Energy =               -1405.4753134400757517
    Two-Electron Energy =                 570.6664680020418245
    Total Energy =                       -399.7644852883113344
  Basis Set: (AUG-CC-PVTZ AUX)
    Blend: AUG-CC-PVTZ-RI
    Molecular point group: c1

    Geometry (in Angstrom), charge = 0, multiplicity = 1:

       Center              X                  Y                   Z               Mass
    ------------   -----------------  -----------------  -----------------  -----------------
         O            1.729028344539     0.394060651643     0.000008467368    15.994914619570
         N            0.184979344539    -1.340993348357     0.000005467368    14.003074004430
         C           -0.550273455461     1.004568651643    -0.000000532632    12.000000000000
         C            0.436976344539    -0.035478348357     0.000005467368    12.000000000000
         C           -1.865543655461     0.555968651643    -0.000003532632    12.000000000000
         C           -0.133659655461     2.424801651643    -0.000001532632    12.000000000000
         C           -2.164826655461    -0.812550348357    -0.000003532632    12.000000000000
         C           -1.112941655461    -1.716910348357     0.000000467368    12.000000000000
         C            2.724478344539    -0.639614348357    -0.000009532632    12.000000000000
         H           -2.665235655461     1.294771651643    -0.000008532632     1.007825032230
         H           -1.013140655461     3.074142651643    -0.000018532632     1.007825032230
         H            0.475116344539     2.655408651643     0.879101467368     1.007825032230
         H            0.475145344539     2.655399651643    -0.879086532632     1.007825032230
         H           -3.192629655461    -1.163082348357    -0.000005532632     1.007825032230
         H           -1.291200655461    -2.790486348357     0.000000467368     1.007825032230
         H            2.633163344539    -1.268330348357    -0.888113532632     1.007825032230
         H            2.633211344539    -1.268315348357     0.888110467368     1.007825032230
         H            3.675577344539    -0.107985348357    -0.000038532632     1.007825032230

  Basis Set: AUG-CC-PVTZ
    Blend: AUG-CC-PVTZ
  Basis Set: (AUG-CC-PVTZ AUX)
    Blend: AUG-CC-PVTZ-JKFIT
	 Reference Energy          =    -399.7644852883113913 [Eh]
	 Singles Energy            =      -0.0000000000000000 [Eh]
	 Same-Spin Energy          =      -0.4238660975311384 [Eh]
	 Opposite-Spin Energy      =      -1.3368947461722853 [Eh]
	 Correlation Energy        =      -1.7607608437034237 [Eh]
	 Total Energy              =    -401.5252461320148427 [Eh]

	 ================> DF-SCS-MP2 Energies <==================
	-----------------------------------------------------------
	 SCS Same-Spin Scale       =       0.3333333333333333 [-]
	 SCS Opposite-Spin Scale   =       1.2000000000000000 [-]
	 SCS Same-Spin Energy      =      -0.1412886991770461 [Eh]
	 SCS Opposite-Spin Energy  =      -1.6042736954067423 [Eh]
	 SCS Correlation Energy    =      -1.7455623945837884 [Eh]
	 SCS Total Energy          =    -401.5100476828951628 [Eh]
	-----------------------------------------------------------

  Dipole Moment: [D]
     X:    -0.4796      Y:     0.6862      Z:    -0.0000     Total:     0.8372

*** Psi4 exiting successfully. Buy a developer a beer!
