                               Psi4 1.4a3.dev225

  ==> Input File <==

--------------------------------------------------------------------------
#psi4
#
memory 32 gb

molecule  {
0 1
  O        1.7519501     0.4070560     0.0000078
  N        0.1712200    -1.3621090     0.0000060
  C       -0.5564040     0.9604300     0.0000000
  C        0.4232170    -0.0565940     0.0000060
  C       -1.8793030     0.5348530    -0.0000030
  C       -0.1474190     2.4036860    -0.0000010
  C       -2.1785860    -0.8336660    -0.0000030
  C       -1.1267010    -1.7380260     0.0000010
  C        2.7107190    -0.6607300    -0.0000090
  H       -2.6789950     1.2736560    -0.0000080
  H       -1.0269000     3.0530270    -0.0000180
  H        0.4613570     2.6342930     0.8791020
  H        0.4613860     2.6342840    -0.8790860
  H       -3.2063890    -1.1841980    -0.0000050
  H       -1.3049600    -2.8116020     0.0000010
  H        2.6194040    -1.2894460    -0.8881130
  H        2.6194520    -1.2894310     0.8881110
  H        3.6618180    -0.1291010    -0.0000380
units angstrom
no_reorient  #important for SAPT in psi4, default
symmetry c1  #important for SAPT in psi4, default
}

set PROPERTIES_ORIGIN ["COM"]
properties('MP2/aug-cc-pvtz', properties = ['dipole'])
--------------------------------------------------------------------------

    Molecular point group: c1
  Charge       = 0
  Multiplicity = 1
  Basis Set: AUG-CC-PVTZ
    Blend: AUG-CC-PVTZ
  Basis Set: (AUG-CC-PVTZ AUX)
    Blend: AUG-CC-PVTZ-JKFIT

    Orbital Energies [Eh]
    ---------------------

    Doubly Occupied:

       1A    -20.586154     2A    -15.563979     3A    -11.334837
       4A    -11.276128     5A    -11.270003     6A    -11.256067
       7A    -11.244992     8A    -11.233918     9A    -11.224950
      10A     -1.398427    11A     -1.247736    12A     -1.101338
      13A     -1.041416    14A     -0.950552    15A     -0.933836
      16A     -0.836182    17A     -0.827262    18A     -0.716014
      19A     -0.686518    20A     -0.647422    21A     -0.646692
      22A     -0.603396    23A     -0.588392    24A     -0.577061
      25A     -0.559539    26A     -0.549955    27A     -0.529155
      28A     -0.528137    29A     -0.499199    30A     -0.473244
      31A     -0.425425    32A     -0.378916    33A     -0.319818

  @DF-RHF Final Energy:  -399.76082689598263

   => Energetics <=

    Nuclear Repulsion Energy =            434.0749975630140511
    One-Electron Energy =               -1403.5583307004703784
    Two-Electron Energy =                 569.7225062414737522
    Total Energy =                       -399.7608268959826319
  Basis Set: (AUG-CC-PVTZ AUX)
    Blend: AUG-CC-PVTZ-RI
    Molecular point group: c1

    Geometry (in Angstrom), charge = 0, multiplicity = 1:

       Center              X                  Y                   Z               Mass
    ------------   -----------------  -----------------  -----------------  -----------------
         O            1.760198228126     0.425983222264     0.000007423330    15.994914619570
         N            0.179468128126    -1.343181777736     0.000005623330    14.003074004430
         C           -0.548155871874     0.979357222264    -0.000000376670    12.000000000000
         C            0.431465128126    -0.037666777736     0.000005623330    12.000000000000
         C           -1.871054871874     0.553780222264    -0.000003376670    12.000000000000
         C           -0.139170871874     2.422613222264    -0.000001376670    12.000000000000
         C           -2.170337871874    -0.814738777736    -0.000003376670    12.000000000000
         C           -1.118452871874    -1.719098777736     0.000000623330    12.000000000000
         C            2.718967128126    -0.641802777736    -0.000009376670    12.000000000000
         H           -2.670746871874     1.292583222264    -0.000008376670     1.007825032230
         H           -1.018651871874     3.071954222264    -0.000018376670     1.007825032230
         H            0.469605128126     2.653220222264     0.879101623330     1.007825032230
         H            0.469634128126     2.653211222264    -0.879086376670     1.007825032230
         H           -3.198140871874    -1.165270777736    -0.000005376670     1.007825032230
         H           -1.296711871874    -2.792674777736     0.000000623330     1.007825032230
         H            2.627652128126    -1.270518777736    -0.888113376670     1.007825032230
         H            2.627700128126    -1.270503777736     0.888110623330     1.007825032230
         H            3.670066128126    -0.110173777736    -0.000038376670     1.007825032230

  Basis Set: AUG-CC-PVTZ
    Blend: AUG-CC-PVTZ
  Basis Set: (AUG-CC-PVTZ AUX)
    Blend: AUG-CC-PVTZ-JKFIT
	 Reference Energy          =    -399.7608268959826319 [Eh]
	 Singles Energy            =      -0.0000000000000000 [Eh]
	 Same-Spin Energy          =      -0.4243125318623176 [Eh]
	 Opposite-Spin Energy      =      -1.3383725693069306 [Eh]
	 Correlation Energy        =      -1.7626851011692481 [Eh]
	 Total Energy              =    -401.5235119971518998 [Eh]

	 ================> DF-SCS-MP2 Energies <==================
	-----------------------------------------------------------
	 SCS Same-Spin Scale       =       0.3333333333333333 [-]
	 SCS Opposite-Spin Scale   =       1.2000000000000000 [-]
	 SCS Same-Spin Energy      =      -0.1414375106207725 [Eh]
	 SCS Opposite-Spin Energy  =      -1.6060470831683167 [Eh]
	 SCS Correlation Energy    =      -1.7474845937890893 [Eh]
	 SCS Total Energy          =    -401.5083114897716996 [Eh]
	-----------------------------------------------------------

  Dipole Moment: [D]
     X:    -0.8492      Y:     0.5835      Z:    -0.0000     Total:     1.0303

*** Psi4 exiting successfully. Buy a developer a beer!
