                               Psi4 1.4a3.dev225

  ==> Input File <==

--------------------------------------------------------------------------
#psi4
#
memory 32 gb

molecule  {
0 1
  O        1.7152690     0.3729450     0.0000090
  N        0.1712200    -1.3621090     0.0000060
  C       -0.5564040     0.9604300     0.0000000
  C        0.4232170    -0.0565940     0.0000060
  C       -1.8793030     0.5348530    -0.0000030
  C       -0.1474190     2.4036860    -0.0000010
  C       -2.1785860    -0.8336660    -0.0000030
  C       -1.1267010    -1.7380260     0.0000010
  C        2.7107190    -0.6607300    -0.0000090
  H       -2.6789950     1.2736560    -0.0000080
  H       -1.0269000     3.0530270    -0.0000180
  H        0.4613570     2.6342930     0.8791020
  H        0.5726954     2.6764448    -1.0398115
  H       -3.2063890    -1.1841980    -0.0000050
  H       -1.3049600    -2.8116020     0.0000010
  H        2.6194040    -1.2894460    -0.8881130
  H        2.6194520    -1.2894310     0.8881110
  H        3.6618180    -0.1291010    -0.0000380
units angstrom
no_reorient  #important for SAPT in psi4, default
symmetry c1  #important for SAPT in psi4, default
}

set PROPERTIES_ORIGIN ["COM"]
properties('MP2/aug-cc-pvtz', properties = ['dipole'])
--------------------------------------------------------------------------

    Molecular point group: c1
  Charge       = 0
  Multiplicity = 1
  Basis Set: AUG-CC-PVTZ
    Blend: AUG-CC-PVTZ
  Basis Set: (AUG-CC-PVTZ AUX)
    Blend: AUG-CC-PVTZ-JKFIT

    Orbital Energies [Eh]
    ---------------------

    Doubly Occupied:

       1A    -20.587113     2A    -15.559736     3A    -11.333237
       4A    -11.275092     5A    -11.274100     6A    -11.256021
       7A    -11.246578     8A    -11.243714     9A    -11.231321
      10A     -1.415584    11A     -1.245341    12A     -1.099853
      13A     -1.039881    14A     -0.951892    15A     -0.930866
      16A     -0.835105    17A     -0.823727    18A     -0.720111
      19A     -0.688775    20A     -0.653557    21A     -0.648556
      22A     -0.604481    23A     -0.589866    24A     -0.565668
      25A     -0.559370    26A     -0.546428    27A     -0.529569
      28A     -0.515620    29A     -0.492500    30A     -0.476845
      31A     -0.423804    32A     -0.376587    33A     -0.315384

  @DF-RHF Final Energy:  -399.74564383212561

   => Energetics <=

    Nuclear Repulsion Energy =            434.5463883283514974
    One-Electron Energy =               -1404.4715036180468815
    Two-Electron Energy =                 570.1794714575698890
    Total Energy =                       -399.7456438321255519
  Basis Set: (AUG-CC-PVTZ AUX)
    Blend: AUG-CC-PVTZ-RI
    Molecular point group: c1

    Geometry (in Angstrom), charge = 0, multiplicity = 1:

       Center              X                  Y                   Z               Mass
    ------------   -----------------  -----------------  -----------------  -----------------
         O            1.727372956343     0.395960288462     0.001324671722    15.994914619570
         N            0.183323956343    -1.339093711538     0.001321671722    14.003074004430
         C           -0.544300043657     0.983445288462     0.001315671722    12.000000000000
         C            0.435320956343    -0.033578711538     0.001321671722    12.000000000000
         C           -1.867199043657     0.557868288462     0.001312671722    12.000000000000
         C           -0.135315043657     2.426701288462     0.001314671722    12.000000000000
         C           -2.166482043657    -0.810650711538     0.001312671722    12.000000000000
         C           -1.114597043657    -1.715010711538     0.001316671722    12.000000000000
         C            2.722822956343    -0.637714711538     0.001306671722    12.000000000000
         H           -2.666891043657     1.296671288462     0.001307671722     1.007825032230
         H           -1.014796043657     3.076042288462     0.001297671722     1.007825032230
         H            0.473460956343     2.657308288462     0.880417671722     1.007825032230
         H            0.584799356343     2.699460088462    -1.038495828278     1.007825032230
         H           -3.194285043657    -1.161182711538     0.001310671722     1.007825032230
         H           -1.292856043657    -2.788586711538     0.001316671722     1.007825032230
         H            2.631507956343    -1.266430711538    -0.886797328278     1.007825032230
         H            2.631555956343    -1.266415711538     0.889426671722     1.007825032230
         H            3.673921956343    -0.106085711538     0.001277671722     1.007825032230

  Basis Set: AUG-CC-PVTZ
    Blend: AUG-CC-PVTZ
  Basis Set: (AUG-CC-PVTZ AUX)
    Blend: AUG-CC-PVTZ-JKFIT
	 Reference Energy          =    -399.7456438321256087 [Eh]
	 Singles Energy            =      -0.0000000000000000 [Eh]
	 Same-Spin Energy          =      -0.4238136974217516 [Eh]
	 Opposite-Spin Energy      =      -1.3381935897075827 [Eh]
	 Correlation Energy        =      -1.7620072871293344 [Eh]
	 Total Energy              =    -401.5076511192549447 [Eh]

	 ================> DF-SCS-MP2 Energies <==================
	-----------------------------------------------------------
	 SCS Same-Spin Scale       =       0.3333333333333333 [-]
	 SCS Opposite-Spin Scale   =       1.2000000000000000 [-]
	 SCS Same-Spin Energy      =      -0.1412712324739172 [Eh]
	 SCS Opposite-Spin Energy  =      -1.6058323076490992 [Eh]
	 SCS Correlation Energy    =      -1.7471035401230164 [Eh]
	 SCS Total Energy          =    -401.4927473722486297 [Eh]
	-----------------------------------------------------------

  Dipole Moment: [D]
     X:    -0.5751      Y:     0.5662      Z:     0.0694     Total:     0.8100

*** Psi4 exiting successfully. Buy a developer a beer!
