                               Psi4 1.4a3.dev225

  ==> Input File <==

--------------------------------------------------------------------------
#psi4
#
memory 32 gb

molecule  {
0 1
  O        1.6798007     0.3375746     0.0000102
  N        0.1712200    -1.3621090     0.0000060
  C       -0.5564040     0.9604300     0.0000000
  C        0.4232170    -0.0565940     0.0000060
  C       -1.8793030     0.5348530    -0.0000030
  C       -0.1474190     2.4036860    -0.0000010
  C       -2.1785860    -0.8336660    -0.0000030
  C       -1.1267010    -1.7380260     0.0000010
  C        2.7107190    -0.6607300    -0.0000090
  H       -2.6789950     1.2736560    -0.0000080
  H       -1.0269000     3.0530270    -0.0000180
  H        0.4613570     2.6342930     0.8791020
  H        0.4613860     2.6342840    -0.8790860
  H       -3.2063890    -1.1841980    -0.0000050
  H       -1.3049600    -2.8116020     0.0000010
  H        2.6194040    -1.2894460    -0.8881130
  H        2.6194520    -1.2894310     0.8881110
  H        3.6618180    -0.1291010    -0.0000380
units angstrom
no_reorient  #important for SAPT in psi4, default
symmetry c1  #important for SAPT in psi4, default
}

set PROPERTIES_ORIGIN ["COM"]
properties('MP2/aug-cc-pvtz', properties = ['dipole'])
--------------------------------------------------------------------------

    Molecular point group: c1
  Charge       = 0
  Multiplicity = 1
  Basis Set: AUG-CC-PVTZ
    Blend: AUG-CC-PVTZ
  Basis Set: (AUG-CC-PVTZ AUX)
    Blend: AUG-CC-PVTZ-JKFIT

    Orbital Energies [Eh]
    ---------------------

    Doubly Occupied:

       1A    -20.587745     2A    -15.553561     3A    -11.329350
       4A    -11.278598     5A    -11.271466     6A    -11.252540
       7A    -11.238554     8A    -11.226488     9A    -11.223767
      10A     -1.434093    11A     -1.240878    12A     -1.097947
      13A     -1.039284    14A     -0.962784    15A     -0.935128
      16A     -0.835734    17A     -0.822700    18A     -0.724539
      19A     -0.691026    20A     -0.661759    21A     -0.648546
      22A     -0.605189    23A     -0.590556    24A     -0.576401
      25A     -0.560140    26A     -0.545438    27A     -0.530455
      28A     -0.527443    29A     -0.502167    30A     -0.479246
      31A     -0.419898    32A     -0.374464    33A     -0.310599

  @DF-RHF Final Energy:  -399.76666255047633

   => Energetics <=

    Nuclear Repulsion Energy =            436.5819561175615036
    One-Electron Energy =               -1408.5402769213017109
    Two-Electron Energy =                 572.1916582532638813
    Total Energy =                       -399.7666625504763260
  Basis Set: (AUG-CC-PVTZ AUX)
    Blend: AUG-CC-PVTZ-RI
    Molecular point group: c1

    Geometry (in Angstrom), charge = 0, multiplicity = 1:

       Center              X                  Y                   Z               Mass
    ------------   -----------------  -----------------  -----------------  -----------------
         O            1.697425917309     0.365532157712     0.000009511407    15.994914619570
         N            0.188845217309    -1.334151442288     0.000005311407    14.003074004430
         C           -0.538778782691     0.988387557712    -0.000000688593    12.000000000000
         C            0.440842217309    -0.028636442288     0.000005311407    12.000000000000
         C           -1.861677782691     0.562810557712    -0.000003688593    12.000000000000
         C           -0.129793782691     2.431643557712    -0.000001688593    12.000000000000
         C           -2.160960782691    -0.805708442288    -0.000003688593    12.000000000000
         C           -1.109075782691    -1.710068442288     0.000000311407    12.000000000000
         C            2.728344217309    -0.632772442288    -0.000009688593    12.000000000000
         H           -2.661369782691     1.301613557712    -0.000008688593     1.007825032230
         H           -1.009274782691     3.080984557712    -0.000018688593     1.007825032230
         H            0.478982217309     2.662250557712     0.879101311407     1.007825032230
         H            0.479011217309     2.662241557712    -0.879086688593     1.007825032230
         H           -3.188763782691    -1.156240442288    -0.000005688593     1.007825032230
         H           -1.287334782691    -2.783644442288     0.000000311407     1.007825032230
         H            2.637029217309    -1.261488442288    -0.888113688593     1.007825032230
         H            2.637077217309    -1.261473442288     0.888110311407     1.007825032230
         H            3.679443217309    -0.101143442288    -0.000038688593     1.007825032230

  Basis Set: AUG-CC-PVTZ
    Blend: AUG-CC-PVTZ
  Basis Set: (AUG-CC-PVTZ AUX)
    Blend: AUG-CC-PVTZ-JKFIT
	 Reference Energy          =    -399.7666625504763260 [Eh]
	 Singles Energy            =      -0.0000000000000000 [Eh]
	 Same-Spin Energy          =      -0.4232909533915921 [Eh]
	 Opposite-Spin Energy      =      -1.3351371669964087 [Eh]
	 Correlation Energy        =      -1.7584281203880008 [Eh]
	 Total Energy              =    -401.5250906708643015 [Eh]

	 ================> DF-SCS-MP2 Energies <==================
	-----------------------------------------------------------
	 SCS Same-Spin Scale       =       0.3333333333333333 [-]
	 SCS Opposite-Spin Scale   =       1.2000000000000000 [-]
	 SCS Same-Spin Energy      =      -0.1410969844638640 [Eh]
	 SCS Opposite-Spin Energy  =      -1.6021646003956904 [Eh]
	 SCS Correlation Energy    =      -1.7432615848595545 [Eh]
	 SCS Total Energy          =    -401.5099241353358934 [Eh]
	-----------------------------------------------------------

  Dipole Moment: [D]
     X:    -0.1882      Y:     0.7255      Z:    -0.0000     Total:     0.7495

*** Psi4 exiting successfully. Buy a developer a beer!
