                               Psi4 1.4a3.dev225

  ==> Input File <==

--------------------------------------------------------------------------
#psi4
#
memory 32 gb

molecule  {
0 1
  O        1.7152690     0.3729450     0.0000090
  N        0.1712200    -1.3621090     0.0000060
  C       -0.5564040     0.9604300     0.0000000
  C        0.4232170    -0.0565940     0.0000060
  C       -1.8793030     0.5348530    -0.0000030
  C       -0.1474190     2.4036860    -0.0000010
  C       -2.1785860    -0.8336660    -0.0000030
  C       -1.1267010    -1.7380260     0.0000010
  C        2.7107190    -0.6607300    -0.0000090
  H       -2.6789950     1.2736560    -0.0000080
  H       -1.0269000     3.0530270    -0.0000180
  H        0.3720888     2.6004800     0.9423332
  H        0.4613860     2.6342840    -0.8790860
  H       -3.2063890    -1.1841980    -0.0000050
  H       -1.3049600    -2.8116020     0.0000010
  H        2.6194040    -1.2894460    -0.8881130
  H        2.6194520    -1.2894310     0.8881110
  H        3.6618180    -0.1291010    -0.0000380
units angstrom
no_reorient  #important for SAPT in psi4, default
symmetry c1  #important for SAPT in psi4, default
}

set PROPERTIES_ORIGIN ["COM"]
properties('MP2/aug-cc-pvtz', properties = ['dipole'])
--------------------------------------------------------------------------

    Molecular point group: c1
  Charge       = 0
  Multiplicity = 1
  Basis Set: AUG-CC-PVTZ
    Blend: AUG-CC-PVTZ
  Basis Set: (AUG-CC-PVTZ AUX)
    Blend: AUG-CC-PVTZ-JKFIT

    Orbital Energies [Eh]
    ---------------------

    Doubly Occupied:

       1A    -20.586549     2A    -15.558803     3A    -11.331835
       4A    -11.273837     5A    -11.273566     6A    -11.253865
       7A    -11.241244     8A    -11.230100     9A    -11.224663
      10A     -1.415097    11A     -1.244185    12A     -1.099726
      13A     -1.040135    14A     -0.955859    15A     -0.935062
      16A     -0.835406    17A     -0.824478    18A     -0.719457
      19A     -0.687727    20A     -0.653836    21A     -0.647745
      22A     -0.603181    23A     -0.587970    24A     -0.584542
      25A     -0.559560    26A     -0.545563    27A     -0.532066
      28A     -0.525557    29A     -0.498317    30A     -0.476333
      31A     -0.422613    32A     -0.376716    33A     -0.315264

  @DF-RHF Final Energy:  -399.76438950277571

   => Energetics <=

    Nuclear Repulsion Energy =            435.3642900979489809
    One-Electron Energy =               -1406.1356442850365056
    Two-Electron Energy =                 571.0069646843119244
    Total Energy =                       -399.7643895027756571
  Basis Set: (AUG-CC-PVTZ AUX)
    Blend: AUG-CC-PVTZ-RI
    Molecular point group: c1

    Geometry (in Angstrom), charge = 0, multiplicity = 1:

       Center              X                  Y                   Z               Mass
    ------------   -----------------  -----------------  -----------------  -----------------
         O            1.729015515305     0.396582448893    -0.000509342069    15.994914619570
         N            0.184966515305    -1.338471551107    -0.000512342069    14.003074004430
         C           -0.542657484695     0.984067448893    -0.000518342069    12.000000000000
         C            0.436963515305    -0.032956551107    -0.000512342069    12.000000000000
         C           -1.865556484695     0.558490448893    -0.000521342069    12.000000000000
         C           -0.133672484695     2.427323448893    -0.000519342069    12.000000000000
         C           -2.164839484695    -0.810028551107    -0.000521342069    12.000000000000
         C           -1.112954484695    -1.714388551107    -0.000517342069    12.000000000000
         C            2.724465515305    -0.637092551107    -0.000527342069    12.000000000000
         H           -2.665248484695     1.297293448893    -0.000526342069     1.007825032230
         H           -1.013153484695     3.076664448893    -0.000536342069     1.007825032230
         H            0.385835315305     2.624117448893     0.941814857931     1.007825032230
         H            0.475132515305     2.657921448893    -0.879604342069     1.007825032230
         H           -3.192642484695    -1.160560551107    -0.000523342069     1.007825032230
         H           -1.291213484695    -2.787964551107    -0.000517342069     1.007825032230
         H            2.633150515305    -1.265808551107    -0.888631342069     1.007825032230
         H            2.633198515305    -1.265793551107     0.887592657931     1.007825032230
         H            3.675564515305    -0.105463551107    -0.000556342069     1.007825032230

  Basis Set: AUG-CC-PVTZ
    Blend: AUG-CC-PVTZ
  Basis Set: (AUG-CC-PVTZ AUX)
    Blend: AUG-CC-PVTZ-JKFIT
	 Reference Energy          =    -399.7643895027757139 [Eh]
	 Singles Energy            =      -0.0000000000000000 [Eh]
	 Same-Spin Energy          =      -0.4238124075530734 [Eh]
	 Opposite-Spin Energy      =      -1.3367981016406305 [Eh]
	 Correlation Energy        =      -1.7606105091937039 [Eh]
	 Total Energy              =    -401.5250000119694391 [Eh]

	 ================> DF-SCS-MP2 Energies <==================
	-----------------------------------------------------------
	 SCS Same-Spin Scale       =       0.3333333333333333 [-]
	 SCS Opposite-Spin Scale   =       1.2000000000000000 [-]
	 SCS Same-Spin Energy      =      -0.1412708025176911 [Eh]
	 SCS Opposite-Spin Energy  =      -1.6041577219687566 [Eh]
	 SCS Correlation Energy    =      -1.7454285244864478 [Eh]
	 SCS Total Energy          =    -401.5098180272621562 [Eh]
	-----------------------------------------------------------

  Dipole Moment: [D]
     X:    -0.5621      Y:     0.6611      Z:     0.0143     Total:     0.8678

*** Psi4 exiting successfully. Buy a developer a beer!
