                               Psi4 1.4a3.dev225

  ==> Input File <==

--------------------------------------------------------------------------
#psi4
#
memory 32 gb

molecule  {
0 1
  O        1.7152690     0.3729450     0.0000090
  N        0.1712200    -1.3621090     0.0000060
  C       -0.5564040     0.9604300     0.0000000
  C        0.4232170    -0.0565940     0.0000060
  C       -1.8793030     0.5348530    -0.0000030
  C       -0.1474190     2.4036860    -0.0000010
  C       -2.1785860    -0.8336660    -0.0000030
  C       -1.1267010    -1.7380260     0.0000010
  C        2.7107190    -0.6607300    -0.0000090
  H       -2.6789950     1.2736560    -0.0000080
  H       -1.0269000     3.0530270    -0.0000180
  H        0.4896772     2.6450201     0.8558473
  H        0.4613860     2.6342840    -0.8790860
  H       -3.2063890    -1.1841980    -0.0000050
  H       -1.3049600    -2.8116020     0.0000010
  H        2.6194040    -1.2894460    -0.8881130
  H        2.6194520    -1.2894310     0.8881110
  H        3.6618180    -0.1291010    -0.0000380
units angstrom
no_reorient  #important for SAPT in psi4, default
symmetry c1  #important for SAPT in psi4, default
}

set PROPERTIES_ORIGIN ["COM"]
properties('MP2/aug-cc-pvtz', properties = ['dipole'])
--------------------------------------------------------------------------

    Molecular point group: c1
  Charge       = 0
  Multiplicity = 1
  Basis Set: AUG-CC-PVTZ
    Blend: AUG-CC-PVTZ
  Basis Set: (AUG-CC-PVTZ AUX)
    Blend: AUG-CC-PVTZ-JKFIT

    Orbital Energies [Eh]
    ---------------------

    Doubly Occupied:

       1A    -20.586997     2A    -15.559024     3A    -11.332230
       4A    -11.274113     5A    -11.273928     6A    -11.254487
       7A    -11.242125     8A    -11.230427     9A    -11.224313
      10A     -1.415479    11A     -1.244477    12A     -1.099662
      13A     -1.040203    14A     -0.955654    15A     -0.935541
      16A     -0.835821    17A     -0.825209    18A     -0.720094
      19A     -0.688737    20A     -0.653738    21A     -0.648440
      22A     -0.604109    23A     -0.590594    24A     -0.574079
      25A     -0.560250    26A     -0.548300    27A     -0.528929
      28A     -0.528053    29A     -0.502351    30A     -0.476641
      31A     -0.422863    32A     -0.376684    33A     -0.315316

  @DF-RHF Final Energy:  -399.76549904740659

   => Energetics <=

    Nuclear Repulsion Energy =            435.3046595226157365
    One-Electron Energy =               -1406.0025819883983331
    Two-Electron Energy =                 570.9324234183759472
    Total Energy =                       -399.7654990474065926
  Basis Set: (AUG-CC-PVTZ AUX)
    Blend: AUG-CC-PVTZ-RI
    Molecular point group: c1

    Geometry (in Angstrom), charge = 0, multiplicity = 1:

       Center              X                  Y                   Z               Mass
    ------------   -----------------  -----------------  -----------------  -----------------
         O            1.728052566899     0.396217703576     0.000198903468    15.994914619570
         N            0.184003566899    -1.338836296424     0.000195903468    14.003074004430
         C           -0.543620433101     0.983702703576     0.000189903468    12.000000000000
         C            0.436000566899    -0.033321296424     0.000195903468    12.000000000000
         C           -1.866519433101     0.558125703576     0.000186903468    12.000000000000
         C           -0.134635433101     2.426958703576     0.000188903468    12.000000000000
         C           -2.165802433101    -0.810393296424     0.000186903468    12.000000000000
         C           -1.113917433101    -1.714753296424     0.000190903468    12.000000000000
         C            2.723502566899    -0.637457296424     0.000180903468    12.000000000000
         H           -2.666211433101     1.296928703576     0.000181903468     1.007825032230
         H           -1.014116433101     3.076299703576     0.000171903468     1.007825032230
         H            0.502460766899     2.668292803576     0.856037203468     1.007825032230
         H            0.474169566899     2.657556703576    -0.878896096532     1.007825032230
         H           -3.193605433101    -1.160925296424     0.000184903468     1.007825032230
         H           -1.292176433101    -2.788329296424     0.000190903468     1.007825032230
         H            2.632187566899    -1.266173296424    -0.887923096532     1.007825032230
         H            2.632235566899    -1.266158296424     0.888300903468     1.007825032230
         H            3.674601566899    -0.105828296424     0.000151903468     1.007825032230

  Basis Set: AUG-CC-PVTZ
    Blend: AUG-CC-PVTZ
  Basis Set: (AUG-CC-PVTZ AUX)
    Blend: AUG-CC-PVTZ-JKFIT
	 Reference Energy          =    -399.7654990474065926 [Eh]
	 Singles Energy            =      -0.0000000000000000 [Eh]
	 Same-Spin Energy          =      -0.4237795820184900 [Eh]
	 Opposite-Spin Energy      =      -1.3366435032516599 [Eh]
	 Correlation Energy        =      -1.7604230852701499 [Eh]
	 Total Energy              =    -401.5259221326767261 [Eh]

	 ================> DF-SCS-MP2 Energies <==================
	-----------------------------------------------------------
	 SCS Same-Spin Scale       =       0.3333333333333333 [-]
	 SCS Opposite-Spin Scale   =       1.2000000000000000 [-]
	 SCS Same-Spin Energy      =      -0.1412598606728300 [Eh]
	 SCS Opposite-Spin Energy  =      -1.6039722039019919 [Eh]
	 SCS Correlation Energy    =      -1.7452320645748218 [Eh]
	 SCS Total Energy          =    -401.5107311119814426 [Eh]
	-----------------------------------------------------------

  Dipole Moment: [D]
     X:    -0.5153      Y:     0.6521      Z:    -0.0063     Total:     0.8311

*** Psi4 exiting successfully. Buy a developer a beer!
