                               Psi4 1.4a3.dev225

  ==> Input File <==

--------------------------------------------------------------------------
#psi4
#
memory 32 gb

molecule  {
0 1
  O        1.7152690     0.3729450     0.0000090
  N        0.1712200    -1.3621090     0.0000060
  C       -0.5564040     0.9604300     0.0000000
  C        0.4232170    -0.0565940     0.0000060
  C       -1.8793030     0.5348530    -0.0000030
  C       -0.1474190     2.4036860    -0.0000010
  C       -2.1785860    -0.8336660    -0.0000030
  C       -1.1267010    -1.7380260     0.0000010
  C        2.7107190    -0.6607300    -0.0000090
  H       -2.6789950     1.2736560    -0.0000080
  H       -1.0269000     3.0530270    -0.0000180
  H        0.4469166     2.6288233     0.8903294
  H        0.4613860     2.6342840    -0.8790860
  H       -3.2063890    -1.1841980    -0.0000050
  H       -1.3049600    -2.8116020     0.0000010
  H        2.6194040    -1.2894460    -0.8881130
  H        2.6194520    -1.2894310     0.8881110
  H        3.6618180    -0.1291010    -0.0000380
units angstrom
no_reorient  #important for SAPT in psi4, default
symmetry c1  #important for SAPT in psi4, default
}

set PROPERTIES_ORIGIN ["COM"]
properties('MP2/aug-cc-pvtz', properties = ['dipole'])
--------------------------------------------------------------------------

    Molecular point group: c1
  Charge       = 0
  Multiplicity = 1
  Basis Set: AUG-CC-PVTZ
    Blend: AUG-CC-PVTZ
  Basis Set: (AUG-CC-PVTZ AUX)
    Blend: AUG-CC-PVTZ-JKFIT

    Orbital Energies [Eh]
    ---------------------

    Doubly Occupied:

       1A    -20.586831     2A    -15.558942     3A    -11.332095
       4A    -11.274010     5A    -11.273816     6A    -11.254269
       7A    -11.241755     8A    -11.230304     9A    -11.224415
      10A     -1.415337    11A     -1.244375    12A     -1.099662
      13A     -1.040169    14A     -0.955683    15A     -0.935337
      16A     -0.835649    17A     -0.824932    18A     -0.719853
      19A     -0.688344    20A     -0.653761    21A     -0.648167
      22A     -0.603699    23A     -0.589405    24A     -0.578027
      25A     -0.559970    26A     -0.547174    27A     -0.529902
      28A     -0.527680    29A     -0.501017    30A     -0.476528
      31A     -0.422771    32A     -0.376735    33A     -0.315342

  @DF-RHF Final Energy:  -399.76560488806336

   => Energetics <=

    Nuclear Repulsion Energy =            435.3247717401731620
    One-Electron Energy =               -1406.0488451163414538
    Two-Electron Energy =                 570.9584684881048133
    Total Energy =                       -399.7656048880634216
  Basis Set: (AUG-CC-PVTZ AUX)
    Blend: AUG-CC-PVTZ-RI
    Molecular point group: c1

    Geometry (in Angstrom), charge = 0, multiplicity = 1:

       Center              X                  Y                   Z               Mass
    ------------   -----------------  -----------------  -----------------  -----------------
         O            1.728402739634     0.396350341512    -0.000083475433    15.994914619570
         N            0.184353739634    -1.338703658488    -0.000086475433    14.003074004430
         C           -0.543270260366     0.983835341512    -0.000092475433    12.000000000000
         C            0.436350739634    -0.033188658488    -0.000086475433    12.000000000000
         C           -1.866169260366     0.558258341512    -0.000095475433    12.000000000000
         C           -0.134285260366     2.427091341512    -0.000093475433    12.000000000000
         C           -2.165452260366    -0.810260658488    -0.000095475433    12.000000000000
         C           -1.113567260366    -1.714620658488    -0.000091475433    12.000000000000
         C            2.723852739634    -0.637324658488    -0.000101475433    12.000000000000
         H           -2.665861260366     1.297061341512    -0.000100475433     1.007825032230
         H           -1.013766260366     3.076432341512    -0.000110475433     1.007825032230
         H            0.460050339634     2.652228641512     0.890236924567     1.007825032230
         H            0.474519739634     2.657689341512    -0.879178475433     1.007825032230
         H           -3.193255260366    -1.160792658488    -0.000097475433     1.007825032230
         H           -1.291826260366    -2.788196658488    -0.000091475433     1.007825032230
         H            2.632537739634    -1.266040658488    -0.888205475433     1.007825032230
         H            2.632585739634    -1.266025658488     0.888018524567     1.007825032230
         H            3.674951739634    -0.105695658488    -0.000130475433     1.007825032230

  Basis Set: AUG-CC-PVTZ
    Blend: AUG-CC-PVTZ
  Basis Set: (AUG-CC-PVTZ AUX)
    Blend: AUG-CC-PVTZ-JKFIT
	 Reference Energy          =    -399.7656048880633648 [Eh]
	 Singles Energy            =      -0.0000000000000000 [Eh]
	 Same-Spin Energy          =      -0.4237637894241120 [Eh]
	 Opposite-Spin Energy      =      -1.3366658368540301 [Eh]
	 Correlation Energy        =      -1.7604296262781420 [Eh]
	 Total Energy              =    -401.5260345143415179 [Eh]

	 ================> DF-SCS-MP2 Energies <==================
	-----------------------------------------------------------
	 SCS Same-Spin Scale       =       0.3333333333333333 [-]
	 SCS Opposite-Spin Scale   =       1.2000000000000000 [-]
	 SCS Same-Spin Energy      =      -0.1412545964747040 [Eh]
	 SCS Opposite-Spin Energy  =      -1.6039990042248360 [Eh]
	 SCS Correlation Energy    =      -1.7452536006995401 [Eh]
	 SCS Total Energy          =    -401.5108584887628922 [Eh]
	-----------------------------------------------------------

  Dipole Moment: [D]
     X:    -0.5332      Y:     0.6541      Z:     0.0028     Total:     0.8439

*** Psi4 exiting successfully. Buy a developer a beer!
