                               Psi4 1.4a3.dev225

  ==> Input File <==

--------------------------------------------------------------------------
#psi4
#
memory 32 gb

molecule  {
0 1
  O        1.7152690     0.3729450     0.0000090
  N        0.1573100    -1.3170412     0.0000059
  C       -0.5564040     0.9604300     0.0000000
  C        0.4232170    -0.0565940     0.0000060
  C       -1.8793030     0.5348530    -0.0000030
  C       -0.1474190     2.4036860    -0.0000010
  C       -2.1785860    -0.8336660    -0.0000030
  C       -1.1267010    -1.7380260     0.0000010
  C        2.7107190    -0.6607300    -0.0000090
  H       -2.6789950     1.2736560    -0.0000080
  H       -1.0269000     3.0530270    -0.0000180
  H        0.4613570     2.6342930     0.8791020
  H        0.4613860     2.6342840    -0.8790860
  H       -3.2063890    -1.1841980    -0.0000050
  H       -1.3049600    -2.8116020     0.0000010
  H        2.6194040    -1.2894460    -0.8881130
  H        2.6194520    -1.2894310     0.8881110
  H        3.6618180    -0.1291010    -0.0000380
units angstrom
no_reorient  #important for SAPT in psi4, default
symmetry c1  #important for SAPT in psi4, default
}

set PROPERTIES_ORIGIN ["COM"]
properties('MP2/aug-cc-pvtz', properties = ['dipole'])
--------------------------------------------------------------------------

    Molecular point group: c1
  Charge       = 0
  Multiplicity = 1
  Basis Set: AUG-CC-PVTZ
    Blend: AUG-CC-PVTZ
  Basis Set: (AUG-CC-PVTZ AUX)
    Blend: AUG-CC-PVTZ-JKFIT

    Orbital Energies [Eh]
    ---------------------

    Doubly Occupied:

       1A    -20.584308     2A    -15.552769     3A    -11.326201
       4A    -11.273947     5A    -11.273358     6A    -11.252224
       7A    -11.241536     8A    -11.230969     9A    -11.223575
      10A     -1.415002    11A     -1.253489    12A     -1.098659
      13A     -1.042706    14A     -0.954579    15A     -0.937290
      16A     -0.836676    17A     -0.825840    18A     -0.721494
      19A     -0.690113    20A     -0.654020    21A     -0.648837
      22A     -0.605845    23A     -0.589749    24A     -0.576718
      25A     -0.559152    26A     -0.547458    27A     -0.532596
      28A     -0.527743    29A     -0.501653    30A     -0.475508
      31A     -0.417323    32A     -0.377654    33A     -0.316429

  @DF-RHF Final Energy:  -399.76636830825055

   => Energetics <=

    Nuclear Repulsion Energy =            436.4542016130643560
    One-Electron Energy =               -1408.3102997307603346
    Two-Electron Energy =                 572.0897298094454300
    Total Energy =                       -399.7663683082505486
  Basis Set: (AUG-CC-PVTZ AUX)
    Blend: AUG-CC-PVTZ-RI
    Molecular point group: c1

    Geometry (in Angstrom), charge = 0, multiplicity = 1:

       Center              X                  Y                   Z               Mass
    ------------   -----------------  -----------------  -----------------  -----------------
         O            1.729867204455     0.391177606942     0.000008478747    15.994914619570
         N            0.171908204455    -1.298808593058     0.000005378747    14.003074004430
         C           -0.541805795545     0.978662606942    -0.000000521253    12.000000000000
         C            0.437815204455    -0.038361393058     0.000005478747    12.000000000000
         C           -1.864704795545     0.553085606942    -0.000003521253    12.000000000000
         C           -0.132820795545     2.421918606942    -0.000001521253    12.000000000000
         C           -2.163987795545    -0.815433393058    -0.000003521253    12.000000000000
         C           -1.112102795545    -1.719793393058     0.000000478747    12.000000000000
         C            2.725317204455    -0.642497393058    -0.000009521253    12.000000000000
         H           -2.664396795545     1.291888606942    -0.000008521253     1.007825032230
         H           -1.012301795545     3.071259606942    -0.000018521253     1.007825032230
         H            0.475955204455     2.652525606942     0.879101478747     1.007825032230
         H            0.475984204455     2.652516606942    -0.879086521253     1.007825032230
         H           -3.191790795545    -1.165965393058    -0.000005521253     1.007825032230
         H           -1.290361795545    -2.793369393058     0.000000478747     1.007825032230
         H            2.634002204455    -1.271213393058    -0.888113521253     1.007825032230
         H            2.634050204455    -1.271198393058     0.888110478747     1.007825032230
         H            3.676416204455    -0.110868393058    -0.000038521253     1.007825032230

  Basis Set: AUG-CC-PVTZ
    Blend: AUG-CC-PVTZ
  Basis Set: (AUG-CC-PVTZ AUX)
    Blend: AUG-CC-PVTZ-JKFIT
	 Reference Energy          =    -399.7663683082505486 [Eh]
	 Singles Energy            =      -0.0000000000000000 [Eh]
	 Same-Spin Energy          =      -0.4233312695062736 [Eh]
	 Opposite-Spin Energy      =      -1.3354860615038393 [Eh]
	 Correlation Energy        =      -1.7588173310101129 [Eh]
	 Total Energy              =    -401.5251856392606555 [Eh]

	 ================> DF-SCS-MP2 Energies <==================
	-----------------------------------------------------------
	 SCS Same-Spin Scale       =       0.3333333333333333 [-]
	 SCS Opposite-Spin Scale   =       1.2000000000000000 [-]
	 SCS Same-Spin Energy      =      -0.1411104231687579 [Eh]
	 SCS Opposite-Spin Energy  =      -1.6025832738046071 [Eh]
	 SCS Correlation Energy    =      -1.7436936969733650 [Eh]
	 SCS Total Energy          =    -401.5100620052239151 [Eh]
	-----------------------------------------------------------

  Dipole Moment: [D]
     X:    -0.5546      Y:     0.5373      Z:    -0.0000     Total:     0.7722

*** Psi4 exiting successfully. Buy a developer a beer!
