                               Psi4 1.4a3.dev225

  ==> Input File <==

--------------------------------------------------------------------------
#psi4
#
memory 32 gb

molecule  {
0 1
  O        1.7152690     0.3729450     0.0000090
  N        0.1712200    -1.3621090     0.0000060
  C       -0.5564040     0.9604300     0.0000000
  C        0.4232170    -0.0565940     0.0000060
  C       -1.8793030     0.5348530    -0.0000030
  C       -0.1474190     2.4036860    -0.0000010
  C       -2.2213144    -1.0290484    -0.0000030
  C       -1.1267010    -1.7380260     0.0000010
  C        2.7107190    -0.6607300    -0.0000090
  H       -2.6789950     1.2736560    -0.0000080
  H       -1.0269000     3.0530270    -0.0000180
  H        0.4613570     2.6342930     0.8791020
  H        0.4613860     2.6342840    -0.8790860
  H       -3.2063890    -1.1841980    -0.0000050
  H       -1.3049600    -2.8116020     0.0000010
  H        2.6194040    -1.2894460    -0.8881130
  H        2.6194520    -1.2894310     0.8881110
  H        3.6618180    -0.1291010    -0.0000380
units angstrom
no_reorient  #important for SAPT in psi4, default
symmetry c1  #important for SAPT in psi4, default
}

set PROPERTIES_ORIGIN ["COM"]
properties('MP2/aug-cc-pvtz', properties = ['dipole'])
--------------------------------------------------------------------------

    Molecular point group: c1
  Charge       = 0
  Multiplicity = 1
  Basis Set: AUG-CC-PVTZ
    Blend: AUG-CC-PVTZ
  Basis Set: (AUG-CC-PVTZ AUX)
    Blend: AUG-CC-PVTZ-JKFIT

    Orbital Energies [Eh]
    ---------------------

    Doubly Occupied:

       1A    -20.593079     2A    -15.553089     3A    -11.340757
       4A    -11.276120     5A    -11.269000     6A    -11.259465
       7A    -11.245757     8A    -11.229746     9A    -11.226486
      10A     -1.420286    11A     -1.240837    12A     -1.090894
      13A     -1.043438    14A     -0.957475    15A     -0.937545
      16A     -0.837782    17A     -0.825756    18A     -0.717536
      19A     -0.698103    20A     -0.660946    21A     -0.656522
      22A     -0.609550    23A     -0.581617    24A     -0.577662
      25A     -0.569976    26A     -0.546885    27A     -0.530032
      28A     -0.518655    29A     -0.479146    30A     -0.477392
      31A     -0.421655    32A     -0.360696    33A     -0.333363

  @DF-RHF Final Energy:  -399.72715740104178

   => Energetics <=

    Nuclear Repulsion Energy =            433.4063387753268444
    One-Electron Energy =               -1402.0924989304826340
    Two-Electron Energy =                 568.9590027541140671
    Total Energy =                       -399.7271574010417226
  Basis Set: (AUG-CC-PVTZ AUX)
    Blend: AUG-CC-PVTZ-RI
    Molecular point group: c1

    Geometry (in Angstrom), charge = 0, multiplicity = 1:

       Center              X                  Y                   Z               Mass
    ------------   -----------------  -----------------  -----------------  -----------------
         O            1.732450792156     0.415356650483     0.000008467368    15.994914619570
         N            0.188401792156    -1.319697349517     0.000005467368    14.003074004430
         C           -0.539222207844     1.002841650483    -0.000000532632    12.000000000000
         C            0.440398792156    -0.014182349517     0.000005467368    12.000000000000
         C           -1.862121207844     0.577264650483    -0.000003532632    12.000000000000
         C           -0.130237207844     2.446097650483    -0.000001532632    12.000000000000
         C           -2.204132607844    -0.986636749517    -0.000003532632    12.000000000000
         C           -1.109519207844    -1.695614349517     0.000000467368    12.000000000000
         C            2.727900792156    -0.618318349517    -0.000009532632    12.000000000000
         H           -2.661813207844     1.316067650483    -0.000008532632     1.007825032230
         H           -1.009718207844     3.095438650483    -0.000018532632     1.007825032230
         H            0.478538792156     2.676704650483     0.879101467368     1.007825032230
         H            0.478567792156     2.676695650483    -0.879086532632     1.007825032230
         H           -3.189207207844    -1.141786349517    -0.000005532632     1.007825032230
         H           -1.287778207844    -2.769190349517     0.000000467368     1.007825032230
         H            2.636585792156    -1.247034349517    -0.888113532632     1.007825032230
         H            2.636633792156    -1.247019349517     0.888110467368     1.007825032230
         H            3.678999792156    -0.086689349517    -0.000038532632     1.007825032230

  Basis Set: AUG-CC-PVTZ
    Blend: AUG-CC-PVTZ
  Basis Set: (AUG-CC-PVTZ AUX)
    Blend: AUG-CC-PVTZ-JKFIT
	 Reference Energy          =    -399.7271574010417794 [Eh]
	 Singles Energy            =      -0.0000000000000000 [Eh]
	 Same-Spin Energy          =      -0.4216984037186303 [Eh]
	 Opposite-Spin Energy      =      -1.3372243067719949 [Eh]
	 Correlation Energy        =      -1.7589227104906251 [Eh]
	 Total Energy              =    -401.4860801115324307 [Eh]

	 ================> DF-SCS-MP2 Energies <==================
	-----------------------------------------------------------
	 SCS Same-Spin Scale       =       0.3333333333333333 [-]
	 SCS Opposite-Spin Scale   =       1.2000000000000000 [-]
	 SCS Same-Spin Energy      =      -0.1405661345728768 [Eh]
	 SCS Opposite-Spin Energy  =      -1.6046691681263938 [Eh]
	 SCS Correlation Energy    =      -1.7452353026992706 [Eh]
	 SCS Total Energy          =    -401.4723927037410363 [Eh]
	-----------------------------------------------------------

  Dipole Moment: [D]
     X:    -0.4115      Y:     0.8540      Z:    -0.0000     Total:     0.9480

*** Psi4 exiting successfully. Buy a developer a beer!
