                               Psi4 1.4a3.dev225

  ==> Input File <==

--------------------------------------------------------------------------
#psi4
#
memory 32 gb

molecule  {
0 1
  O        1.7152690     0.3729450     0.0000090
  N        0.1712200    -1.3621090     0.0000060
  C       -0.5191661     0.8198180     0.0000002
  C        0.4232170    -0.0565940     0.0000060
  C       -1.8793030     0.5348530    -0.0000030
  C       -0.1474190     2.4036860    -0.0000010
  C       -2.1785860    -0.8336660    -0.0000030
  C       -1.1267010    -1.7380260     0.0000010
  C        2.7107190    -0.6607300    -0.0000090
  H       -2.6789950     1.2736560    -0.0000080
  H       -1.0269000     3.0530270    -0.0000180
  H        0.4613570     2.6342930     0.8791020
  H        0.4613860     2.6342840    -0.8790860
  H       -3.2063890    -1.1841980    -0.0000050
  H       -1.3049600    -2.8116020     0.0000010
  H        2.6194040    -1.2894460    -0.8881130
  H        2.6194520    -1.2894310     0.8881110
  H        3.6618180    -0.1291010    -0.0000380
units angstrom
no_reorient  #important for SAPT in psi4, default
symmetry c1  #important for SAPT in psi4, default
}

set PROPERTIES_ORIGIN ["COM"]
properties('MP2/aug-cc-pvtz', properties = ['dipole'])
--------------------------------------------------------------------------

    Molecular point group: c1
  Charge       = 0
  Multiplicity = 1
  Basis Set: AUG-CC-PVTZ
    Blend: AUG-CC-PVTZ
  Basis Set: (AUG-CC-PVTZ AUX)
    Blend: AUG-CC-PVTZ-JKFIT

    Orbital Energies [Eh]
    ---------------------

    Doubly Occupied:

       1A    -20.581600     2A    -15.559703     3A    -11.313339
       4A    -11.275486     5A    -11.272271     6A    -11.259659
       7A    -11.233587     8A    -11.231357     9A    -11.226439
      10A     -1.412910    11A     -1.251714    12A     -1.097778
      13A     -1.046853    14A     -0.945556    15A     -0.930838
      16A     -0.858389    17A     -0.822120    18A     -0.722190
      19A     -0.691653    20A     -0.653852    21A     -0.649950
      22A     -0.602279    23A     -0.588659    24A     -0.570421
      25A     -0.566441    26A     -0.548390    27A     -0.531040
      28A     -0.514266    29A     -0.483155    30A     -0.475736
      31A     -0.420596    32A     -0.375241    33A     -0.330202

  @DF-RHF Final Energy:  -399.74106778017966

   => Energetics <=

    Nuclear Repulsion Energy =            437.1153606085666183
    One-Electron Energy =               -1409.6255198819005727
    Two-Electron Energy =                 572.7690914931544057
    Total Energy =                       -399.7410677801796055
  Basis Set: (AUG-CC-PVTZ AUX)
    Blend: AUG-CC-PVTZ-RI
    Molecular point group: c1

    Geometry (in Angstrom), charge = 0, multiplicity = 1:

       Center              X                  Y                   Z               Mass
    ------------   -----------------  -----------------  -----------------  -----------------
         O            1.724653538828     0.410016167259     0.000008447867    15.994914619570
         N            0.180604538828    -1.325037832741     0.000005447867    14.003074004430
         C           -0.509781561172     0.856889167259    -0.000000352133    12.000000000000
         C            0.432601538828    -0.019522832741     0.000005447867    12.000000000000
         C           -1.869918461172     0.571924167259    -0.000003552133    12.000000000000
         C           -0.138034461172     2.440757167259    -0.000001552133    12.000000000000
         C           -2.169201461172    -0.796594832741    -0.000003552133    12.000000000000
         C           -1.117316461172    -1.700954832741     0.000000447867    12.000000000000
         C            2.720103538828    -0.623658832741    -0.000009552133    12.000000000000
         H           -2.669610461172     1.310727167259    -0.000008552133     1.007825032230
         H           -1.017515461172     3.090098167259    -0.000018552133     1.007825032230
         H            0.470741538828     2.671364167259     0.879101447867     1.007825032230
         H            0.470770538828     2.671355167259    -0.879086552133     1.007825032230
         H           -3.197004461172    -1.147126832741    -0.000005552133     1.007825032230
         H           -1.295575461172    -2.774530832741     0.000000447867     1.007825032230
         H            2.628788538828    -1.252374832741    -0.888113552133     1.007825032230
         H            2.628836538828    -1.252359832741     0.888110447867     1.007825032230
         H            3.671202538828    -0.092029832741    -0.000038552133     1.007825032230

  Basis Set: AUG-CC-PVTZ
    Blend: AUG-CC-PVTZ
  Basis Set: (AUG-CC-PVTZ AUX)
    Blend: AUG-CC-PVTZ-JKFIT
	 Reference Energy          =    -399.7410677801796623 [Eh]
	 Singles Energy            =      -0.0000000000000000 [Eh]
	 Same-Spin Energy          =      -0.4238677740305085 [Eh]
	 Opposite-Spin Energy      =      -1.3369877106968850 [Eh]
	 Correlation Energy        =      -1.7608554847273936 [Eh]
	 Total Energy              =    -401.5019232649070773 [Eh]

	 ================> DF-SCS-MP2 Energies <==================
	-----------------------------------------------------------
	 SCS Same-Spin Scale       =       0.3333333333333333 [-]
	 SCS Opposite-Spin Scale   =       1.2000000000000000 [-]
	 SCS Same-Spin Energy      =      -0.1412892580101695 [Eh]
	 SCS Opposite-Spin Energy  =      -1.6043852528362621 [Eh]
	 SCS Correlation Energy    =      -1.7456745108464315 [Eh]
	 SCS Total Energy          =    -401.4867422910260757 [Eh]
	-----------------------------------------------------------

  Dipole Moment: [D]
     X:    -0.8128      Y:     0.4501      Z:    -0.0000     Total:     0.9291

*** Psi4 exiting successfully. Buy a developer a beer!
