                               Psi4 1.4a3.dev225

  ==> Input File <==

--------------------------------------------------------------------------
#psi4
#
memory 32 gb

molecule  {
0 1
  O        1.7152690     0.3729450     0.0000090
  N        0.1712200    -1.3621090     0.0000060
  C       -0.5564040     0.9604300     0.0000000
  C        0.4232170    -0.0565940     0.0000060
  C       -1.8933495     0.5812808    -0.0000031
  C       -0.1474190     2.4036860    -0.0000010
  C       -2.1785860    -0.8336660    -0.0000030
  C       -1.1267010    -1.7380260     0.0000010
  C        2.7107190    -0.6607300    -0.0000090
  H       -2.6789950     1.2736560    -0.0000080
  H       -1.0269000     3.0530270    -0.0000180
  H        0.4613570     2.6342930     0.8791020
  H        0.4613860     2.6342840    -0.8790860
  H       -3.2063890    -1.1841980    -0.0000050
  H       -1.3049600    -2.8116020     0.0000010
  H        2.6194040    -1.2894460    -0.8881130
  H        2.6194520    -1.2894310     0.8881110
  H        3.6618180    -0.1291010    -0.0000380
units angstrom
no_reorient  #important for SAPT in psi4, default
symmetry c1  #important for SAPT in psi4, default
}

set PROPERTIES_ORIGIN ["COM"]
properties('MP2/aug-cc-pvtz', properties = ['dipole'])
--------------------------------------------------------------------------

    Molecular point group: c1
  Charge       = 0
  Multiplicity = 1
  Basis Set: AUG-CC-PVTZ
    Blend: AUG-CC-PVTZ
  Basis Set: (AUG-CC-PVTZ AUX)
    Blend: AUG-CC-PVTZ-JKFIT

    Orbital Energies [Eh]
    ---------------------

    Doubly Occupied:

       1A    -20.587938     2A    -15.558778     3A    -11.333693
       4A    -11.274564     5A    -11.272490     6A    -11.255724
       7A    -11.243555     8A    -11.233912     9A    -11.223633
      10A     -1.416214    11A     -1.242934    12A     -1.098670
      13A     -1.035373    14A     -0.955388    15A     -0.935584
      16A     -0.839198    17A     -0.823976    18A     -0.722012
      19A     -0.686904    20A     -0.654283    21A     -0.645132
      22A     -0.610171    23A     -0.589543    24A     -0.576431
      25A     -0.568231    26A     -0.548903    27A     -0.528394
      28A     -0.523796    29A     -0.497742    30A     -0.475551
      31A     -0.423605    32A     -0.373536    33A     -0.315429

  @DF-RHF Final Energy:  -399.76228730187745

   => Energetics <=

    Nuclear Repulsion Energy =            434.6776730893501508
    One-Electron Energy =               -1404.7373492867011464
    Two-Electron Energy =                 570.2973888954735457
    Total Energy =                       -399.7622873018774499
  Basis Set: (AUG-CC-PVTZ AUX)
    Blend: AUG-CC-PVTZ-RI
    Molecular point group: c1

    Geometry (in Angstrom), charge = 0, multiplicity = 1:

       Center              X                  Y                   Z               Mass
    ------------   -----------------  -----------------  -----------------  -----------------
         O            1.729654113552     0.391778525864     0.000008477119    15.994914619570
         N            0.185605113552    -1.343275474136     0.000005477119    14.003074004430
         C           -0.542018886448     0.979263525864    -0.000000522881    12.000000000000
         C            0.437602113552    -0.037760474136     0.000005477119    12.000000000000
         C           -1.878964386448     0.600114325864    -0.000003622881    12.000000000000
         C           -0.133033886448     2.422519525864    -0.000001522881    12.000000000000
         C           -2.164200886448    -0.814832474136    -0.000003522881    12.000000000000
         C           -1.112315886448    -1.719192474136     0.000000477119    12.000000000000
         C            2.725104113552    -0.641896474136    -0.000009522881    12.000000000000
         H           -2.664609886448     1.292489525864    -0.000008522881     1.007825032230
         H           -1.012514886448     3.071860525864    -0.000018522881     1.007825032230
         H            0.475742113552     2.653126525864     0.879101477119     1.007825032230
         H            0.475771113552     2.653117525864    -0.879086522881     1.007825032230
         H           -3.192003886448    -1.165364474136    -0.000005522881     1.007825032230
         H           -1.290574886448    -2.792768474136     0.000000477119     1.007825032230
         H            2.633789113552    -1.270612474136    -0.888113522881     1.007825032230
         H            2.633837113552    -1.270597474136     0.888110477119     1.007825032230
         H            3.676203113552    -0.110267474136    -0.000038522881     1.007825032230

  Basis Set: AUG-CC-PVTZ
    Blend: AUG-CC-PVTZ
  Basis Set: (AUG-CC-PVTZ AUX)
    Blend: AUG-CC-PVTZ-JKFIT
	 Reference Energy          =    -399.7622873018774499 [Eh]
	 Singles Energy            =      -0.0000000000000000 [Eh]
	 Same-Spin Energy          =      -0.4235916885324572 [Eh]
	 Opposite-Spin Energy      =      -1.3369543249215887 [Eh]
	 Correlation Energy        =      -1.7605460134540460 [Eh]
	 Total Energy              =    -401.5228333153314679 [Eh]

	 ================> DF-SCS-MP2 Energies <==================
	-----------------------------------------------------------
	 SCS Same-Spin Scale       =       0.3333333333333333 [-]
	 SCS Opposite-Spin Scale   =       1.2000000000000000 [-]
	 SCS Same-Spin Energy      =      -0.1411972295108191 [Eh]
	 SCS Opposite-Spin Energy  =      -1.6043451899059065 [Eh]
	 SCS Correlation Energy    =      -1.7455424194167255 [Eh]
	 SCS Total Energy          =    -401.5078297212941720 [Eh]
	-----------------------------------------------------------

  Dipole Moment: [D]
     X:    -0.5207      Y:     0.6771      Z:    -0.0000     Total:     0.8541

*** Psi4 exiting successfully. Buy a developer a beer!
