                               Psi4 1.4a3.dev225

  ==> Input File <==

--------------------------------------------------------------------------
#psi4
#
memory 32 gb

molecule  {
0 1
  O        1.7152690     0.3729450     0.0000090
  N        0.1712200    -1.3621090     0.0000060
  C       -0.5564040     0.9604300     0.0000000
  C        0.4232170    -0.0565940     0.0000060
  C       -1.8463937     0.4436089    -0.0000028
  C       -0.1474190     2.4036860    -0.0000010
  C       -2.1785860    -0.8336660    -0.0000030
  C       -1.1267010    -1.7380260     0.0000010
  C        2.7107190    -0.6607300    -0.0000090
  H       -2.6789950     1.2736560    -0.0000080
  H       -1.0269000     3.0530270    -0.0000180
  H        0.4613570     2.6342930     0.8791020
  H        0.4613860     2.6342840    -0.8790860
  H       -3.2063890    -1.1841980    -0.0000050
  H       -1.3049600    -2.8116020     0.0000010
  H        2.6194040    -1.2894460    -0.8881130
  H        2.6194520    -1.2894310     0.8881110
  H        3.6618180    -0.1291010    -0.0000380
units angstrom
no_reorient  #important for SAPT in psi4, default
symmetry c1  #important for SAPT in psi4, default
}

set PROPERTIES_ORIGIN ["COM"]
properties('MP2/aug-cc-pvtz', properties = ['dipole'])
--------------------------------------------------------------------------

    Molecular point group: c1
  Charge       = 0
  Multiplicity = 1
  Basis Set: AUG-CC-PVTZ
    Blend: AUG-CC-PVTZ
  Basis Set: (AUG-CC-PVTZ AUX)
    Blend: AUG-CC-PVTZ-JKFIT

    Orbital Energies [Eh]
    ---------------------

    Doubly Occupied:

       1A    -20.585061     2A    -15.559700     3A    -11.329521
       4A    -11.277080     5A    -11.273189     6A    -11.251987
       7A    -11.239610     8A    -11.225961     9A    -11.222975
      10A     -1.414025    11A     -1.248566    12A     -1.104095
      13A     -1.050254    14A     -0.956357    15A     -0.935231
      16A     -0.839199    17A     -0.819290    18A     -0.716718
      19A     -0.693256    20A     -0.654972    21A     -0.652990
      22A     -0.596861    23A     -0.589638    24A     -0.577604
      25A     -0.551061    26A     -0.538659    27A     -0.532283
      28A     -0.529897    29A     -0.504215    30A     -0.479188
      31A     -0.420006    32A     -0.384514    33A     -0.315200

  @DF-RHF Final Energy:  -399.75322532893097

   => Energetics <=

    Nuclear Repulsion Energy =            436.7219963838670651
    One-Electron Energy =               -1408.8121189901823982
    Two-Electron Energy =                 572.3368972773844234
    Total Energy =                       -399.7532253289309665
  Basis Set: (AUG-CC-PVTZ AUX)
    Blend: AUG-CC-PVTZ-RI
    Molecular point group: c1

    Geometry (in Angstrom), charge = 0, multiplicity = 1:

       Center              X                  Y                   Z               Mass
    ------------   -----------------  -----------------  -----------------  -----------------
         O            1.725075606508     0.405202464204     0.000008447867    15.994914619570
         N            0.181026606508    -1.329851535796     0.000005447867    14.003074004430
         C           -0.546597393492     0.992687464204    -0.000000552133    12.000000000000
         C            0.433023606508    -0.024336535796     0.000005447867    12.000000000000
         C           -1.836587093492     0.475866364204    -0.000003352133    12.000000000000
         C           -0.137612393492     2.435943464204    -0.000001552133    12.000000000000
         C           -2.168779393492    -0.801408535796    -0.000003552133    12.000000000000
         C           -1.116894393492    -1.705768535796     0.000000447867    12.000000000000
         C            2.720525606508    -0.628472535796    -0.000009552133    12.000000000000
         H           -2.669188393492     1.305913464204    -0.000008552133     1.007825032230
         H           -1.017093393492     3.085284464204    -0.000018552133     1.007825032230
         H            0.471163606508     2.666550464204     0.879101447867     1.007825032230
         H            0.471192606508     2.666541464204    -0.879086552133     1.007825032230
         H           -3.196582393492    -1.151940535796    -0.000005552133     1.007825032230
         H           -1.295153393492    -2.779344535796     0.000000447867     1.007825032230
         H            2.629210606508    -1.257188535796    -0.888113552133     1.007825032230
         H            2.629258606508    -1.257173535796     0.888110447867     1.007825032230
         H            3.671624606508    -0.096843535796    -0.000038552133     1.007825032230

  Basis Set: AUG-CC-PVTZ
    Blend: AUG-CC-PVTZ
  Basis Set: (AUG-CC-PVTZ AUX)
    Blend: AUG-CC-PVTZ-JKFIT
	 Reference Energy          =    -399.7532253289309665 [Eh]
	 Singles Energy            =      -0.0000000000000000 [Eh]
	 Same-Spin Energy          =      -0.4243468347971240 [Eh]
	 Opposite-Spin Energy      =      -1.3370234792819673 [Eh]
	 Correlation Energy        =      -1.7613703140790913 [Eh]
	 Total Energy              =    -401.5145956430100682 [Eh]

	 ================> DF-SCS-MP2 Energies <==================
	-----------------------------------------------------------
	 SCS Same-Spin Scale       =       0.3333333333333333 [-]
	 SCS Opposite-Spin Scale   =       1.2000000000000000 [-]
	 SCS Same-Spin Energy      =      -0.1414489449323747 [Eh]
	 SCS Opposite-Spin Energy  =      -1.6044281751383607 [Eh]
	 SCS Correlation Energy    =      -1.7458771200707353 [Eh]
	 SCS Total Energy          =    -401.4991024490017253 [Eh]
	-----------------------------------------------------------

  Dipole Moment: [D]
     X:    -0.5074      Y:     0.5788      Z:    -0.0000     Total:     0.7697

*** Psi4 exiting successfully. Buy a developer a beer!
