                               Psi4 1.4a3.dev225

  ==> Input File <==

--------------------------------------------------------------------------
#psi4
#
memory 32 gb

molecule  {
0 1
  O        1.7152690     0.3729450     0.0000090
  N        0.1712200    -1.3621090     0.0000060
  C       -0.5564040     0.9604300     0.0000000
  C        0.4581139    -0.0217862     0.0000061
  C       -1.8793030     0.5348530    -0.0000030
  C       -0.1474190     2.4036860    -0.0000010
  C       -2.1785860    -0.8336660    -0.0000030
  C       -1.1267010    -1.7380260     0.0000010
  C        2.7107190    -0.6607300    -0.0000090
  H       -2.6789950     1.2736560    -0.0000080
  H       -1.0269000     3.0530270    -0.0000180
  H        0.4613570     2.6342930     0.8791020
  H        0.4613860     2.6342840    -0.8790860
  H       -3.2063890    -1.1841980    -0.0000050
  H       -1.3049600    -2.8116020     0.0000010
  H        2.6194040    -1.2894460    -0.8881130
  H        2.6194520    -1.2894310     0.8881110
  H        3.6618180    -0.1291010    -0.0000380
units angstrom
no_reorient  #important for SAPT in psi4, default
symmetry c1  #important for SAPT in psi4, default
}

set PROPERTIES_ORIGIN ["COM"]
properties('MP2/aug-cc-pvtz', properties = ['dipole'])
--------------------------------------------------------------------------

    Molecular point group: c1
  Charge       = 0
  Multiplicity = 1
  Basis Set: AUG-CC-PVTZ
    Blend: AUG-CC-PVTZ
  Basis Set: (AUG-CC-PVTZ AUX)
    Blend: AUG-CC-PVTZ-JKFIT

    Orbital Energies [Eh]
    ---------------------

    Doubly Occupied:

       1A    -20.595809     2A    -15.556978     3A    -11.334995
       4A    -11.279945     5A    -11.271695     6A    -11.253262
       7A    -11.238535     8A    -11.226718     9A    -11.222501
      10A     -1.437415    11A     -1.230828    12A     -1.095487
      13A     -1.038764    14A     -0.963075    15A     -0.934365
      16A     -0.833687    17A     -0.821445    18A     -0.726050
      19A     -0.690342    20A     -0.663322    21A     -0.651031
      22A     -0.602928    23A     -0.591376    24A     -0.576024
      25A     -0.560140    26A     -0.543899    27A     -0.531116
      28A     -0.526975    29A     -0.504917    30A     -0.482173
      31A     -0.414526    32A     -0.371635    33A     -0.310549

  @DF-RHF Final Energy:  -399.76224563115164

   => Energetics <=

    Nuclear Repulsion Energy =            435.2524531452791052
    One-Electron Energy =               -1405.8643875353357089
    Two-Electron Energy =                 570.8496887589049038
    Total Energy =                       -399.7622456311516999
  Basis Set: (AUG-CC-PVTZ AUX)
    Blend: AUG-CC-PVTZ-RI
    Molecular point group: c1

    Geometry (in Angstrom), charge = 0, multiplicity = 1:

       Center              X                  Y                   Z               Mass
    ------------   -----------------  -----------------  -----------------  -----------------
         O            1.724881802109     0.392911554198     0.000008457618    15.994914619570
         N            0.180832802109    -1.342142445802     0.000005457618    14.003074004430
         C           -0.546791197891     0.980396554198    -0.000000542382    12.000000000000
         C            0.467726702109    -0.001819645802     0.000005557618    12.000000000000
         C           -1.869690197891     0.554819554198    -0.000003542382    12.000000000000
         C           -0.137806197891     2.423652554198    -0.000001542382    12.000000000000
         C           -2.168973197891    -0.813699445802    -0.000003542382    12.000000000000
         C           -1.117088197891    -1.718059445802     0.000000457618    12.000000000000
         C            2.720331802109    -0.640763445802    -0.000009542382    12.000000000000
         H           -2.669382197891     1.293622554198    -0.000008542382     1.007825032230
         H           -1.017287197891     3.072993554198    -0.000018542382     1.007825032230
         H            0.470969802109     2.654259554198     0.879101457618     1.007825032230
         H            0.470998802109     2.654250554198    -0.879086542382     1.007825032230
         H           -3.196776197891    -1.164231445802    -0.000005542382     1.007825032230
         H           -1.295347197891    -2.791635445802     0.000000457618     1.007825032230
         H            2.629016802109    -1.269479445802    -0.888113542382     1.007825032230
         H            2.629064802109    -1.269464445802     0.888110457618     1.007825032230
         H            3.671430802109    -0.109134445802    -0.000038542382     1.007825032230

  Basis Set: AUG-CC-PVTZ
    Blend: AUG-CC-PVTZ
  Basis Set: (AUG-CC-PVTZ AUX)
    Blend: AUG-CC-PVTZ-JKFIT
	 Reference Energy          =    -399.7622456311516430 [Eh]
	 Singles Energy            =      -0.0000000000000000 [Eh]
	 Same-Spin Energy          =      -0.4240482841416804 [Eh]
	 Opposite-Spin Energy      =      -1.3367629173198474 [Eh]
	 Correlation Energy        =      -1.7608112014615278 [Eh]
	 Total Energy              =    -401.5230568326131788 [Eh]

	 ================> DF-SCS-MP2 Energies <==================
	-----------------------------------------------------------
	 SCS Same-Spin Scale       =       0.3333333333333333 [-]
	 SCS Opposite-Spin Scale   =       1.2000000000000000 [-]
	 SCS Same-Spin Energy      =      -0.1413494280472268 [Eh]
	 SCS Opposite-Spin Energy  =      -1.6041155007838168 [Eh]
	 SCS Correlation Energy    =      -1.7454649288310435 [Eh]
	 SCS Total Energy          =    -401.5077105599826837 [Eh]
	-----------------------------------------------------------

  Dipole Moment: [D]
     X:    -0.1630      Y:     0.7012      Z:    -0.0000     Total:     0.7199

*** Psi4 exiting successfully. Buy a developer a beer!
