                               Psi4 1.4a3.dev225

  ==> Input File <==

--------------------------------------------------------------------------
#psi4
#
memory 32 gb

molecule  {
0 1
  O        1.7152690     0.3729450     0.0000090
  N        0.1712200    -1.3621090     0.0000060
  C       -0.5564040     0.9604300     0.0000000
  C        0.3115426    -0.1534209     0.0000057
  C       -1.8793030     0.5348530    -0.0000030
  C       -0.1474190     2.4036860    -0.0000010
  C       -2.1785860    -0.8336660    -0.0000030
  C       -1.1267010    -1.7380260     0.0000010
  C        2.7107190    -0.6607300    -0.0000090
  H       -2.6789950     1.2736560    -0.0000080
  H       -1.0269000     3.0530270    -0.0000180
  H        0.4613570     2.6342930     0.8791020
  H        0.4613860     2.6342840    -0.8790860
  H       -3.2063890    -1.1841980    -0.0000050
  H       -1.3049600    -2.8116020     0.0000010
  H        2.6194040    -1.2894460    -0.8881130
  H        2.6194520    -1.2894310     0.8881110
  H        3.6618180    -0.1291010    -0.0000380
units angstrom
no_reorient  #important for SAPT in psi4, default
symmetry c1  #important for SAPT in psi4, default
}

set PROPERTIES_ORIGIN ["COM"]
properties('MP2/aug-cc-pvtz', properties = ['dipole'])
--------------------------------------------------------------------------

    Molecular point group: c1
  Charge       = 0
  Multiplicity = 1
  Basis Set: AUG-CC-PVTZ
    Blend: AUG-CC-PVTZ
  Basis Set: (AUG-CC-PVTZ AUX)
    Blend: AUG-CC-PVTZ-JKFIT

    Orbital Energies [Eh]
    ---------------------

    Doubly Occupied:

       1A    -20.557922     2A    -15.564081     3A    -11.326071
       4A    -11.281445     5A    -11.258193     6A    -11.257344
       7A    -11.252356     8A    -11.240305     9A    -11.229833
      10A     -1.367357    11A     -1.284106    12A     -1.114656
      13A     -1.044760    14A     -0.953228    15A     -0.919568
      16A     -0.852262    17A     -0.827643    18A     -0.712024
      19A     -0.688587    20A     -0.636323    21A     -0.632961
      22A     -0.604884    23A     -0.585943    24A     -0.579152
      25A     -0.560115    26A     -0.550660    27A     -0.546229
      28A     -0.526330    29A     -0.481025    30A     -0.452359
      31A     -0.437729    32A     -0.393911    33A     -0.326800

  @DF-RHF Final Energy:  -399.73856663216333

   => Energetics <=

    Nuclear Repulsion Energy =            435.8105118099254582
    One-Electron Energy =               -1407.0058345549975911
    Two-Electron Energy =                 571.4567561129088062
    Total Energy =                       -399.7385666321633835
  Basis Set: (AUG-CC-PVTZ AUX)
    Blend: AUG-CC-PVTZ-RI
    Molecular point group: c1

    Geometry (in Angstrom), charge = 0, multiplicity = 1:

       Center              X                  Y                   Z               Mass
    ------------   -----------------  -----------------  -----------------  -----------------
         O            1.739173491943     0.405746824839     0.000008496620    15.994914619570
         N            0.195124491943    -1.329307175161     0.000005496620    14.003074004430
         C           -0.532499508057     0.993231824839    -0.000000503380    12.000000000000
         C            0.335447091943    -0.120619075161     0.000005196620    12.000000000000
         C           -1.855398508057     0.567654824839    -0.000003503380    12.000000000000
         C           -0.123514508057     2.436487824839    -0.000001503380    12.000000000000
         C           -2.154681508057    -0.800864175161    -0.000003503380    12.000000000000
         C           -1.102796508057    -1.705224175161     0.000000496620    12.000000000000
         C            2.734623491943    -0.627928175161    -0.000009503380    12.000000000000
         H           -2.655090508057     1.306457824839    -0.000008503380     1.007825032230
         H           -1.002995508057     3.085828824839    -0.000018503380     1.007825032230
         H            0.485261491943     2.667094824839     0.879101496620     1.007825032230
         H            0.485290491943     2.667085824839    -0.879086503380     1.007825032230
         H           -3.182484508057    -1.151396175161    -0.000005503380     1.007825032230
         H           -1.281055508057    -2.778800175161     0.000000496620     1.007825032230
         H            2.643308491943    -1.256644175161    -0.888113503380     1.007825032230
         H            2.643356491943    -1.256629175161     0.888110496620     1.007825032230
         H            3.685722491943    -0.096299175161    -0.000038503380     1.007825032230

  Basis Set: AUG-CC-PVTZ
    Blend: AUG-CC-PVTZ
  Basis Set: (AUG-CC-PVTZ AUX)
    Blend: AUG-CC-PVTZ-JKFIT
	 Reference Energy          =    -399.7385666321633266 [Eh]
	 Singles Energy            =      -0.0000000000000000 [Eh]
	 Same-Spin Energy          =      -0.4237292209486441 [Eh]
	 Opposite-Spin Energy      =      -1.3383133619642984 [Eh]
	 Correlation Energy        =      -1.7620425829129425 [Eh]
	 Total Energy              =    -401.5006092150762811 [Eh]

	 ================> DF-SCS-MP2 Energies <==================
	-----------------------------------------------------------
	 SCS Same-Spin Scale       =       0.3333333333333333 [-]
	 SCS Opposite-Spin Scale   =       1.2000000000000000 [-]
	 SCS Same-Spin Energy      =      -0.1412430736495480 [Eh]
	 SCS Opposite-Spin Energy  =      -1.6059760343571581 [Eh]
	 SCS Correlation Energy    =      -1.7472191080067061 [Eh]
	 SCS Total Energy          =    -401.4857857401700585 [Eh]
	-----------------------------------------------------------

  Dipole Moment: [D]
     X:    -1.5776      Y:     0.4814      Z:    -0.0000     Total:     1.6494

*** Psi4 exiting successfully. Buy a developer a beer!
