                               Psi4 1.4a3.dev225

  ==> Input File <==

--------------------------------------------------------------------------
#psi4
#
memory 32 gb

molecule  {
0 1
  O        1.7897994     0.4398661     0.0000065
  N        0.1712200    -1.3621090     0.0000060
  C       -0.5564040     0.9604300     0.0000000
  C        0.4232170    -0.0565940     0.0000060
  C       -1.8793030     0.5348530    -0.0000030
  C       -0.1474190     2.4036860    -0.0000010
  C       -2.1785860    -0.8336660    -0.0000030
  C       -1.1267010    -1.7380260     0.0000010
  C        2.7107190    -0.6607300    -0.0000090
  H       -2.6789950     1.2736560    -0.0000080
  H       -1.0269000     3.0530270    -0.0000180
  H        0.4613570     2.6342930     0.8791020
  H        0.4613860     2.6342840    -0.8790860
  H       -3.2063890    -1.1841980    -0.0000050
  H       -1.3049600    -2.8116020     0.0000010
  H        2.6194040    -1.2894460    -0.8881130
  H        2.6194520    -1.2894310     0.8881110
  H        3.6618180    -0.1291010    -0.0000380
units angstrom
no_reorient  #important for SAPT in psi4, default
symmetry c1  #important for SAPT in psi4, default
}

set PROPERTIES_ORIGIN ["COM"]
properties('MP2/aug-cc-pvtz', properties = ['dipole'])
--------------------------------------------------------------------------

    Molecular point group: c1
  Charge       = 0
  Multiplicity = 1
  Basis Set: AUG-CC-PVTZ
    Blend: AUG-CC-PVTZ
  Basis Set: (AUG-CC-PVTZ AUX)
    Blend: AUG-CC-PVTZ-JKFIT

    Orbital Energies [Eh]
    ---------------------

    Doubly Occupied:

       1A    -20.585551     2A    -15.568597     3A    -11.337436
       4A    -11.278291     5A    -11.266450     6A    -11.257715
       7A    -11.247925     8A    -11.237205     9A    -11.225489
      10A     -1.383246    11A     -1.250861    12A     -1.102969
      13A     -1.042836    14A     -0.948310    15A     -0.929769
      16A     -0.837110    17A     -0.829323    18A     -0.712857
      19A     -0.685119    20A     -0.646136    21A     -0.640510
      22A     -0.603558    23A     -0.586946    24A     -0.577483
      25A     -0.558929    26A     -0.552080    27A     -0.529558
      28A     -0.528016    29A     -0.495206    30A     -0.469585
      31A     -0.427729    32A     -0.381040    33A     -0.324008

  @DF-RHF Final Energy:  -399.75288470002647

   => Energetics <=

    Nuclear Repulsion Energy =            432.8554948912776013
    One-Electron Energy =               -1401.1210756439488705
    Two-Electron Energy =                 568.5126960526447419
    Total Energy =                       -399.7528847000264705
  Basis Set: (AUG-CC-PVTZ AUX)
    Blend: AUG-CC-PVTZ-RI
    Molecular point group: c1

    Geometry (in Angstrom), charge = 0, multiplicity = 1:

       Center              X                  Y                   Z               Mass
    ------------   -----------------  -----------------  -----------------  -----------------
         O            1.793128342913     0.454529070118     0.000006292288    15.994914619570
         N            0.174548942913    -1.347446029882     0.000005792288    14.003074004430
         C           -0.553075057087     0.975092970118    -0.000000207712    12.000000000000
         C            0.426545942913    -0.041931029882     0.000005792288    12.000000000000
         C           -1.875974057087     0.549515970118    -0.000003207712    12.000000000000
         C           -0.144090057087     2.418348970118    -0.000001207712    12.000000000000
         C           -2.175257057087    -0.819003029882    -0.000003207712    12.000000000000
         C           -1.123372057087    -1.723363029882     0.000000792288    12.000000000000
         C            2.714047942913    -0.646067029882    -0.000009207712    12.000000000000
         H           -2.675666057087     1.288318970118    -0.000008207712     1.007825032230
         H           -1.023571057087     3.067689970118    -0.000018207712     1.007825032230
         H            0.464685942913     2.648955970118     0.879101792288     1.007825032230
         H            0.464714942913     2.648946970118    -0.879086207712     1.007825032230
         H           -3.203060057087    -1.169535029882    -0.000005207712     1.007825032230
         H           -1.301631057087    -2.796939029882     0.000000792288     1.007825032230
         H            2.622732942913    -1.274783029882    -0.888113207712     1.007825032230
         H            2.622780942913    -1.274768029882     0.888110792288     1.007825032230
         H            3.665146942913    -0.114438029882    -0.000038207712     1.007825032230

  Basis Set: AUG-CC-PVTZ
    Blend: AUG-CC-PVTZ
  Basis Set: (AUG-CC-PVTZ AUX)
    Blend: AUG-CC-PVTZ-JKFIT
	 Reference Energy          =    -399.7528847000264705 [Eh]
	 Singles Energy            =      -0.0000000000000000 [Eh]
	 Same-Spin Energy          =      -0.4249389119797426 [Eh]
	 Opposite-Spin Energy      =      -1.3402986556224739 [Eh]
	 Correlation Energy        =      -1.7652375676022165 [Eh]
	 Total Energy              =    -401.5181222676287121 [Eh]

	 ================> DF-SCS-MP2 Energies <==================
	-----------------------------------------------------------
	 SCS Same-Spin Scale       =       0.3333333333333333 [-]
	 SCS Opposite-Spin Scale   =       1.2000000000000000 [-]
	 SCS Same-Spin Energy      =      -0.1416463039932475 [Eh]
	 SCS Opposite-Spin Energy  =      -1.6083583867469686 [Eh]
	 SCS Correlation Energy    =      -1.7500046907402163 [Eh]
	 SCS Total Energy          =    -401.5028893907667111 [Eh]
	-----------------------------------------------------------

  Dipole Moment: [D]
     X:    -1.1539      Y:     0.5165      Z:    -0.0000     Total:     1.2642

*** Psi4 exiting successfully. Buy a developer a beer!
