                               Psi4 1.4a3.dev225

  ==> Input File <==

--------------------------------------------------------------------------
#psi4
#
memory 32 gb

molecule  {
0 1
  O        1.7152690     0.3729450     0.0000090
  N        0.1712200    -1.3621090     0.0000060
  C       -0.5564040     0.9604300     0.0000000
  C        0.6130041     0.0065002     0.0000064
  C       -1.8793030     0.5348530    -0.0000030
  C       -0.1474190     2.4036860    -0.0000010
  C       -2.1785860    -0.8336660    -0.0000030
  C       -1.1267010    -1.7380260     0.0000010
  C        2.7107190    -0.6607300    -0.0000090
  H       -2.6789950     1.2736560    -0.0000080
  H       -1.0269000     3.0530270    -0.0000180
  H        0.4613570     2.6342930     0.8791020
  H        0.4613860     2.6342840    -0.8790860
  H       -3.2063890    -1.1841980    -0.0000050
  H       -1.3049600    -2.8116020     0.0000010
  H        2.6194040    -1.2894460    -0.8881130
  H        2.6194520    -1.2894310     0.8881110
  H        3.6618180    -0.1291010    -0.0000380
units angstrom
no_reorient  #important for SAPT in psi4, default
symmetry c1  #important for SAPT in psi4, default
}

set PROPERTIES_ORIGIN ["COM"]
properties('MP2/aug-cc-pvtz', properties = ['dipole'])
--------------------------------------------------------------------------

    Molecular point group: c1
  Charge       = 0
  Multiplicity = 1
  Basis Set: AUG-CC-PVTZ
    Blend: AUG-CC-PVTZ
  Basis Set: (AUG-CC-PVTZ AUX)
    Blend: AUG-CC-PVTZ-JKFIT

    Orbital Energies [Eh]
    ---------------------

    Doubly Occupied:

       1A    -20.636393     2A    -15.541905     3A    -11.350936
       4A    -11.304160     5A    -11.262088     6A    -11.242462
       7A    -11.234575     8A    -11.216639     9A    -11.210009
      10A     -1.547306    11A     -1.199739    12A     -1.079043
      13A     -1.040054    14A     -0.992572    15A     -0.924445
      16A     -0.827792    17A     -0.811814    18A     -0.756137
      19A     -0.716818    20A     -0.711225    21A     -0.651127
      22A     -0.601292    23A     -0.584502    24A     -0.574739
      25A     -0.562128    26A     -0.552304    27A     -0.545500
      28A     -0.527588    29A     -0.500313    30A     -0.483248
      31A     -0.378247    32A     -0.359906    33A     -0.284638

  @DF-RHF Final Energy:  -399.70374371728326

   => Energetics <=

    Nuclear Repulsion Energy =            435.5044484066251584
    One-Electron Energy =               -1405.9930974311093905
    Two-Electron Energy =                 570.7849053072009156
    Total Energy =                       -399.7037437172832597
  Basis Set: (AUG-CC-PVTZ AUX)
    Blend: AUG-CC-PVTZ-RI
    Molecular point group: c1

    Geometry (in Angstrom), charge = 0, multiplicity = 1:

       Center              X                  Y                   Z               Mass
    ------------   -----------------  -----------------  -----------------  -----------------
         O            1.709778963445     0.390153439510     0.000008428366    15.994914619570
         N            0.165729963445    -1.344900560490     0.000005428366    14.003074004430
         C           -0.561894036555     0.977638439510    -0.000000571634    12.000000000000
         C            0.607514063445     0.023708639510     0.000005828366    12.000000000000
         C           -1.884793036555     0.552061439510    -0.000003571634    12.000000000000
         C           -0.152909036555     2.420894439510    -0.000001571634    12.000000000000
         C           -2.184076036555    -0.816457560490    -0.000003571634    12.000000000000
         C           -1.132191036555    -1.720817560490     0.000000428366    12.000000000000
         C            2.705228963445    -0.643521560490    -0.000009571634    12.000000000000
         H           -2.684485036555     1.290864439510    -0.000008571634     1.007825032230
         H           -1.032390036555     3.070235439510    -0.000018571634     1.007825032230
         H            0.455866963445     2.651501439510     0.879101428366     1.007825032230
         H            0.455895963445     2.651492439510    -0.879086571634     1.007825032230
         H           -3.211879036555    -1.166989560490    -0.000005571634     1.007825032230
         H           -1.310450036555    -2.794393560490     0.000000428366     1.007825032230
         H            2.613913963445    -1.272237560490    -0.888113571634     1.007825032230
         H            2.613961963445    -1.272222560490     0.888110428366     1.007825032230
         H            3.656327963445    -0.111892560490    -0.000038571634     1.007825032230

  Basis Set: AUG-CC-PVTZ
    Blend: AUG-CC-PVTZ
  Basis Set: (AUG-CC-PVTZ AUX)
    Blend: AUG-CC-PVTZ-JKFIT
	 Reference Energy          =    -399.7037437172832597 [Eh]
	 Singles Energy            =      -0.0000000000000000 [Eh]
	 Same-Spin Energy          =      -0.4246886552414757 [Eh]
	 Opposite-Spin Energy      =      -1.3374208275517985 [Eh]
	 Correlation Energy        =      -1.7621094827932742 [Eh]
	 Total Energy              =    -401.4658532000765376 [Eh]

	 ================> DF-SCS-MP2 Energies <==================
	-----------------------------------------------------------
	 SCS Same-Spin Scale       =       0.3333333333333333 [-]
	 SCS Opposite-Spin Scale   =       1.2000000000000000 [-]
	 SCS Same-Spin Energy      =      -0.1415628850804919 [Eh]
	 SCS Opposite-Spin Energy  =      -1.6049049930621582 [Eh]
	 SCS Correlation Energy    =      -1.7464678781426501 [Eh]
	 SCS Total Energy          =    -401.4502115954259125 [Eh]
	-----------------------------------------------------------

  Dipole Moment: [D]
     X:     1.4169      Y:     0.8947      Z:    -0.0000     Total:     1.6757

*** Psi4 exiting successfully. Buy a developer a beer!
