                               Psi4 1.4a3.dev225

  ==> Input File <==

--------------------------------------------------------------------------
#psi4
#
memory 32 gb

molecule  {
0 1
  O        1.7152690     0.3729450     0.0000090
  N        0.1712200    -1.3621090     0.0000060
  C       -0.5564040     0.9604300     0.0000000
  C        0.4232170    -0.0565940     0.0000060
  C       -1.8793030     0.5348530    -0.0000030
  C       -0.1474190     2.4036860    -0.0000010
  C       -2.1785860    -0.8336660    -0.0000030
  C       -1.1747272    -1.7519358     0.0000008
  C        2.7107190    -0.6607300    -0.0000090
  H       -2.6789950     1.2736560    -0.0000080
  H       -1.0269000     3.0530270    -0.0000180
  H        0.4613570     2.6342930     0.8791020
  H        0.4613860     2.6342840    -0.8790860
  H       -3.2063890    -1.1841980    -0.0000050
  H       -1.3049600    -2.8116020     0.0000010
  H        2.6194040    -1.2894460    -0.8881130
  H        2.6194520    -1.2894310     0.8881110
  H        3.6618180    -0.1291010    -0.0000380
units angstrom
no_reorient  #important for SAPT in psi4, default
symmetry c1  #important for SAPT in psi4, default
}

set PROPERTIES_ORIGIN ["COM"]
properties('MP2/aug-cc-pvtz', properties = ['dipole'])
--------------------------------------------------------------------------

    Molecular point group: c1
  Charge       = 0
  Multiplicity = 1
  Basis Set: AUG-CC-PVTZ
    Blend: AUG-CC-PVTZ
  Basis Set: (AUG-CC-PVTZ AUX)
    Blend: AUG-CC-PVTZ-JKFIT

    Orbital Energies [Eh]
    ---------------------

    Doubly Occupied:

       1A    -20.586573     2A    -15.559006     3A    -11.331592
       4A    -11.273323     5A    -11.271943     6A    -11.254937
       7A    -11.243975     8A    -11.229387     9A    -11.225142
      10A     -1.414661    11A     -1.231721    12A     -1.097261
      13A     -1.044868    14A     -0.954484    15A     -0.937888
      16A     -0.837553    17A     -0.820097    18A     -0.720736
      19A     -0.685760    20A     -0.652799    21A     -0.649223
      22A     -0.601984    23A     -0.595335    24A     -0.576809
      25A     -0.561005    26A     -0.545408    27A     -0.528292
      28A     -0.526069    29A     -0.499165    30A     -0.475304
      31A     -0.423103    32A     -0.372156    33A     -0.320511

  @DF-RHF Final Energy:  -399.76182103279388

   => Energetics <=

    Nuclear Repulsion Energy =            434.6655557857541226
    One-Electron Energy =               -1404.7586133311126559
    Two-Electron Energy =                 570.3312365125646011
    Total Energy =                       -399.7618210327939323
  Basis Set: (AUG-CC-PVTZ AUX)
    Blend: AUG-CC-PVTZ-RI
    Molecular point group: c1

    Geometry (in Angstrom), charge = 0, multiplicity = 1:

       Center              X                  Y                   Z               Mass
    ------------   -----------------  -----------------  -----------------  -----------------
         O            1.732967363370     0.397661848619     0.000008486870    15.994914619570
         N            0.188918363370    -1.337392151381     0.000005486870    14.003074004430
         C           -0.538705636630     0.985146848619    -0.000000513130    12.000000000000
         C            0.440915363370    -0.031877151381     0.000005486870    12.000000000000
         C           -1.861604636630     0.559569848619    -0.000003513130    12.000000000000
         C           -0.129720636630     2.428402848619    -0.000001513130    12.000000000000
         C           -2.160887636630    -0.808949151381    -0.000003513130    12.000000000000
         C           -1.157028836630    -1.727218951381     0.000000286870    12.000000000000
         C            2.728417363370    -0.636013151381    -0.000009513130    12.000000000000
         H           -2.661296636630     1.298372848619    -0.000008513130     1.007825032230
         H           -1.009201636630     3.077743848619    -0.000018513130     1.007825032230
         H            0.479055363370     2.659009848619     0.879101486870     1.007825032230
         H            0.479084363370     2.659000848619    -0.879086513130     1.007825032230
         H           -3.188690636630    -1.159481151381    -0.000005513130     1.007825032230
         H           -1.287261636630    -2.786885151381     0.000000486870     1.007825032230
         H            2.637102363370    -1.264729151381    -0.888113513130     1.007825032230
         H            2.637150363370    -1.264714151381     0.888110486870     1.007825032230
         H            3.679516363370    -0.104384151381    -0.000038513130     1.007825032230

  Basis Set: AUG-CC-PVTZ
    Blend: AUG-CC-PVTZ
  Basis Set: (AUG-CC-PVTZ AUX)
    Blend: AUG-CC-PVTZ-JKFIT
	 Reference Energy          =    -399.7618210327938755 [Eh]
	 Singles Energy            =      -0.0000000000000000 [Eh]
	 Same-Spin Energy          =      -0.4236810273946492 [Eh]
	 Opposite-Spin Energy      =      -1.3375122188160766 [Eh]
	 Correlation Energy        =      -1.7611932462107258 [Eh]
	 Total Energy              =    -401.5230142790045988 [Eh]

	 ================> DF-SCS-MP2 Energies <==================
	-----------------------------------------------------------
	 SCS Same-Spin Scale       =       0.3333333333333333 [-]
	 SCS Opposite-Spin Scale   =       1.2000000000000000 [-]
	 SCS Same-Spin Energy      =      -0.1412270091315497 [Eh]
	 SCS Opposite-Spin Energy  =      -1.6050146625792918 [Eh]
	 SCS Correlation Energy    =      -1.7462416717108415 [Eh]
	 SCS Total Energy          =    -401.5080627045047095 [Eh]
	-----------------------------------------------------------

  Dipole Moment: [D]
     X:    -0.5869      Y:     0.6686      Z:    -0.0000     Total:     0.8896

*** Psi4 exiting successfully. Buy a developer a beer!
