                               Psi4 1.4a3.dev225

  ==> Input File <==

--------------------------------------------------------------------------
#psi4
#
memory 32 gb

molecule  {
0 1
  O        1.7152690     0.3729450     0.0000090
  N        0.1712200    -1.3621090     0.0000060
  C       -0.5564040     0.9604300     0.0000000
  C        0.4706638    -0.0408205     0.0000061
  C       -1.8793030     0.5348530    -0.0000030
  C       -0.1474190     2.4036860    -0.0000010
  C       -2.1785860    -0.8336660    -0.0000030
  C       -1.1267010    -1.7380260     0.0000010
  C        2.7107190    -0.6607300    -0.0000090
  H       -2.6789950     1.2736560    -0.0000080
  H       -1.0269000     3.0530270    -0.0000180
  H        0.4613570     2.6342930     0.8791020
  H        0.4613860     2.6342840    -0.8790860
  H       -3.2063890    -1.1841980    -0.0000050
  H       -1.3049600    -2.8116020     0.0000010
  H        2.6194040    -1.2894460    -0.8881130
  H        2.6194520    -1.2894310     0.8881110
  H        3.6618180    -0.1291010    -0.0000380
units angstrom
no_reorient  #important for SAPT in psi4, default
symmetry c1  #important for SAPT in psi4, default
}

set PROPERTIES_ORIGIN ["COM"]
properties('MP2/aug-cc-pvtz', properties = ['dipole'])
--------------------------------------------------------------------------

    Molecular point group: c1
  Charge       = 0
  Multiplicity = 1
  Basis Set: AUG-CC-PVTZ
    Blend: AUG-CC-PVTZ
  Basis Set: (AUG-CC-PVTZ AUX)
    Blend: AUG-CC-PVTZ-JKFIT

    Orbital Energies [Eh]
    ---------------------

    Doubly Occupied:

       1A    -20.598205     2A    -15.555372     3A    -11.336107
       4A    -11.280737     5A    -11.270988     6A    -11.251520
       7A    -11.240374     8A    -11.226150     9A    -11.222452
      10A     -1.442292    11A     -1.233369    12A     -1.093797
      13A     -1.038038    14A     -0.964272    15A     -0.934636
      16A     -0.829386    17A     -0.823386    18A     -0.727885
      19A     -0.690929    20A     -0.665805    21A     -0.651263
      22A     -0.603750    23A     -0.589642    24A     -0.575511
      25A     -0.559534    26A     -0.543706    27A     -0.532391
      28A     -0.528229    29A     -0.506430    30A     -0.483160
      31A     -0.412685    32A     -0.372522    33A     -0.308374

  @DF-RHF Final Energy:  -399.76262345618636

   => Energetics <=

    Nuclear Repulsion Energy =            435.2629022354273047
    One-Electron Energy =               -1405.8652562393695007
    Two-Electron Energy =                 570.8397305477558348
    Total Energy =                       -399.7626234561863612
  Basis Set: (AUG-CC-PVTZ AUX)
    Blend: AUG-CC-PVTZ-RI
    Molecular point group: c1

    Geometry (in Angstrom), charge = 0, multiplicity = 1:

       Center              X                  Y                   Z               Mass
    ------------   -----------------  -----------------  -----------------  -----------------
         O            1.723658102257     0.394767526764     0.000008457618    15.994914619570
         N            0.179609102257    -1.340286473236     0.000005457618    14.003074004430
         C           -0.548014897743     0.982252526764    -0.000000542382    12.000000000000
         C            0.479052902257    -0.018997973236     0.000005557618    12.000000000000
         C           -1.870913897743     0.556675526764    -0.000003542382    12.000000000000
         C           -0.139029897743     2.425508526764    -0.000001542382    12.000000000000
         C           -2.170196897743    -0.811843473236    -0.000003542382    12.000000000000
         C           -1.118311897743    -1.716203473236     0.000000457618    12.000000000000
         C            2.719108102257    -0.638907473236    -0.000009542382    12.000000000000
         H           -2.670605897743     1.295478526764    -0.000008542382     1.007825032230
         H           -1.018510897743     3.074849526764    -0.000018542382     1.007825032230
         H            0.469746102257     2.656115526764     0.879101457618     1.007825032230
         H            0.469775102257     2.656106526764    -0.879086542382     1.007825032230
         H           -3.197999897743    -1.162375473236    -0.000005542382     1.007825032230
         H           -1.296570897743    -2.789779473236     0.000000457618     1.007825032230
         H            2.627793102257    -1.267623473236    -0.888113542382     1.007825032230
         H            2.627841102257    -1.267608473236     0.888110457618     1.007825032230
         H            3.670207102257    -0.107278473236    -0.000038542382     1.007825032230

  Basis Set: AUG-CC-PVTZ
    Blend: AUG-CC-PVTZ
  Basis Set: (AUG-CC-PVTZ AUX)
    Blend: AUG-CC-PVTZ-JKFIT
	 Reference Energy          =    -399.7626234561863612 [Eh]
	 Singles Energy            =      -0.0000000000000000 [Eh]
	 Same-Spin Energy          =      -0.4238551827715741 [Eh]
	 Opposite-Spin Energy      =      -1.3364871732823889 [Eh]
	 Correlation Energy        =      -1.7603423560539628 [Eh]
	 Total Energy              =    -401.5229658122403293 [Eh]

	 ================> DF-SCS-MP2 Energies <==================
	-----------------------------------------------------------
	 SCS Same-Spin Scale       =       0.3333333333333333 [-]
	 SCS Opposite-Spin Scale   =       1.2000000000000000 [-]
	 SCS Same-Spin Energy      =      -0.1412850609238580 [Eh]
	 SCS Opposite-Spin Energy  =      -1.6037846079388667 [Eh]
	 SCS Correlation Energy    =      -1.7450696688627247 [Eh]
	 SCS Total Energy          =    -401.5076931250490588 [Eh]
	-----------------------------------------------------------

  Dipole Moment: [D]
     X:    -0.0838      Y:     0.7056      Z:    -0.0000     Total:     0.7105

*** Psi4 exiting successfully. Buy a developer a beer!
