                               Psi4 1.4a3.dev225

  ==> Input File <==

--------------------------------------------------------------------------
#psi4
#
memory 32 gb

molecule  {
0 1
  O        1.7152690     0.3729450     0.0000090
  N        0.1248158    -1.2284986     0.0000057
  C       -0.5564040     0.9604300     0.0000000
  C        0.4232170    -0.0565940     0.0000060
  C       -1.8793030     0.5348530    -0.0000030
  C       -0.1474190     2.4036860    -0.0000010
  C       -2.1785860    -0.8336660    -0.0000030
  C       -1.1267010    -1.7380260     0.0000010
  C        2.7107190    -0.6607300    -0.0000090
  H       -2.6789950     1.2736560    -0.0000080
  H       -1.0269000     3.0530270    -0.0000180
  H        0.4613570     2.6342930     0.8791020
  H        0.4613860     2.6342840    -0.8790860
  H       -3.2063890    -1.1841980    -0.0000050
  H       -1.3049600    -2.8116020     0.0000010
  H        2.6194040    -1.2894460    -0.8881130
  H        2.6194520    -1.2894310     0.8881110
  H        3.6618180    -0.1291010    -0.0000380
units angstrom
no_reorient  #important for SAPT in psi4, default
symmetry c1  #important for SAPT in psi4, default
}

set PROPERTIES_ORIGIN ["COM"]
properties('MP2/aug-cc-pvtz', properties = ['dipole'])
--------------------------------------------------------------------------

    Molecular point group: c1
  Charge       = 0
  Multiplicity = 1
  Basis Set: AUG-CC-PVTZ
    Blend: AUG-CC-PVTZ
  Basis Set: (AUG-CC-PVTZ AUX)
    Blend: AUG-CC-PVTZ-JKFIT

    Orbital Energies [Eh]
    ---------------------

    Doubly Occupied:

       1A    -20.578525     2A    -15.540193     3A    -11.313395
       4A    -11.274500     5A    -11.272031     6A    -11.247793
       7A    -11.240573     8A    -11.232496     9A    -11.221661
      10A     -1.414460    11A     -1.273343    12A     -1.097003
      13A     -1.048221    14A     -0.952540    15A     -0.940721
      16A     -0.841402    17A     -0.823502    18A     -0.725186
      19A     -0.694080    20A     -0.655144    21A     -0.649607
      22A     -0.609543    23A     -0.588610    24A     -0.577315
      25A     -0.557294    26A     -0.547310    27A     -0.539579
      28A     -0.526694    29A     -0.502133    30A     -0.473303
      31A     -0.403785    32A     -0.380596    33A     -0.317992

  @DF-RHF Final Energy:  -399.75367226341632

   => Energetics <=

    Nuclear Repulsion Energy =            438.7766478135069974
    One-Electron Energy =               -1412.9395850830708241
    Two-Electron Energy =                 574.4092650061475069
    Total Energy =                       -399.7536722634163198
  Basis Set: (AUG-CC-PVTZ AUX)
    Blend: AUG-CC-PVTZ-RI
    Molecular point group: c1

    Geometry (in Angstrom), charge = 0, multiplicity = 1:

       Center              X                  Y                   Z               Mass
    ------------   -----------------  -----------------  -----------------  -----------------
         O            1.733564486908     0.381102978197     0.000008501503    15.994914619570
         N            0.143111286908    -1.220340621803     0.000005201503    14.003074004430
         C           -0.538108513092     0.968587978197    -0.000000498497    12.000000000000
         C            0.441512486908    -0.048436021803     0.000005501503    12.000000000000
         C           -1.861007513092     0.543010978197    -0.000003498497    12.000000000000
         C           -0.129123513092     2.411843978197    -0.000001498497    12.000000000000
         C           -2.160290513092    -0.825508021803    -0.000003498497    12.000000000000
         C           -1.108405513092    -1.729868021803     0.000000501503    12.000000000000
         C            2.729014486908    -0.652572021803    -0.000009498497    12.000000000000
         H           -2.660699513092     1.281813978197    -0.000008498497     1.007825032230
         H           -1.008604513092     3.061184978197    -0.000018498497     1.007825032230
         H            0.479652486908     2.642450978197     0.879101501503     1.007825032230
         H            0.479681486908     2.642441978197    -0.879086498497     1.007825032230
         H           -3.188093513092    -1.176040021803    -0.000005498497     1.007825032230
         H           -1.286664513092    -2.803444021803     0.000000501503     1.007825032230
         H            2.637699486908    -1.281288021803    -0.888113498497     1.007825032230
         H            2.637747486908    -1.281273021803     0.888110501503     1.007825032230
         H            3.680113486908    -0.120943021803    -0.000038498497     1.007825032230

  Basis Set: AUG-CC-PVTZ
    Blend: AUG-CC-PVTZ
  Basis Set: (AUG-CC-PVTZ AUX)
    Blend: AUG-CC-PVTZ-JKFIT
	 Reference Energy          =    -399.7536722634163198 [Eh]
	 Singles Energy            =      -0.0000000000000000 [Eh]
	 Same-Spin Energy          =      -0.4226434940347745 [Eh]
	 Opposite-Spin Energy      =      -1.3338595972246865 [Eh]
	 Correlation Energy        =      -1.7565030912594610 [Eh]
	 Total Energy              =    -401.5101753546757664 [Eh]

	 ================> DF-SCS-MP2 Energies <==================
	-----------------------------------------------------------
	 SCS Same-Spin Scale       =       0.3333333333333333 [-]
	 SCS Opposite-Spin Scale   =       1.2000000000000000 [-]
	 SCS Same-Spin Energy      =      -0.1408811646782582 [Eh]
	 SCS Opposite-Spin Energy  =      -1.6006315166696237 [Eh]
	 SCS Correlation Energy    =      -1.7415126813478818 [Eh]
	 SCS Total Energy          =    -401.4951849447642189 [Eh]
	-----------------------------------------------------------

  Dipole Moment: [D]
     X:    -0.6034      Y:     0.2646      Z:    -0.0000     Total:     0.6588

*** Psi4 exiting successfully. Buy a developer a beer!
