                               Psi4 1.4a3.dev225

  ==> Input File <==

--------------------------------------------------------------------------
#psi4
#
memory 32 gb

molecule  {
0 1
  O        1.7152690     0.3729450     0.0000090
  N        0.1712200    -1.3621090     0.0000060
  C       -0.5564040     0.9604300     0.0000000
  C        0.3283235    -0.0881411     0.0000058
  C       -1.8793030     0.5348530    -0.0000030
  C       -0.1474190     2.4036860    -0.0000010
  C       -2.1785860    -0.8336660    -0.0000030
  C       -1.1267010    -1.7380260     0.0000010
  C        2.7107190    -0.6607300    -0.0000090
  H       -2.6789950     1.2736560    -0.0000080
  H       -1.0269000     3.0530270    -0.0000180
  H        0.4613570     2.6342930     0.8791020
  H        0.4613860     2.6342840    -0.8790860
  H       -3.2063890    -1.1841980    -0.0000050
  H       -1.3049600    -2.8116020     0.0000010
  H        2.6194040    -1.2894460    -0.8881130
  H        2.6194520    -1.2894310     0.8881110
  H        3.6618180    -0.1291010    -0.0000380
units angstrom
no_reorient  #important for SAPT in psi4, default
symmetry c1  #important for SAPT in psi4, default
}

set PROPERTIES_ORIGIN ["COM"]
properties('MP2/aug-cc-pvtz', properties = ['dipole'])
--------------------------------------------------------------------------

    Molecular point group: c1
  Charge       = 0
  Multiplicity = 1
  Basis Set: AUG-CC-PVTZ
    Blend: AUG-CC-PVTZ
  Basis Set: (AUG-CC-PVTZ AUX)
    Blend: AUG-CC-PVTZ-JKFIT

    Orbital Energies [Eh]
    ---------------------

    Doubly Occupied:

       1A    -20.564894     2A    -15.565638     3A    -11.326825
       4A    -11.279866     5A    -11.261715     6A    -11.260056
       7A    -11.244971     8A    -11.237466     9A    -11.228268
      10A     -1.373029    11A     -1.264766    12A     -1.112499
      13A     -1.044875    14A     -0.952118    15A     -0.925113
      16A     -0.849863    17A     -0.827578    18A     -0.711239
      19A     -0.687962    20A     -0.638551    21A     -0.635321
      22A     -0.603825    23A     -0.589357    24A     -0.579053
      25A     -0.557809    26A     -0.553140    27A     -0.537208
      28A     -0.526719    29A     -0.481810    30A     -0.459012
      31A     -0.439838    32A     -0.385174    33A     -0.327748

  @DF-RHF Final Energy:  -399.75317514490951

   => Energetics <=

    Nuclear Repulsion Energy =            435.5738875741115521
    One-Electron Energy =               -1406.5875076233960499
    Two-Electron Energy =                 571.2604449043750492
    Total Energy =                       -399.7531751449095054
  Basis Set: (AUG-CC-PVTZ AUX)
    Blend: AUG-CC-PVTZ-RI
    Molecular point group: c1

    Geometry (in Angstrom), charge = 0, multiplicity = 1:

       Center              X                  Y                   Z               Mass
    ------------   -----------------  -----------------  -----------------  -----------------
         O            1.737537241068     0.399381604267     0.000008486870    15.994914619570
         N            0.193488241068    -1.335672395733     0.000005486870    14.003074004430
         C           -0.534135758932     0.986866604267    -0.000000513130    12.000000000000
         C            0.350591741068    -0.061704495733     0.000005286870    12.000000000000
         C           -1.857034758932     0.561289604267    -0.000003513130    12.000000000000
         C           -0.125150758932     2.430122604267    -0.000001513130    12.000000000000
         C           -2.156317758932    -0.807229395733    -0.000003513130    12.000000000000
         C           -1.104432758932    -1.711589395733     0.000000486870    12.000000000000
         C            2.732987241068    -0.634293395733    -0.000009513130    12.000000000000
         H           -2.656726758932     1.300092604267    -0.000008513130     1.007825032230
         H           -1.004631758932     3.079463604267    -0.000018513130     1.007825032230
         H            0.483625241068     2.660729604267     0.879101486870     1.007825032230
         H            0.483654241068     2.660720604267    -0.879086513130     1.007825032230
         H           -3.184120758932    -1.157761395733    -0.000005513130     1.007825032230
         H           -1.282691758932    -2.785165395733     0.000000486870     1.007825032230
         H            2.641672241068    -1.263009395733    -0.888113513130     1.007825032230
         H            2.641720241068    -1.262994395733     0.888110486870     1.007825032230
         H            3.684086241068    -0.102664395733    -0.000038513130     1.007825032230

  Basis Set: AUG-CC-PVTZ
    Blend: AUG-CC-PVTZ
  Basis Set: (AUG-CC-PVTZ AUX)
    Blend: AUG-CC-PVTZ-JKFIT
	 Reference Energy          =    -399.7531751449095054 [Eh]
	 Singles Energy            =      -0.0000000000000000 [Eh]
	 Same-Spin Energy          =      -0.4241308301807227 [Eh]
	 Opposite-Spin Energy      =      -1.3380185320989253 [Eh]
	 Correlation Energy        =      -1.7621493622796480 [Eh]
	 Total Energy              =    -401.5153245071891774 [Eh]

	 ================> DF-SCS-MP2 Energies <==================
	-----------------------------------------------------------
	 SCS Same-Spin Scale       =       0.3333333333333333 [-]
	 SCS Opposite-Spin Scale   =       1.2000000000000000 [-]
	 SCS Same-Spin Energy      =      -0.1413769433935742 [Eh]
	 SCS Opposite-Spin Energy  =      -1.6056222385187102 [Eh]
	 SCS Correlation Energy    =      -1.7469991819122845 [Eh]
	 SCS Total Energy          =    -401.5001743268217638 [Eh]
	-----------------------------------------------------------

  Dipole Moment: [D]
     X:    -1.3513      Y:     0.5599      Z:    -0.0000     Total:     1.4627

*** Psi4 exiting successfully. Buy a developer a beer!
