                               Psi4 1.4a3.dev225

  ==> Input File <==

--------------------------------------------------------------------------
#psi4
#
memory 32 gb

molecule  {
0 1
  O        1.7152690     0.3729450     0.0000090
  N        0.1712200    -1.3621090     0.0000060
  C       -0.5564040     0.9604300     0.0000000
  C        0.4232170    -0.0565940     0.0000060
  C       -1.8793030     0.5348530    -0.0000030
  C       -0.1474190     2.4036860    -0.0000010
  C       -2.1679039    -0.7848204    -0.0000030
  C       -1.1267010    -1.7380260     0.0000010
  C        2.7107190    -0.6607300    -0.0000090
  H       -2.6789950     1.2736560    -0.0000080
  H       -1.0269000     3.0530270    -0.0000180
  H        0.4613570     2.6342930     0.8791020
  H        0.4613860     2.6342840    -0.8790860
  H       -3.2063890    -1.1841980    -0.0000050
  H       -1.3049600    -2.8116020     0.0000010
  H        2.6194040    -1.2894460    -0.8881130
  H        2.6194520    -1.2894310     0.8881110
  H        3.6618180    -0.1291010    -0.0000380
units angstrom
no_reorient  #important for SAPT in psi4, default
symmetry c1  #important for SAPT in psi4, default
}

set PROPERTIES_ORIGIN ["COM"]
properties('MP2/aug-cc-pvtz', properties = ['dipole'])
--------------------------------------------------------------------------

    Molecular point group: c1
  Charge       = 0
  Multiplicity = 1
  Basis Set: AUG-CC-PVTZ
    Blend: AUG-CC-PVTZ
  Basis Set: (AUG-CC-PVTZ AUX)
    Blend: AUG-CC-PVTZ-JKFIT

    Orbital Energies [Eh]
    ---------------------

    Doubly Occupied:

       1A    -20.585241     2A    -15.560839     3A    -11.329760
       4A    -11.278402     5A    -11.273507     6A    -11.248288
       7A    -11.240423     8A    -11.230777     9A    -11.223563
      10A     -1.414076    11A     -1.245555    12A     -1.104155
      13A     -1.040574    14A     -0.955739    15A     -0.933724
      16A     -0.837551    17A     -0.822369    18A     -0.720651
      19A     -0.690035    20A     -0.653015    21A     -0.644896
      22A     -0.601218    23A     -0.593335    24A     -0.576385
      25A     -0.557683    26A     -0.547027    27A     -0.529430
      28A     -0.528926    29A     -0.501531    30A     -0.476891
      31A     -0.421340    32A     -0.382663    33A     -0.311071

  @DF-RHF Final Energy:  -399.76167594951488

   => Energetics <=

    Nuclear Repulsion Energy =            435.8563430963216092
    One-Electron Energy =               -1407.1147613303810431
    Two-Electron Energy =                 571.4967422845446663
    Total Energy =                       -399.7616759495148244
  Basis Set: (AUG-CC-PVTZ AUX)
    Blend: AUG-CC-PVTZ-RI
    Molecular point group: c1

    Geometry (in Angstrom), charge = 0, multiplicity = 1:

       Center              X                  Y                   Z               Mass
    ------------   -----------------  -----------------  -----------------  -----------------
         O            1.727242908349     0.391542774065     0.000008467368    15.994914619570
         N            0.183193908349    -1.343511225935     0.000005467368    14.003074004430
         C           -0.544430091651     0.979027774065    -0.000000532632    12.000000000000
         C            0.435190908349    -0.037996225935     0.000005467368    12.000000000000
         C           -1.867329091651     0.553450774065    -0.000003532632    12.000000000000
         C           -0.135445091651     2.422283774065    -0.000001532632    12.000000000000
         C           -2.155929991651    -0.766222625935    -0.000003532632    12.000000000000
         C           -1.114727091651    -1.719428225935     0.000000467368    12.000000000000
         C            2.722692908349    -0.642132225935    -0.000009532632    12.000000000000
         H           -2.667021091651     1.292253774065    -0.000008532632     1.007825032230
         H           -1.014926091651     3.071624774065    -0.000018532632     1.007825032230
         H            0.473330908349     2.652890774065     0.879101467368     1.007825032230
         H            0.473359908349     2.652881774065    -0.879086532632     1.007825032230
         H           -3.194415091651    -1.165600225935    -0.000005532632     1.007825032230
         H           -1.292986091651    -2.793004225935     0.000000467368     1.007825032230
         H            2.631377908349    -1.270848225935    -0.888113532632     1.007825032230
         H            2.631425908349    -1.270833225935     0.888110467368     1.007825032230
         H            3.673791908349    -0.110503225935    -0.000038532632     1.007825032230

  Basis Set: AUG-CC-PVTZ
    Blend: AUG-CC-PVTZ
  Basis Set: (AUG-CC-PVTZ AUX)
    Blend: AUG-CC-PVTZ-JKFIT
	 Reference Energy          =    -399.7616759495148813 [Eh]
	 Singles Energy            =      -0.0000000000000000 [Eh]
	 Same-Spin Energy          =      -0.4243001730685492 [Eh]
	 Opposite-Spin Energy      =      -1.3371203447670268 [Eh]
	 Correlation Energy        =      -1.7614205178355760 [Eh]
	 Total Energy              =    -401.5230964673504559 [Eh]

	 ================> DF-SCS-MP2 Energies <==================
	-----------------------------------------------------------
	 SCS Same-Spin Scale       =       0.3333333333333333 [-]
	 SCS Opposite-Spin Scale   =       1.2000000000000000 [-]
	 SCS Same-Spin Energy      =      -0.1414333910228497 [Eh]
	 SCS Opposite-Spin Energy  =      -1.6045444137204321 [Eh]
	 SCS Correlation Energy    =      -1.7459778047432819 [Eh]
	 SCS Total Energy          =    -401.5076537542581718 [Eh]
	-----------------------------------------------------------

  Dipole Moment: [D]
     X:    -0.5467      Y:     0.6038      Z:    -0.0000     Total:     0.8145

*** Psi4 exiting successfully. Buy a developer a beer!
