                               Psi4 1.4a3.dev225

  ==> Input File <==

--------------------------------------------------------------------------
#psi4
#
memory 32 gb

molecule  {
0 1
  O        1.7152690     0.3729450     0.0000090
  N        0.1712200    -1.3621090     0.0000060
  C       -0.5564040     0.9604300     0.0000000
  C        0.4232170    -0.0565940     0.0000060
  C       -1.8793030     0.5348530    -0.0000030
  C       -0.1474190     2.4036860    -0.0000010
  C       -2.1785860    -0.8336660    -0.0000030
  C       -1.1267010    -1.7380260     0.0000010
  C        2.7107190    -0.6607300    -0.0000090
  H       -2.6936853     1.2872278    -0.0000081
  H       -1.0269000     3.0530270    -0.0000180
  H        0.4613570     2.6342930     0.8791020
  H        0.4613860     2.6342840    -0.8790860
  H       -3.2063890    -1.1841980    -0.0000050
  H       -1.3049600    -2.8116020     0.0000010
  H        2.6194040    -1.2894460    -0.8881130
  H        2.6194520    -1.2894310     0.8881110
  H        3.6618180    -0.1291010    -0.0000380
units angstrom
no_reorient  #important for SAPT in psi4, default
symmetry c1  #important for SAPT in psi4, default
}

set PROPERTIES_ORIGIN ["COM"]
properties('MP2/aug-cc-pvtz', properties = ['dipole'])
--------------------------------------------------------------------------

    Molecular point group: c1
  Charge       = 0
  Multiplicity = 1
  Basis Set: AUG-CC-PVTZ
    Blend: AUG-CC-PVTZ
  Basis Set: (AUG-CC-PVTZ AUX)
    Blend: AUG-CC-PVTZ-JKFIT

    Orbital Energies [Eh]
    ---------------------

    Doubly Occupied:

       1A    -20.586972     2A    -15.559053     3A    -11.332301
       4A    -11.274103     5A    -11.274006     6A    -11.256648
       7A    -11.242065     8A    -11.230543     9A    -11.224358
      10A     -1.415471    11A     -1.244519    12A     -1.099331
      13A     -1.040197    14A     -0.955706    15A     -0.935175
      16A     -0.834641    17A     -0.824686    18A     -0.719001
      19A     -0.688449    20A     -0.653828    21A     -0.648142
      22A     -0.602565    23A     -0.589835    24A     -0.576717
      25A     -0.558303    26A     -0.547296    27A     -0.529450
      28A     -0.528096    29A     -0.501581    30A     -0.476656
      31A     -0.422776    32A     -0.376829    33A     -0.315467

  @DF-RHF Final Energy:  -399.76498790183206

   => Energetics <=

    Nuclear Repulsion Energy =            435.2159388573214756
    One-Electron Energy =               -1405.8323257780982658
    Two-Electron Energy =                 570.8513990189446758
    Total Energy =                       -399.7649879018321144
  Basis Set: (AUG-CC-PVTZ AUX)
    Blend: AUG-CC-PVTZ-RI
    Molecular point group: c1

    Geometry (in Angstrom), charge = 0, multiplicity = 1:

       Center              X                  Y                   Z               Mass
    ------------   -----------------  -----------------  -----------------  -----------------
         O            1.728404786101     0.396194407916     0.000008468187    15.994914619570
         N            0.184355786101    -1.338859592084     0.000005468187    14.003074004430
         C           -0.543268213899     0.983679407916    -0.000000531813    12.000000000000
         C            0.436352786101    -0.033344592084     0.000005468187    12.000000000000
         C           -1.866167213899     0.558102407916    -0.000003531813    12.000000000000
         C           -0.134283213899     2.426935407916    -0.000001531813    12.000000000000
         C           -2.165450213899    -0.810416592084    -0.000003531813    12.000000000000
         C           -1.113565213899    -1.714776592084     0.000000468187    12.000000000000
         C            2.723854786101    -0.637480592084    -0.000009531813    12.000000000000
         H           -2.680549513899     1.310477207916    -0.000008631813     1.007825032230
         H           -1.013764213899     3.076276407916    -0.000018531813     1.007825032230
         H            0.474492786101     2.657542407916     0.879101468187     1.007825032230
         H            0.474521786101     2.657533407916    -0.879086531813     1.007825032230
         H           -3.193253213899    -1.160948592084    -0.000005531813     1.007825032230
         H           -1.291824213899    -2.788352592084     0.000000468187     1.007825032230
         H            2.632539786101    -1.266196592084    -0.888113531813     1.007825032230
         H            2.632587786101    -1.266181592084     0.888110468187     1.007825032230
         H            3.674953786101    -0.105851592084    -0.000038531813     1.007825032230

  Basis Set: AUG-CC-PVTZ
    Blend: AUG-CC-PVTZ
  Basis Set: (AUG-CC-PVTZ AUX)
    Blend: AUG-CC-PVTZ-JKFIT
	 Reference Energy          =    -399.7649879018320576 [Eh]
	 Singles Energy            =      -0.0000000000000000 [Eh]
	 Same-Spin Energy          =      -0.4238101815903855 [Eh]
	 Opposite-Spin Energy      =      -1.3368055170861584 [Eh]
	 Correlation Energy        =      -1.7606156986765438 [Eh]
	 Total Energy              =    -401.5256036005085889 [Eh]

	 ================> DF-SCS-MP2 Energies <==================
	-----------------------------------------------------------
	 SCS Same-Spin Scale       =       0.3333333333333333 [-]
	 SCS Opposite-Spin Scale   =       1.2000000000000000 [-]
	 SCS Same-Spin Energy      =      -0.1412700605301285 [Eh]
	 SCS Opposite-Spin Energy  =      -1.6041666205033900 [Eh]
	 SCS Correlation Energy    =      -1.7454366810335185 [Eh]
	 SCS Total Energy          =    -401.5104245828655962 [Eh]
	-----------------------------------------------------------

  Dipole Moment: [D]
     X:    -0.5214      Y:     0.6471      Z:    -0.0000     Total:     0.8310

*** Psi4 exiting successfully. Buy a developer a beer!
