                               Psi4 1.4a3.dev225

  ==> Input File <==

--------------------------------------------------------------------------
#psi4
#
memory 32 gb

molecule  {
0 1
  O        1.7152690     0.3729450     0.0000090
  N        0.1712200    -1.3621090     0.0000060
  C       -0.5423575     0.9140022     0.0000001
  C        0.4232170    -0.0565940     0.0000060
  C       -1.8793030     0.5348530    -0.0000030
  C       -0.1474190     2.4036860    -0.0000010
  C       -2.1785860    -0.8336660    -0.0000030
  C       -1.1267010    -1.7380260     0.0000010
  C        2.7107190    -0.6607300    -0.0000090
  H       -2.6789950     1.2736560    -0.0000080
  H       -1.0269000     3.0530270    -0.0000180
  H        0.4613570     2.6342930     0.8791020
  H        0.4613860     2.6342840    -0.8790860
  H       -3.2063890    -1.1841980    -0.0000050
  H       -1.3049600    -2.8116020     0.0000010
  H        2.6194040    -1.2894460    -0.8881130
  H        2.6194520    -1.2894310     0.8881110
  H        3.6618180    -0.1291010    -0.0000380
units angstrom
no_reorient  #important for SAPT in psi4, default
symmetry c1  #important for SAPT in psi4, default
}

set PROPERTIES_ORIGIN ["COM"]
properties('MP2/aug-cc-pvtz', properties = ['dipole'])
--------------------------------------------------------------------------

    Molecular point group: c1
  Charge       = 0
  Multiplicity = 1
  Basis Set: AUG-CC-PVTZ
    Blend: AUG-CC-PVTZ
  Basis Set: (AUG-CC-PVTZ AUX)
    Blend: AUG-CC-PVTZ-JKFIT

    Orbital Energies [Eh]
    ---------------------

    Doubly Occupied:

       1A    -20.585110     2A    -15.559208     3A    -11.326277
       4A    -11.274387     5A    -11.273467     6A    -11.255963
       7A    -11.238303     8A    -11.231317     9A    -11.225219
      10A     -1.414574    11A     -1.246441    12A     -1.098609
      13A     -1.041512    14A     -0.951978    15A     -0.934353
      16A     -0.843448    17A     -0.824119    18A     -0.720557
      19A     -0.689208    20A     -0.653680    21A     -0.648428
      22A     -0.602570    23A     -0.588946    24A     -0.573977
      25A     -0.560857    26A     -0.550412    27A     -0.529992
      28A     -0.522449    29A     -0.497099    30A     -0.476297
      31A     -0.423519    32A     -0.376187    33A     -0.320029

  @DF-RHF Final Energy:  -399.76359366585297

   => Energetics <=

    Nuclear Repulsion Energy =            435.8872672191939728
    One-Electron Energy =               -1407.1847330048874483
    Two-Electron Energy =                 571.5338721198404528
    Total Energy =                       -399.7635936658530227
  Basis Set: (AUG-CC-PVTZ AUX)
    Blend: AUG-CC-PVTZ-RI
    Molecular point group: c1

    Geometry (in Angstrom), charge = 0, multiplicity = 1:

       Center              X                  Y                   Z               Mass
    ------------   -----------------  -----------------  -----------------  -----------------
         O            1.726914856669     0.400832572833     0.000008457618    15.994914619570
         N            0.182865856669    -1.334221427167     0.000005457618    14.003074004430
         C           -0.530711643331     0.941889772833    -0.000000442382    12.000000000000
         C            0.434862856669    -0.028706427167     0.000005457618    12.000000000000
         C           -1.867657143331     0.562740572833    -0.000003542382    12.000000000000
         C           -0.135773143331     2.431573572833    -0.000001542382    12.000000000000
         C           -2.166940143331    -0.805778427167    -0.000003542382    12.000000000000
         C           -1.115055143331    -1.710138427167     0.000000457618    12.000000000000
         C            2.722364856669    -0.632842427167    -0.000009542382    12.000000000000
         H           -2.667349143331     1.301543572833    -0.000008542382     1.007825032230
         H           -1.015254143331     3.080914572833    -0.000018542382     1.007825032230
         H            0.473002856669     2.662180572833     0.879101457618     1.007825032230
         H            0.473031856669     2.662171572833    -0.879086542382     1.007825032230
         H           -3.194743143331    -1.156310427167    -0.000005542382     1.007825032230
         H           -1.293314143331    -2.783714427167     0.000000457618     1.007825032230
         H            2.631049856669    -1.261558427167    -0.888113542382     1.007825032230
         H            2.631097856669    -1.261543427167     0.888110457618     1.007825032230
         H            3.673463856669    -0.101213427167    -0.000038542382     1.007825032230

  Basis Set: AUG-CC-PVTZ
    Blend: AUG-CC-PVTZ
  Basis Set: (AUG-CC-PVTZ AUX)
    Blend: AUG-CC-PVTZ-JKFIT
	 Reference Energy          =    -399.7635936658529658 [Eh]
	 Singles Energy            =      -0.0000000000000000 [Eh]
	 Same-Spin Energy          =      -0.4236638872741015 [Eh]
	 Opposite-Spin Energy      =      -1.3364232264495590 [Eh]
	 Correlation Energy        =      -1.7600871137236607 [Eh]
	 Total Energy              =    -401.5236807795766367 [Eh]

	 ================> DF-SCS-MP2 Energies <==================
	-----------------------------------------------------------
	 SCS Same-Spin Scale       =       0.3333333333333333 [-]
	 SCS Opposite-Spin Scale   =       1.2000000000000000 [-]
	 SCS Same-Spin Energy      =      -0.1412212957580338 [Eh]
	 SCS Opposite-Spin Energy  =      -1.6037078717394708 [Eh]
	 SCS Correlation Energy    =      -1.7449291674975047 [Eh]
	 SCS Total Energy          =    -401.5085228333504688 [Eh]
	-----------------------------------------------------------

  Dipole Moment: [D]
     X:    -0.6227      Y:     0.5874      Z:    -0.0000     Total:     0.8560

*** Psi4 exiting successfully. Buy a developer a beer!
