                               Psi4 1.4a3.dev225

  ==> Input File <==

--------------------------------------------------------------------------
#psi4
#
memory 32 gb

molecule  {
0 1
  O        1.6973805     0.3554146     0.0000096
  N        0.1712200    -1.3621090     0.0000060
  C       -0.5564040     0.9604300     0.0000000
  C        0.4232170    -0.0565940     0.0000060
  C       -1.8793030     0.5348530    -0.0000030
  C       -0.1474190     2.4036860    -0.0000010
  C       -2.1785860    -0.8336660    -0.0000030
  C       -1.1267010    -1.7380260     0.0000010
  C        2.7107190    -0.6607300    -0.0000090
  H       -2.6789950     1.2736560    -0.0000080
  H       -1.0269000     3.0530270    -0.0000180
  H        0.4613570     2.6342930     0.8791020
  H        0.4613860     2.6342840    -0.8790860
  H       -3.2063890    -1.1841980    -0.0000050
  H       -1.3049600    -2.8116020     0.0000010
  H        2.6194040    -1.2894460    -0.8881130
  H        2.6194520    -1.2894310     0.8881110
  H        3.6618180    -0.1291010    -0.0000380
units angstrom
no_reorient  #important for SAPT in psi4, default
symmetry c1  #important for SAPT in psi4, default
}

set PROPERTIES_ORIGIN ["COM"]
properties('MP2/aug-cc-pvtz', properties = ['dipole'])
--------------------------------------------------------------------------

    Molecular point group: c1
  Charge       = 0
  Multiplicity = 1
  Basis Set: AUG-CC-PVTZ
    Blend: AUG-CC-PVTZ
  Basis Set: (AUG-CC-PVTZ AUX)
    Blend: AUG-CC-PVTZ-JKFIT

    Orbital Energies [Eh]
    ---------------------

    Doubly Occupied:

       1A    -20.587301     2A    -15.556315     3A    -11.330758
       4A    -11.276256     5A    -11.272677     6A    -11.253452
       7A    -11.240239     8A    -11.228451     9A    -11.224077
      10A     -1.424525    11A     -1.242670    12A     -1.098806
      13A     -1.039676    14A     -0.959065    15A     -0.935422
      16A     -0.835651    17A     -0.823866    18A     -0.722158
      19A     -0.689674    20A     -0.657633    21A     -0.648473
      22A     -0.604380    23A     -0.590284    24A     -0.576534
      25A     -0.560164    26A     -0.546410    27A     -0.529794
      28A     -0.527850    29A     -0.502015    30A     -0.478005
      31A     -0.421383    32A     -0.375602    33A     -0.313000

  @DF-RHF Final Energy:  -399.76666836405411

   => Energetics <=

    Nuclear Repulsion Energy =            435.9473310109903537
    One-Electron Energy =               -1407.2828634722877723
    Two-Electron Energy =                 571.5688640972432495
    Total Energy =                       -399.7666683640541123
  Basis Set: (AUG-CC-PVTZ AUX)
    Blend: AUG-CC-PVTZ-RI
    Molecular point group: c1

    Geometry (in Angstrom), charge = 0, multiplicity = 1:

       Center              X                  Y                   Z               Mass
    ------------   -----------------  -----------------  -----------------  -----------------
         O            1.712720911719     0.381053534535     0.000008989388    15.994914619570
         N            0.186560411719    -1.336470065465     0.000005389388    14.003074004430
         C           -0.541063588281     0.986068934535    -0.000000610612    12.000000000000
         C            0.438557411719    -0.030955065465     0.000005389388    12.000000000000
         C           -1.863962588281     0.560491934535    -0.000003610612    12.000000000000
         C           -0.132078588281     2.429324934535    -0.000001610612    12.000000000000
         C           -2.163245588281    -0.808027065465    -0.000003610612    12.000000000000
         C           -1.111360588281    -1.712387065465     0.000000389388    12.000000000000
         C            2.726059411719    -0.635091065465    -0.000009610612    12.000000000000
         H           -2.663654588281     1.299294934535    -0.000008610612     1.007825032230
         H           -1.011559588281     3.078665934535    -0.000018610612     1.007825032230
         H            0.476697411719     2.659931934535     0.879101389388     1.007825032230
         H            0.476726411719     2.659922934535    -0.879086610612     1.007825032230
         H           -3.191048588281    -1.158559065465    -0.000005610612     1.007825032230
         H           -1.289619588281    -2.785963065465     0.000000389388     1.007825032230
         H            2.634744411719    -1.263807065465    -0.888113610612     1.007825032230
         H            2.634792411719    -1.263792065465     0.888110389388     1.007825032230
         H            3.677158411719    -0.103462065465    -0.000038610612     1.007825032230

  Basis Set: AUG-CC-PVTZ
    Blend: AUG-CC-PVTZ
  Basis Set: (AUG-CC-PVTZ AUX)
    Blend: AUG-CC-PVTZ-JKFIT
	 Reference Energy          =    -399.7666683640541123 [Eh]
	 Singles Energy            =      -0.0000000000000000 [Eh]
	 Same-Spin Energy          =      -0.4235194603396714 [Eh]
	 Opposite-Spin Energy      =      -1.3358703994230210 [Eh]
	 Correlation Energy        =      -1.7593898597626922 [Eh]
	 Total Energy              =    -401.5260582238167899 [Eh]

	 ================> DF-SCS-MP2 Energies <==================
	-----------------------------------------------------------
	 SCS Same-Spin Scale       =       0.3333333333333333 [-]
	 SCS Opposite-Spin Scale   =       1.2000000000000000 [-]
	 SCS Same-Spin Energy      =      -0.1411731534465571 [Eh]
	 SCS Opposite-Spin Energy  =      -1.6030444793076251 [Eh]
	 SCS Correlation Energy    =      -1.7442176327541821 [Eh]
	 SCS Total Energy          =    -401.5108859968082697 [Eh]
	-----------------------------------------------------------

  Dipole Moment: [D]
     X:    -0.3599      Y:     0.6891      Z:    -0.0000     Total:     0.7774

*** Psi4 exiting successfully. Buy a developer a beer!
