                               Psi4 1.4a3.dev225

  ==> Input File <==

--------------------------------------------------------------------------
#psi4
#
memory 32 gb

molecule  {
0 1
  O        1.7152690     0.3729450     0.0000090
  N        0.1712200    -1.3621090     0.0000060
  C       -0.5564040     0.9604300     0.0000000
  C        0.4053183    -0.0735358     0.0000060
  C       -1.8793030     0.5348530    -0.0000030
  C       -0.1474190     2.4036860    -0.0000010
  C       -2.1785860    -0.8336660    -0.0000030
  C       -1.1267010    -1.7380260     0.0000010
  C        2.7107190    -0.6607300    -0.0000090
  H       -2.6789950     1.2736560    -0.0000080
  H       -1.0269000     3.0530270    -0.0000180
  H        0.4613570     2.6342930     0.8791020
  H        0.4613860     2.6342840    -0.8790860
  H       -3.2063890    -1.1841980    -0.0000050
  H       -1.3049600    -2.8116020     0.0000010
  H        2.6194040    -1.2894460    -0.8881130
  H        2.6194520    -1.2894310     0.8881110
  H        3.6618180    -0.1291010    -0.0000380
units angstrom
no_reorient  #important for SAPT in psi4, default
symmetry c1  #important for SAPT in psi4, default
}

set PROPERTIES_ORIGIN ["COM"]
properties('MP2/aug-cc-pvtz', properties = ['dipole'])
--------------------------------------------------------------------------

    Molecular point group: c1
  Charge       = 0
  Multiplicity = 1
  Basis Set: AUG-CC-PVTZ
    Blend: AUG-CC-PVTZ
  Basis Set: (AUG-CC-PVTZ AUX)
    Blend: AUG-CC-PVTZ-JKFIT

    Orbital Energies [Eh]
    ---------------------

    Doubly Occupied:

       1A    -20.582366     2A    -15.559860     3A    -11.330823
       4A    -11.274966     5A    -11.271185     6A    -11.254901
       7A    -11.243543     8A    -11.232080     9A    -11.225299
      10A     -1.405256    11A     -1.251446    12A     -1.101912
      13A     -1.040931    14A     -0.953165    15A     -0.934725
      16A     -0.837601    17A     -0.826149    18A     -0.717454
      19A     -0.688004    20A     -0.649429    21A     -0.646500
      22A     -0.604194    23A     -0.588888    24A     -0.577085
      25A     -0.559705    26A     -0.549322    27A     -0.531448
      28A     -0.527259    29A     -0.498560    30A     -0.473076
      31A     -0.426602    32A     -0.379431    33A     -0.317532

  @DF-RHF Final Energy:  -399.76499355318560

   => Energetics <=

    Nuclear Repulsion Energy =            435.3695388390328844
    One-Electron Energy =               -1406.1476604499275709
    Two-Electron Energy =                 571.0131280577090820
    Total Energy =                       -399.7649935531856045
  Basis Set: (AUG-CC-PVTZ AUX)
    Blend: AUG-CC-PVTZ-RI
    Molecular point group: c1

    Geometry (in Angstrom), charge = 0, multiplicity = 1:

       Center              X                  Y                   Z               Mass
    ------------   -----------------  -----------------  -----------------  -----------------
         O            1.730029729021     0.397957489058     0.000008467368    15.994914619570
         N            0.185980729021    -1.337096510942     0.000005467368    14.003074004430
         C           -0.541643270979     0.985442489058    -0.000000532632    12.000000000000
         C            0.420079029021    -0.048523310942     0.000005467368    12.000000000000
         C           -1.864542270979     0.559865489058    -0.000003532632    12.000000000000
         C           -0.132658270979     2.428698489058    -0.000001532632    12.000000000000
         C           -2.163825270979    -0.808653510942    -0.000003532632    12.000000000000
         C           -1.111940270979    -1.713013510942     0.000000467368    12.000000000000
         C            2.725479729021    -0.635717510942    -0.000009532632    12.000000000000
         H           -2.664234270979     1.298668489058    -0.000008532632     1.007825032230
         H           -1.012139270979     3.078039489058    -0.000018532632     1.007825032230
         H            0.476117729021     2.659305489058     0.879101467368     1.007825032230
         H            0.476146729021     2.659296489058    -0.879086532632     1.007825032230
         H           -3.191628270979    -1.159185510942    -0.000005532632     1.007825032230
         H           -1.290199270979    -2.786589510942     0.000000467368     1.007825032230
         H            2.634164729021    -1.264433510942    -0.888113532632     1.007825032230
         H            2.634212729021    -1.264418510942     0.888110467368     1.007825032230
         H            3.676578729021    -0.104088510942    -0.000038532632     1.007825032230

  Basis Set: AUG-CC-PVTZ
    Blend: AUG-CC-PVTZ
  Basis Set: (AUG-CC-PVTZ AUX)
    Blend: AUG-CC-PVTZ-JKFIT
	 Reference Energy          =    -399.7649935531856045 [Eh]
	 Singles Energy            =      -0.0000000000000000 [Eh]
	 Same-Spin Energy          =      -0.4236675163438479 [Eh]
	 Opposite-Spin Energy      =      -1.3367218918569843 [Eh]
	 Correlation Energy        =      -1.7603894082008322 [Eh]
	 Total Energy              =    -401.5253829613864127 [Eh]

	 ================> DF-SCS-MP2 Energies <==================
	-----------------------------------------------------------
	 SCS Same-Spin Scale       =       0.3333333333333333 [-]
	 SCS Opposite-Spin Scale   =       1.2000000000000000 [-]
	 SCS Same-Spin Energy      =      -0.1412225054479493 [Eh]
	 SCS Opposite-Spin Energy  =      -1.6040662702283812 [Eh]
	 SCS Correlation Energy    =      -1.7452887756763305 [Eh]
	 SCS Total Energy          =    -401.5102823288619334 [Eh]
	-----------------------------------------------------------

  Dipole Moment: [D]
     X:    -0.7057      Y:     0.6276      Z:    -0.0000     Total:     0.9444

*** Psi4 exiting successfully. Buy a developer a beer!
