                               Psi4 1.4a3.dev225

  ==> Input File <==

--------------------------------------------------------------------------
#psi4
#
memory 32 gb

molecule  {
0 1
  O        1.7152690     0.3729450     0.0000090
  N        0.1712200    -1.3621090     0.0000060
  C       -0.5564040     0.9604300     0.0000000
  C        0.5181105    -0.0250469     0.0000062
  C       -1.8793030     0.5348530    -0.0000030
  C       -0.1474190     2.4036860    -0.0000010
  C       -2.1785860    -0.8336660    -0.0000030
  C       -1.1267010    -1.7380260     0.0000010
  C        2.7107190    -0.6607300    -0.0000090
  H       -2.6789950     1.2736560    -0.0000080
  H       -1.0269000     3.0530270    -0.0000180
  H        0.4613570     2.6342930     0.8791020
  H        0.4613860     2.6342840    -0.8790860
  H       -3.2063890    -1.1841980    -0.0000050
  H       -1.3049600    -2.8116020     0.0000010
  H        2.6194040    -1.2894460    -0.8881130
  H        2.6194520    -1.2894310     0.8881110
  H        3.6618180    -0.1291010    -0.0000380
units angstrom
no_reorient  #important for SAPT in psi4, default
symmetry c1  #important for SAPT in psi4, default
}

set PROPERTIES_ORIGIN ["COM"]
properties('MP2/aug-cc-pvtz', properties = ['dipole'])
--------------------------------------------------------------------------

    Molecular point group: c1
  Charge       = 0
  Multiplicity = 1
  Basis Set: AUG-CC-PVTZ
    Blend: AUG-CC-PVTZ
  Basis Set: (AUG-CC-PVTZ AUX)
    Blend: AUG-CC-PVTZ-JKFIT

    Orbital Energies [Eh]
    ---------------------

    Doubly Occupied:

       1A    -20.610107     2A    -15.551394     3A    -11.340699
       4A    -11.287942     5A    -11.268108     6A    -11.248630
       7A    -11.238722     8A    -11.221395     9A    -11.220522
      10A     -1.473167    11A     -1.222164    12A     -1.088278
      13A     -1.036540    14A     -0.974827    15A     -0.931936
      16A     -0.825691    17A     -0.820122    18A     -0.737498
      19A     -0.695463    20A     -0.680076    21A     -0.652601
      22A     -0.603450    23A     -0.588681    24A     -0.574550
      25A     -0.557996    26A     -0.543331    27A     -0.536274
      28A     -0.530718    29A     -0.506918    30A     -0.486528
      31A     -0.401861    32A     -0.368323    33A     -0.300894

  @DF-RHF Final Energy:  -399.75220698276104

   => Energetics <=

    Nuclear Repulsion Energy =            435.2689649698966718
    One-Electron Energy =               -1405.7915292910702192
    Two-Electron Energy =                 570.7703573384126230
    Total Energy =                       -399.7522069827609812
  Basis Set: (AUG-CC-PVTZ AUX)
    Blend: AUG-CC-PVTZ-RI
    Molecular point group: c1

    Geometry (in Angstrom), charge = 0, multiplicity = 1:

       Center              X                  Y                   Z               Mass
    ------------   -----------------  -----------------  -----------------  -----------------
         O            1.719031729153     0.393229494429     0.000008447867    15.994914619570
         N            0.174982729153    -1.341824505571     0.000005447867    14.003074004430
         C           -0.552641270847     0.980714494429    -0.000000552133    12.000000000000
         C            0.521873229153    -0.004762405571     0.000005647867    12.000000000000
         C           -1.875540270847     0.555137494429    -0.000003552133    12.000000000000
         C           -0.143656270847     2.423970494429    -0.000001552133    12.000000000000
         C           -2.174823270847    -0.813381505571    -0.000003552133    12.000000000000
         C           -1.122938270847    -1.717741505571     0.000000447867    12.000000000000
         C            2.714481729153    -0.640445505571    -0.000009552133    12.000000000000
         H           -2.675232270847     1.293940494429    -0.000008552133     1.007825032230
         H           -1.023137270847     3.073311494429    -0.000018552133     1.007825032230
         H            0.465119729153     2.654577494429     0.879101447867     1.007825032230
         H            0.465148729153     2.654568494429    -0.879086552133     1.007825032230
         H           -3.202626270847    -1.163913505571    -0.000005552133     1.007825032230
         H           -1.301197270847    -2.791317505571     0.000000447867     1.007825032230
         H            2.623166729153    -1.269161505571    -0.888113552133     1.007825032230
         H            2.623214729153    -1.269146505571     0.888110447867     1.007825032230
         H            3.665580729153    -0.108816505571    -0.000038552133     1.007825032230

  Basis Set: AUG-CC-PVTZ
    Blend: AUG-CC-PVTZ
  Basis Set: (AUG-CC-PVTZ AUX)
    Blend: AUG-CC-PVTZ-JKFIT
	 Reference Energy          =    -399.7522069827610380 [Eh]
	 Singles Energy            =      -0.0000000000000000 [Eh]
	 Same-Spin Energy          =      -0.4240769913149418 [Eh]
	 Opposite-Spin Energy      =      -1.3366095805976714 [Eh]
	 Correlation Energy        =      -1.7606865719126132 [Eh]
	 Total Energy              =    -401.5128935546736670 [Eh]

	 ================> DF-SCS-MP2 Energies <==================
	-----------------------------------------------------------
	 SCS Same-Spin Scale       =       0.3333333333333333 [-]
	 SCS Opposite-Spin Scale   =       1.2000000000000000 [-]
	 SCS Same-Spin Energy      =      -0.1413589971049806 [Eh]
	 SCS Opposite-Spin Energy  =      -1.6039314967172056 [Eh]
	 SCS Correlation Energy    =      -1.7452904938221863 [Eh]
	 SCS Total Energy          =    -401.4974974765832485 [Eh]
	-----------------------------------------------------------

  Dipole Moment: [D]
     X:     0.3859      Y:     0.7627      Z:    -0.0000     Total:     0.8547

*** Psi4 exiting successfully. Buy a developer a beer!
