                               Psi4 1.4a3.dev225

  ==> Input File <==

--------------------------------------------------------------------------
#psi4
#
memory 32 gb

molecule  {
0 1
  O        1.7152690     0.3729450     0.0000090
  N        0.2034039    -1.4998380     0.0000062
  C       -0.5564040     0.9604300     0.0000000
  C        0.4232170    -0.0565940     0.0000060
  C       -1.8793030     0.5348530    -0.0000030
  C       -0.1474190     2.4036860    -0.0000010
  C       -2.1785860    -0.8336660    -0.0000030
  C       -1.1267010    -1.7380260     0.0000010
  C        2.7107190    -0.6607300    -0.0000090
  H       -2.6789950     1.2736560    -0.0000080
  H       -1.0269000     3.0530270    -0.0000180
  H        0.4613570     2.6342930     0.8791020
  H        0.4613860     2.6342840    -0.8790860
  H       -3.2063890    -1.1841980    -0.0000050
  H       -1.3049600    -2.8116020     0.0000010
  H        2.6194040    -1.2894460    -0.8881130
  H        2.6194520    -1.2894310     0.8881110
  H        3.6618180    -0.1291010    -0.0000380
units angstrom
no_reorient  #important for SAPT in psi4, default
symmetry c1  #important for SAPT in psi4, default
}

set PROPERTIES_ORIGIN ["COM"]
properties('MP2/aug-cc-pvtz', properties = ['dipole'])
--------------------------------------------------------------------------

    Molecular point group: c1
  Charge       = 0
  Multiplicity = 1
  Basis Set: AUG-CC-PVTZ
    Blend: AUG-CC-PVTZ
  Basis Set: (AUG-CC-PVTZ AUX)
    Blend: AUG-CC-PVTZ-JKFIT

    Orbital Energies [Eh]
    ---------------------

    Doubly Occupied:

       1A    -20.593365     2A    -15.576456     3A    -11.346896
       4A    -11.276072     5A    -11.274390     6A    -11.260314
       7A    -11.242423     8A    -11.229018     9A    -11.226301
      10A     -1.416547    11A     -1.221754    12A     -1.103037
      13A     -1.034049    14A     -0.958822    15A     -0.929900
      16A     -0.839348    17A     -0.814392    18A     -0.716091
      19A     -0.685059    20A     -0.653502    21A     -0.646287
      22A     -0.598666    23A     -0.587751    24A     -0.577048
      25A     -0.562357    26A     -0.547371    27A     -0.528164
      28A     -0.521500    29A     -0.501633    30A     -0.479487
      31A     -0.432190    32A     -0.376440    33A     -0.311147

  @DF-RHF Final Energy:  -399.74273322992758

   => Energetics <=

    Nuclear Repulsion Energy =            432.0341596740836394
    One-Electron Energy =               -1399.4182358830823887
    Two-Electron Energy =                 567.6413429790711689
    Total Energy =                       -399.7427332299275804
  Basis Set: (AUG-CC-PVTZ AUX)
    Blend: AUG-CC-PVTZ-RI
    Molecular point group: c1

    Geometry (in Angstrom), charge = 0, multiplicity = 1:

       Center              X                  Y                   Z               Mass
    ------------   -----------------  -----------------  -----------------  -----------------
         O            1.724622509473     0.411976746516     0.000008444612    15.994914619570
         N            0.212757409473    -1.460806253484     0.000005644612    14.003074004430
         C           -0.547050490527     0.999461746516    -0.000000555388    12.000000000000
         C            0.432570509473    -0.017562253484     0.000005444612    12.000000000000
         C           -1.869949490527     0.573884746516    -0.000003555388    12.000000000000
         C           -0.138065490527     2.442717746516    -0.000001555388    12.000000000000
         C           -2.169232490527    -0.794634253484    -0.000003555388    12.000000000000
         C           -1.117347490527    -1.698994253484     0.000000444612    12.000000000000
         C            2.720072509473    -0.621698253484    -0.000009555388    12.000000000000
         H           -2.669641490527     1.312687746516    -0.000008555388     1.007825032230
         H           -1.017546490527     3.092058746516    -0.000018555388     1.007825032230
         H            0.470710509473     2.673324746516     0.879101444612     1.007825032230
         H            0.470739509473     2.673315746516    -0.879086555388     1.007825032230
         H           -3.197035490527    -1.145166253484    -0.000005555388     1.007825032230
         H           -1.295606490527    -2.772570253484     0.000000444612     1.007825032230
         H            2.628757509473    -1.250414253484    -0.888113555388     1.007825032230
         H            2.628805509473    -1.250399253484     0.888110444612     1.007825032230
         H            3.671171509473    -0.090069253484    -0.000038555388     1.007825032230

  Basis Set: AUG-CC-PVTZ
    Blend: AUG-CC-PVTZ
  Basis Set: (AUG-CC-PVTZ AUX)
    Blend: AUG-CC-PVTZ-JKFIT
	 Reference Energy          =    -399.7427332299275804 [Eh]
	 Singles Energy            =      -0.0000000000000000 [Eh]
	 Same-Spin Energy          =      -0.4252773784088958 [Eh]
	 Opposite-Spin Energy      =      -1.3414843012025428 [Eh]
	 Correlation Energy        =      -1.7667616796114387 [Eh]
	 Total Energy              =    -401.5094949095390007 [Eh]

	 ================> DF-SCS-MP2 Energies <==================
	-----------------------------------------------------------
	 SCS Same-Spin Scale       =       0.3333333333333333 [-]
	 SCS Opposite-Spin Scale   =       1.2000000000000000 [-]
	 SCS Same-Spin Energy      =      -0.1417591261362986 [Eh]
	 SCS Opposite-Spin Energy  =      -1.6097811614430513 [Eh]
	 SCS Correlation Energy    =      -1.7515402875793500 [Eh]
	 SCS Total Energy          =    -401.4942735175069402 [Eh]
	-----------------------------------------------------------

  Dipole Moment: [D]
     X:    -0.4341      Y:     0.9288      Z:    -0.0000     Total:     1.0252

*** Psi4 exiting successfully. Buy a developer a beer!
