                               Psi4 1.4a3.dev225

  ==> Input File <==

--------------------------------------------------------------------------
#psi4
#
memory 32 gb

molecule  {
0 1
  O        1.7152690     0.3729450     0.0000090
  N        0.1712200    -1.3621090     0.0000060
  C       -0.5564040     0.9604300     0.0000000
  C        0.2334299    -0.1196882     0.0000056
  C       -1.8793030     0.5348530    -0.0000030
  C       -0.1474190     2.4036860    -0.0000010
  C       -2.1785860    -0.8336660    -0.0000030
  C       -1.1267010    -1.7380260     0.0000010
  C        2.7107190    -0.6607300    -0.0000090
  H       -2.6789950     1.2736560    -0.0000080
  H       -1.0269000     3.0530270    -0.0000180
  H        0.4613570     2.6342930     0.8791020
  H        0.4613860     2.6342840    -0.8790860
  H       -3.2063890    -1.1841980    -0.0000050
  H       -1.3049600    -2.8116020     0.0000010
  H        2.6194040    -1.2894460    -0.8881130
  H        2.6194520    -1.2894310     0.8881110
  H        3.6618180    -0.1291010    -0.0000380
units angstrom
no_reorient  #important for SAPT in psi4, default
symmetry c1  #important for SAPT in psi4, default
}

set PROPERTIES_ORIGIN ["COM"]
properties('MP2/aug-cc-pvtz', properties = ['dipole'])
--------------------------------------------------------------------------

    Molecular point group: c1
  Charge       = 0
  Multiplicity = 1
  Basis Set: AUG-CC-PVTZ
    Blend: AUG-CC-PVTZ
  Basis Set: (AUG-CC-PVTZ AUX)
    Blend: AUG-CC-PVTZ-JKFIT

    Orbital Energies [Eh]
    ---------------------

    Doubly Occupied:

       1A    -20.541810     2A    -15.572757     3A    -11.326014
       4A    -11.286814     5A    -11.266358     6A    -11.249899
       7A    -11.249199     8A    -11.243700     9A    -11.232333
      10A     -1.349225    11A     -1.276423    12A     -1.127330
      13A     -1.049564    14A     -0.956786    15A     -0.910317
      16A     -0.863096    17A     -0.829840    18A     -0.710698
      19A     -0.690838    20A     -0.630096    21A     -0.624776
      22A     -0.602348    23A     -0.590809    24A     -0.579543
      25A     -0.560662    26A     -0.547060    27A     -0.545699
      28A     -0.526587    29A     -0.471001    30A     -0.440082
      31A     -0.439080    32A     -0.393661    33A     -0.338331

  @DF-RHF Final Energy:  -399.72092652120239

   => Energetics <=

    Nuclear Repulsion Energy =            435.9693600307745669
    One-Electron Energy =               -1407.3351021253108684
    Two-Electron Energy =                 571.6448155733338581
    Total Energy =                       -399.7209265212023865
  Basis Set: (AUG-CC-PVTZ AUX)
    Blend: AUG-CC-PVTZ-RI
    Molecular point group: c1

    Geometry (in Angstrom), charge = 0, multiplicity = 1:

       Center              X                  Y                   Z               Mass
    ------------   -----------------  -----------------  -----------------  -----------------
         O            1.746790006776     0.402457659186     0.000008506371    15.994914619570
         N            0.202741006776    -1.332596340814     0.000005506371    14.003074004430
         C           -0.524882993224     0.989942659186    -0.000000493629    12.000000000000
         C            0.264950906776    -0.090175540814     0.000005106371    12.000000000000
         C           -1.847781993224     0.564365659186    -0.000003493629    12.000000000000
         C           -0.115897993224     2.433198659186    -0.000001493629    12.000000000000
         C           -2.147064993224    -0.804153340814    -0.000003493629    12.000000000000
         C           -1.095179993224    -1.708513340814     0.000000506371    12.000000000000
         C            2.742240006776    -0.631217340814    -0.000009493629    12.000000000000
         H           -2.647473993224     1.303168659186    -0.000008493629     1.007825032230
         H           -0.995378993224     3.082539659186    -0.000018493629     1.007825032230
         H            0.492878006776     2.663805659186     0.879101506371     1.007825032230
         H            0.492907006776     2.663796659186    -0.879086493629     1.007825032230
         H           -3.174867993224    -1.154685340814    -0.000005493629     1.007825032230
         H           -1.273438993224    -2.782089340814     0.000000506371     1.007825032230
         H            2.650925006776    -1.259933340814    -0.888113493629     1.007825032230
         H            2.650973006776    -1.259918340814     0.888110506371     1.007825032230
         H            3.693339006776    -0.099588340814    -0.000038493629     1.007825032230

  Basis Set: AUG-CC-PVTZ
    Blend: AUG-CC-PVTZ
  Basis Set: (AUG-CC-PVTZ AUX)
    Blend: AUG-CC-PVTZ-JKFIT
	 Reference Energy          =    -399.7209265212023865 [Eh]
	 Singles Energy            =      -0.0000000000000000 [Eh]
	 Same-Spin Energy          =      -0.4253046093684366 [Eh]
	 Opposite-Spin Energy      =      -1.3407354404583531 [Eh]
	 Correlation Energy        =      -1.7660400498267896 [Eh]
	 Total Energy              =    -401.4869665710291997 [Eh]

	 ================> DF-SCS-MP2 Energies <==================
	-----------------------------------------------------------
	 SCS Same-Spin Scale       =       0.3333333333333333 [-]
	 SCS Opposite-Spin Scale   =       1.2000000000000000 [-]
	 SCS Same-Spin Energy      =      -0.1417682031228122 [Eh]
	 SCS Opposite-Spin Energy  =      -1.6088825285500237 [Eh]
	 SCS Correlation Energy    =      -1.7506507316728359 [Eh]
	 SCS Total Energy          =    -401.4715772528752495 [Eh]
	-----------------------------------------------------------

  Dipole Moment: [D]
     X:    -2.1218      Y:     0.4769      Z:    -0.0000     Total:     2.1748

*** Psi4 exiting successfully. Buy a developer a beer!
