                               Psi4 1.4a3.dev225

  ==> Input File <==

--------------------------------------------------------------------------
#psi4
#
memory 32 gb

molecule  {
0 1
  O        1.7152690     0.3729450     0.0000090
  N        0.1942810    -1.4535631     0.0000062
  C       -0.5564040     0.9604300     0.0000000
  C        0.4232170    -0.0565940     0.0000060
  C       -1.8793030     0.5348530    -0.0000030
  C       -0.1474190     2.4036860    -0.0000010
  C       -2.1785860    -0.8336660    -0.0000030
  C       -1.1267010    -1.7380260     0.0000010
  C        2.7107190    -0.6607300    -0.0000090
  H       -2.6789950     1.2736560    -0.0000080
  H       -1.0269000     3.0530270    -0.0000180
  H        0.4613570     2.6342930     0.8791020
  H        0.4613860     2.6342840    -0.8790860
  H       -3.2063890    -1.1841980    -0.0000050
  H       -1.3049600    -2.8116020     0.0000010
  H        2.6194040    -1.2894460    -0.8881130
  H        2.6194520    -1.2894310     0.8881110
  H        3.6618180    -0.1291010    -0.0000380
units angstrom
no_reorient  #important for SAPT in psi4, default
symmetry c1  #important for SAPT in psi4, default
}

set PROPERTIES_ORIGIN ["COM"]
properties('MP2/aug-cc-pvtz', properties = ['dipole'])
--------------------------------------------------------------------------

    Molecular point group: c1
  Charge       = 0
  Multiplicity = 1
  Basis Set: AUG-CC-PVTZ
    Blend: AUG-CC-PVTZ
  Basis Set: (AUG-CC-PVTZ AUX)
    Blend: AUG-CC-PVTZ-JKFIT

    Orbital Energies [Eh]
    ---------------------

    Doubly Occupied:

       1A    -20.591410     2A    -15.570842     3A    -11.342559
       4A    -11.275412     5A    -11.274071     6A    -11.258388
       7A    -11.242311     8A    -11.229374     9A    -11.225733
      10A     -1.416182    11A     -1.228498    12A     -1.101862
      13A     -1.035831    14A     -0.957810    15A     -0.931657
      16A     -0.837649    17A     -0.818602    18A     -0.717257
      19A     -0.685952    20A     -0.653531    21A     -0.646943
      22A     -0.600123    23A     -0.588712    24A     -0.576891
      25A     -0.561686    26A     -0.547520    27A     -0.528276
      28A     -0.523813    29A     -0.501453    30A     -0.478558
      31A     -0.430394    32A     -0.376120    33A     -0.312657

  @DF-RHF Final Energy:  -399.75321912927768

   => Energetics <=

    Nuclear Repulsion Energy =            433.1062663578956062
    One-Electron Energy =               -1401.5828191456162131
    Two-Electron Energy =                 568.7233336584429253
    Total Energy =                       -399.7532191292776815
  Basis Set: (AUG-CC-PVTZ AUX)
    Blend: AUG-CC-PVTZ-RI
    Molecular point group: c1

    Geometry (in Angstrom), charge = 0, multiplicity = 1:

       Center              X                  Y                   Z               Mass
    ------------   -----------------  -----------------  -----------------  -----------------
         O            1.725660538971     0.406711456840     0.000008444612    15.994914619570
         N            0.204672538971    -1.419796643160     0.000005644612    14.003074004430
         C           -0.546012461029     0.994196456840    -0.000000555388    12.000000000000
         C            0.433608538971    -0.022827543160     0.000005444612    12.000000000000
         C           -1.868911461029     0.568619456840    -0.000003555388    12.000000000000
         C           -0.137027461029     2.437452456840    -0.000001555388    12.000000000000
         C           -2.168194461029    -0.799899543160    -0.000003555388    12.000000000000
         C           -1.116309461029    -1.704259543160     0.000000444612    12.000000000000
         C            2.721110538971    -0.626963543160    -0.000009555388    12.000000000000
         H           -2.668603461029     1.307422456840    -0.000008555388     1.007825032230
         H           -1.016508461029     3.086793456840    -0.000018555388     1.007825032230
         H            0.471748538971     2.668059456840     0.879101444612     1.007825032230
         H            0.471777538971     2.668050456840    -0.879086555388     1.007825032230
         H           -3.195997461029    -1.150431543160    -0.000005555388     1.007825032230
         H           -1.294568461029    -2.777835543160     0.000000444612     1.007825032230
         H            2.629795538971    -1.255679543160    -0.888113555388     1.007825032230
         H            2.629843538971    -1.255664543160     0.888110444612     1.007825032230
         H            3.672209538971    -0.095334543160    -0.000038555388     1.007825032230

  Basis Set: AUG-CC-PVTZ
    Blend: AUG-CC-PVTZ
  Basis Set: (AUG-CC-PVTZ AUX)
    Blend: AUG-CC-PVTZ-JKFIT
	 Reference Energy          =    -399.7532191292776815 [Eh]
	 Singles Energy            =      -0.0000000000000000 [Eh]
	 Same-Spin Energy          =      -0.4247471743919334 [Eh]
	 Opposite-Spin Energy      =      -1.3396668847537878 [Eh]
	 Correlation Energy        =      -1.7644140591457211 [Eh]
	 Total Energy              =    -401.5176331884234173 [Eh]

	 ================> DF-SCS-MP2 Energies <==================
	-----------------------------------------------------------
	 SCS Same-Spin Scale       =       0.3333333333333333 [-]
	 SCS Opposite-Spin Scale   =       1.2000000000000000 [-]
	 SCS Same-Spin Energy      =      -0.1415823914639778 [Eh]
	 SCS Opposite-Spin Energy  =      -1.6076002617045453 [Eh]
	 SCS Correlation Energy    =      -1.7491826531685231 [Eh]
	 SCS Total Energy          =    -401.5024017824462135 [Eh]
	-----------------------------------------------------------

  Dipole Moment: [D]
     X:    -0.4670      Y:     0.8477      Z:    -0.0000     Total:     0.9679

*** Psi4 exiting successfully. Buy a developer a beer!
