                               Psi4 1.4a3.dev225

  ==> Input File <==

--------------------------------------------------------------------------
#psi4
#
memory 32 gb

molecule  {
0 1
  O        1.7152690     0.3729450     0.0000090
  N        0.1712200    -1.3621090     0.0000060
  C       -0.5564040     0.9604300     0.0000000
  C        0.4232170    -0.0565940     0.0000060
  C       -1.8793030     0.5348530    -0.0000030
  C       -0.1474190     2.4036860    -0.0000010
  C       -2.1785860    -0.8336660    -0.0000030
  C       -1.1267010    -1.7380260     0.0000010
  C        2.7107190    -0.6607300    -0.0000090
  H       -2.6789950     1.2736560    -0.0000080
  H       -1.0269000     3.0530270    -0.0000180
  H        0.4756120     2.6396925     0.8676068
  H        0.4613860     2.6342840    -0.8790860
  H       -3.2063890    -1.1841980    -0.0000050
  H       -1.3049600    -2.8116020     0.0000010
  H        2.6194040    -1.2894460    -0.8881130
  H        2.6194520    -1.2894310     0.8881110
  H        3.6618180    -0.1291010    -0.0000380
units angstrom
no_reorient  #important for SAPT in psi4, default
symmetry c1  #important for SAPT in psi4, default
}

set PROPERTIES_ORIGIN ["COM"]
properties('MP2/aug-cc-pvtz', properties = ['dipole'])
--------------------------------------------------------------------------

    Molecular point group: c1
  Charge       = 0
  Multiplicity = 1
  Basis Set: AUG-CC-PVTZ
    Blend: AUG-CC-PVTZ
  Basis Set: (AUG-CC-PVTZ AUX)
    Blend: AUG-CC-PVTZ-JKFIT

    Orbital Energies [Eh]
    ---------------------

    Doubly Occupied:

       1A    -20.586942     2A    -15.558997     3A    -11.332187
       4A    -11.274079     5A    -11.273894     6A    -11.254417
       7A    -11.241996     8A    -11.230386     9A    -11.224343
      10A     -1.415432    11A     -1.244444    12A     -1.099659
      13A     -1.040191    14A     -0.955657    15A     -0.935470
      16A     -0.835761    17A     -0.825116    18A     -0.720013
      19A     -0.688604    20A     -0.653744    21A     -0.648348
      22A     -0.603963    23A     -0.590188    24A     -0.575374
      25A     -0.560153    26A     -0.547913    27A     -0.528885
      28A     -0.528353    29A     -0.501928    30A     -0.476604
      31A     -0.422833    32A     -0.376706    33A     -0.315331

  @DF-RHF Final Energy:  -399.76560392228578

   => Energetics <=

    Nuclear Repulsion Energy =            435.3110696183840673
    One-Electron Energy =               -1406.0175239020950357
    Two-Electron Energy =                 570.9408503614251913
    Total Energy =                       -399.7656039222857771
  Basis Set: (AUG-CC-PVTZ AUX)
    Blend: AUG-CC-PVTZ-RI
    Molecular point group: c1

    Geometry (in Angstrom), charge = 0, multiplicity = 1:

       Center              X                  Y                   Z               Mass
    ------------   -----------------  -----------------  -----------------  -----------------
         O            1.728167748855     0.396261332062     0.000102603223    15.994914619570
         N            0.184118748855    -1.338792667938     0.000099603223    14.003074004430
         C           -0.543505251145     0.983746332062     0.000093603223    12.000000000000
         C            0.436115748855    -0.033277667938     0.000099603223    12.000000000000
         C           -1.866404251145     0.558169332062     0.000090603223    12.000000000000
         C           -0.134520251145     2.427002332062     0.000092603223    12.000000000000
         C           -2.165687251145    -0.810349667938     0.000090603223    12.000000000000
         C           -1.113802251145    -1.714709667938     0.000094603223    12.000000000000
         C            2.723617748855    -0.637413667938     0.000084603223    12.000000000000
         H           -2.666096251145     1.296972332062     0.000085603223     1.007825032230
         H           -1.014001251145     3.076343332062     0.000075603223     1.007825032230
         H            0.488510748855     2.663008832062     0.867700403223     1.007825032230
         H            0.474284748855     2.657600332062    -0.878992396777     1.007825032230
         H           -3.193490251145    -1.160881667938     0.000088603223     1.007825032230
         H           -1.292061251145    -2.788285667938     0.000094603223     1.007825032230
         H            2.632302748855    -1.266129667938    -0.888019396777     1.007825032230
         H            2.632350748855    -1.266114667938     0.888204603223     1.007825032230
         H            3.674716748855    -0.105784667938     0.000055603223     1.007825032230

  Basis Set: AUG-CC-PVTZ
    Blend: AUG-CC-PVTZ
  Basis Set: (AUG-CC-PVTZ AUX)
    Blend: AUG-CC-PVTZ-JKFIT
	 Reference Energy          =    -399.7656039222857771 [Eh]
	 Singles Energy            =      -0.0000000000000000 [Eh]
	 Same-Spin Energy          =      -0.4237705467653216 [Eh]
	 Opposite-Spin Energy      =      -1.3366460795623314 [Eh]
	 Correlation Energy        =      -1.7604166263276531 [Eh]
	 Total Energy              =    -401.5260205486134168 [Eh]

	 ================> DF-SCS-MP2 Energies <==================
	-----------------------------------------------------------
	 SCS Same-Spin Scale       =       0.3333333333333333 [-]
	 SCS Opposite-Spin Scale   =       1.2000000000000000 [-]
	 SCS Same-Spin Energy      =      -0.1412568489217739 [Eh]
	 SCS Opposite-Spin Energy  =      -1.6039752954747977 [Eh]
	 SCS Correlation Energy    =      -1.7452321443965715 [Eh]
	 SCS Total Energy          =    -401.5108360666823728 [Eh]
	-----------------------------------------------------------

  Dipole Moment: [D]
     X:    -0.5213      Y:     0.6526      Z:    -0.0031     Total:     0.8353

*** Psi4 exiting successfully. Buy a developer a beer!
