                               Psi4 1.4a3.dev225

  ==> Input File <==

--------------------------------------------------------------------------
#psi4
#
memory 32 gb

molecule  {
0 1
  O        1.7152690     0.3729450     0.0000090
  N        0.1712200    -1.3621090     0.0000060
  C       -0.5564040     0.9604300     0.0000000
  C        0.4232170    -0.0565940     0.0000060
  C       -1.8793030     0.5348530    -0.0000030
  C       -0.1474190     2.4036860    -0.0000010
  C       -2.1999502    -0.9313572    -0.0000030
  C       -1.1267010    -1.7380260     0.0000010
  C        2.7107190    -0.6607300    -0.0000090
  H       -2.6789950     1.2736560    -0.0000080
  H       -1.0269000     3.0530270    -0.0000180
  H        0.4613570     2.6342930     0.8791020
  H        0.4613860     2.6342840    -0.8790860
  H       -3.2063890    -1.1841980    -0.0000050
  H       -1.3049600    -2.8116020     0.0000010
  H        2.6194040    -1.2894460    -0.8881130
  H        2.6194520    -1.2894310     0.8881110
  H        3.6618180    -0.1291010    -0.0000380
units angstrom
no_reorient  #important for SAPT in psi4, default
symmetry c1  #important for SAPT in psi4, default
}

set PROPERTIES_ORIGIN ["COM"]
properties('MP2/aug-cc-pvtz', properties = ['dipole'])
--------------------------------------------------------------------------

    Molecular point group: c1
  Charge       = 0
  Multiplicity = 1
  Basis Set: AUG-CC-PVTZ
    Blend: AUG-CC-PVTZ
  Basis Set: (AUG-CC-PVTZ AUX)
    Blend: AUG-CC-PVTZ-JKFIT

    Orbital Energies [Eh]
    ---------------------

    Doubly Occupied:

       1A    -20.590093     2A    -15.555683     3A    -11.336663
       4A    -11.275109     5A    -11.265611     6A    -11.263618
       7A    -11.244302     8A    -11.229452     9A    -11.225725
      10A     -1.417930    11A     -1.242412    12A     -1.093981
      13A     -1.040698    14A     -0.956125    15A     -0.937403
      16A     -0.835230    17A     -0.826766    18A     -0.718554
      19A     -0.688723    20A     -0.656672    21A     -0.655192
      22A     -0.607751    23A     -0.584546    24A     -0.577309
      25A     -0.566007    26A     -0.547097    27A     -0.529562
      28A     -0.522182    29A     -0.495810    30A     -0.476611
      31A     -0.423731    32A     -0.367317    33A     -0.324305

  @DF-RHF Final Energy:  -399.75562677936608

   => Energetics <=

    Nuclear Repulsion Energy =            434.3253409069226336
    One-Electron Energy =               -1404.0055934331226126
    Two-Electron Energy =                 569.9246257468338399
    Total Energy =                       -399.7556267793661391
  Basis Set: (AUG-CC-PVTZ AUX)
    Blend: AUG-CC-PVTZ-RI
    Molecular point group: c1

    Geometry (in Angstrom), charge = 0, multiplicity = 1:

       Center              X                  Y                   Z               Mass
    ------------   -----------------  -----------------  -----------------  -----------------
         O            1.730367638633     0.405831099916     0.000008467368    15.994914619570
         N            0.186318638633    -1.329222900084     0.000005467368    14.003074004430
         C           -0.541305361367     0.993316099916    -0.000000532632    12.000000000000
         C            0.438315638633    -0.023707900084     0.000005467368    12.000000000000
         C           -1.864204361367     0.567739099916    -0.000003532632    12.000000000000
         C           -0.132320361367     2.436572099916    -0.000001532632    12.000000000000
         C           -2.184851561367    -0.898471100084    -0.000003532632    12.000000000000
         C           -1.111602361367    -1.705139900084     0.000000467368    12.000000000000
         C            2.725817638633    -0.627843900084    -0.000009532632    12.000000000000
         H           -2.663896361367     1.306542099916    -0.000008532632     1.007825032230
         H           -1.011801361367     3.085913099916    -0.000018532632     1.007825032230
         H            0.476455638633     2.667179099916     0.879101467368     1.007825032230
         H            0.476484638633     2.667170099916    -0.879086532632     1.007825032230
         H           -3.191290361367    -1.151311900084    -0.000005532632     1.007825032230
         H           -1.289861361367    -2.778715900084     0.000000467368     1.007825032230
         H            2.634502638633    -1.256559900084    -0.888113532632     1.007825032230
         H            2.634550638633    -1.256544900084     0.888110467368     1.007825032230
         H            3.676916638633    -0.096214900084    -0.000038532632     1.007825032230

  Basis Set: AUG-CC-PVTZ
    Blend: AUG-CC-PVTZ
  Basis Set: (AUG-CC-PVTZ AUX)
    Blend: AUG-CC-PVTZ-JKFIT
	 Reference Energy          =    -399.7556267793660822 [Eh]
	 Singles Energy            =      -0.0000000000000000 [Eh]
	 Same-Spin Energy          =      -0.4226295275136619 [Eh]
	 Opposite-Spin Energy      =      -1.3364771578981975 [Eh]
	 Correlation Energy        =      -1.7591066854118593 [Eh]
	 Total Energy              =    -401.5147334647779189 [Eh]

	 ================> DF-SCS-MP2 Energies <==================
	-----------------------------------------------------------
	 SCS Same-Spin Scale       =       0.3333333333333333 [-]
	 SCS Opposite-Spin Scale   =       1.2000000000000000 [-]
	 SCS Same-Spin Energy      =      -0.1408765091712206 [Eh]
	 SCS Opposite-Spin Energy  =      -1.6037725894778370 [Eh]
	 SCS Correlation Energy    =      -1.7446490986490575 [Eh]
	 SCS Total Energy          =    -401.5002758780151453 [Eh]
	-----------------------------------------------------------

  Dipole Moment: [D]
     X:    -0.4745      Y:     0.7561      Z:    -0.0000     Total:     0.8927

*** Psi4 exiting successfully. Buy a developer a beer!
