                               Psi4 1.4a3.dev225

  ==> Input File <==

--------------------------------------------------------------------------
#psi4
#
memory 32 gb

molecule  {
0 1
  O        1.7152690     0.3729450     0.0000090
  N        0.1712200    -1.3621090     0.0000060
  C       -0.5564040     0.9604300     0.0000000
  C        0.4232170    -0.0565940     0.0000060
  C       -1.8793030     0.5348530    -0.0000030
  C       -0.0928908     2.5961092    -0.0000011
  C       -2.1785860    -0.8336660    -0.0000030
  C       -1.1267010    -1.7380260     0.0000010
  C        2.7107190    -0.6607300    -0.0000090
  H       -2.6789950     1.2736560    -0.0000080
  H       -1.0269000     3.0530270    -0.0000180
  H        0.4613570     2.6342930     0.8791020
  H        0.4613860     2.6342840    -0.8790860
  H       -3.2063890    -1.1841980    -0.0000050
  H       -1.3049600    -2.8116020     0.0000010
  H        2.6194040    -1.2894460    -0.8881130
  H        2.6194520    -1.2894310     0.8881110
  H        3.6618180    -0.1291010    -0.0000380
units angstrom
no_reorient  #important for SAPT in psi4, default
symmetry c1  #important for SAPT in psi4, default
}

set PROPERTIES_ORIGIN ["COM"]
properties('MP2/aug-cc-pvtz', properties = ['dipole'])
--------------------------------------------------------------------------

    Molecular point group: c1
  Charge       = 0
  Multiplicity = 1
  Basis Set: AUG-CC-PVTZ
    Blend: AUG-CC-PVTZ
  Basis Set: (AUG-CC-PVTZ AUX)
    Blend: AUG-CC-PVTZ-JKFIT

    Orbital Energies [Eh]
    ---------------------

    Doubly Occupied:

       1A    -20.585498     2A    -15.557927     3A    -11.331229
       4A    -11.273251     5A    -11.272918     6A    -11.253853
       7A    -11.246431     8A    -11.229490     9A    -11.226641
      10A     -1.413846    11A     -1.242967    12A     -1.087493
      13A     -1.032718    14A     -0.955823    15A     -0.937316
      16A     -0.836997    17A     -0.824203    18A     -0.718543
      19A     -0.684759    20A     -0.652590    21A     -0.643563
      22A     -0.598424    23A     -0.596551    24A     -0.592085
      25A     -0.567890    26A     -0.553675    27A     -0.537308
      28A     -0.512259    29A     -0.480561    30A     -0.475596
      31A     -0.414500    32A     -0.377756    33A     -0.316159

  @DF-RHF Final Energy:  -399.73855953991853

   => Energetics <=

    Nuclear Repulsion Energy =            431.9605248492435408
    One-Electron Energy =               -1399.3365252077094283
    Two-Electron Energy =                 567.6374408185473612
    Total Energy =                       -399.7385595399185831
  Basis Set: (AUG-CC-PVTZ AUX)
    Blend: AUG-CC-PVTZ-RI
    Molecular point group: c1

    Geometry (in Angstrom), charge = 0, multiplicity = 1:

       Center              X                  Y                   Z               Mass
    ------------   -----------------  -----------------  -----------------  -----------------
         O            1.722967618019     0.377542990162     0.000008477119    15.994914619570
         N            0.178918618019    -1.357511009838     0.000005477119    14.003074004430
         C           -0.548705381981     0.965027990162    -0.000000522881    12.000000000000
         C            0.430915618019    -0.051996009838     0.000005477119    12.000000000000
         C           -1.871604381981     0.539450990162    -0.000003522881    12.000000000000
         C           -0.085192181981     2.600707190162    -0.000001622881    12.000000000000
         C           -2.170887381981    -0.829068009838    -0.000003522881    12.000000000000
         C           -1.119002381981    -1.733428009838     0.000000477119    12.000000000000
         C            2.718417618019    -0.656132009838    -0.000009522881    12.000000000000
         H           -2.671296381981     1.278253990162    -0.000008522881     1.007825032230
         H           -1.019201381981     3.057624990162    -0.000018522881     1.007825032230
         H            0.469055618019     2.638890990162     0.879101477119     1.007825032230
         H            0.469084618019     2.638881990162    -0.879086522881     1.007825032230
         H           -3.198690381981    -1.179600009838    -0.000005522881     1.007825032230
         H           -1.297261381981    -2.807004009838     0.000000477119     1.007825032230
         H            2.627102618019    -1.284848009838    -0.888113522881     1.007825032230
         H            2.627150618019    -1.284833009838     0.888110477119     1.007825032230
         H            3.669516618019    -0.124503009838    -0.000038522881     1.007825032230

  Basis Set: AUG-CC-PVTZ
    Blend: AUG-CC-PVTZ
  Basis Set: (AUG-CC-PVTZ AUX)
    Blend: AUG-CC-PVTZ-JKFIT
	 Reference Energy          =    -399.7385595399185263 [Eh]
	 Singles Energy            =      -0.0000000000000000 [Eh]
	 Same-Spin Energy          =      -0.4234054824171496 [Eh]
	 Opposite-Spin Energy      =      -1.3376193152535301 [Eh]
	 Correlation Energy        =      -1.7610247976706797 [Eh]
	 Total Energy              =    -401.4995843375892264 [Eh]

	 ================> DF-SCS-MP2 Energies <==================
	-----------------------------------------------------------
	 SCS Same-Spin Scale       =       0.3333333333333333 [-]
	 SCS Opposite-Spin Scale   =       1.2000000000000000 [-]
	 SCS Same-Spin Energy      =      -0.1411351608057165 [Eh]
	 SCS Opposite-Spin Energy  =      -1.6051431783042360 [Eh]
	 SCS Correlation Energy    =      -1.7462783391099526 [Eh]
	 SCS Total Energy          =    -401.4848378790284755 [Eh]
	-----------------------------------------------------------

  Dipole Moment: [D]
     X:    -0.5727      Y:     0.6277      Z:    -0.0000     Total:     0.8497

*** Psi4 exiting successfully. Buy a developer a beer!
