                               Psi4 1.4a3.dev225

  ==> Input File <==

--------------------------------------------------------------------------
#psi4
#
memory 32 gb

molecule  {
0 1
  O        1.7420848     0.2817697     0.0000091
  N        0.1712200    -1.3621090     0.0000060
  C       -0.5564040     0.9604300     0.0000000
  C        0.4232170    -0.0565940     0.0000060
  C       -1.8793030     0.5348530    -0.0000030
  C       -0.1474190     2.4036860    -0.0000010
  C       -2.1785860    -0.8336660    -0.0000030
  C       -1.1267010    -1.7380260     0.0000010
  C        2.7107190    -0.6607300    -0.0000090
  H       -2.6789950     1.2736560    -0.0000080
  H       -1.0269000     3.0530270    -0.0000180
  H        0.4613570     2.6342930     0.8791020
  H        0.4613860     2.6342840    -0.8790860
  H       -3.2063890    -1.1841980    -0.0000050
  H       -1.3049600    -2.8116020     0.0000010
  H        2.6194040    -1.2894460    -0.8881130
  H        2.6194520    -1.2894310     0.8881110
  H        3.6618180    -0.1291010    -0.0000380
units angstrom
no_reorient  #important for SAPT in psi4, default
symmetry c1  #important for SAPT in psi4, default
}

set PROPERTIES_ORIGIN ["COM"]
properties('MP2/aug-cc-pvtz', properties = ['dipole'])
--------------------------------------------------------------------------

    Molecular point group: c1
  Charge       = 0
  Multiplicity = 1
  Basis Set: AUG-CC-PVTZ
    Blend: AUG-CC-PVTZ
  Basis Set: (AUG-CC-PVTZ AUX)
    Blend: AUG-CC-PVTZ-JKFIT

    Orbital Energies [Eh]
    ---------------------

    Doubly Occupied:

       1A    -20.580908     2A    -15.559046     3A    -11.335794
       4A    -11.274683     5A    -11.264915     6A    -11.257375
       7A    -11.246449     8A    -11.232184     9A    -11.227153
      10A     -1.434536    11A     -1.247626    12A     -1.102139
      13A     -1.046729    14A     -0.962214    15A     -0.934278
      16A     -0.838660    17A     -0.824769    18A     -0.726460
      19A     -0.692732    20A     -0.665862    21A     -0.652895
      22A     -0.613753    23A     -0.596937    24A     -0.579623
      25A     -0.566356    26A     -0.549952    27A     -0.528975
      28A     -0.524093    29A     -0.489671    30A     -0.465989
      31A     -0.424965    32A     -0.377980    33A     -0.317301

  @DF-RHF Final Energy:  -399.76272999183692

   => Energetics <=

    Nuclear Repulsion Energy =            436.2849375136822232
    One-Electron Energy =               -1407.8093307932958851
    Two-Electron Energy =                 571.7616632877767415
    Total Energy =                       -399.7627299918368635
  Basis Set: (AUG-CC-PVTZ AUX)
    Blend: AUG-CC-PVTZ-RI
    Molecular point group: c1

    Geometry (in Angstrom), charge = 0, multiplicity = 1:

       Center              X                  Y                   Z               Mass
    ------------   -----------------  -----------------  -----------------  -----------------
         O            1.751615098150     0.316980090364     0.000008554372    15.994914619570
         N            0.180750298150    -1.326898609636     0.000005454372    14.003074004430
         C           -0.546873701850     0.995640390364    -0.000000545628    12.000000000000
         C            0.432747298150    -0.021383609636     0.000005454372    12.000000000000
         C           -1.869772701850     0.570063390364    -0.000003545628    12.000000000000
         C           -0.137888701850     2.438896390364    -0.000001545628    12.000000000000
         C           -2.169055701850    -0.798455609636    -0.000003545628    12.000000000000
         C           -1.117170701850    -1.702815609636     0.000000454372    12.000000000000
         C            2.720249298150    -0.625519609636    -0.000009545628    12.000000000000
         H           -2.669464701850     1.308866390364    -0.000008545628     1.007825032230
         H           -1.017369701850     3.088237390364    -0.000018545628     1.007825032230
         H            0.470887298150     2.669503390364     0.879101454372     1.007825032230
         H            0.470916298150     2.669494390364    -0.879086545628     1.007825032230
         H           -3.196858701850    -1.148987609636    -0.000005545628     1.007825032230
         H           -1.295429701850    -2.776391609636     0.000000454372     1.007825032230
         H            2.628934298150    -1.254235609636    -0.888113545628     1.007825032230
         H            2.628982298150    -1.254220609636     0.888110454372     1.007825032230
         H            3.671348298150    -0.093890609636    -0.000038545628     1.007825032230

  Basis Set: AUG-CC-PVTZ
    Blend: AUG-CC-PVTZ
  Basis Set: (AUG-CC-PVTZ AUX)
    Blend: AUG-CC-PVTZ-JKFIT
	 Reference Energy          =    -399.7627299918369204 [Eh]
	 Singles Energy            =      -0.0000000000000000 [Eh]
	 Same-Spin Energy          =      -0.4232811695295071 [Eh]
	 Opposite-Spin Energy      =      -1.3343633617741788 [Eh]
	 Correlation Energy        =      -1.7576445313036859 [Eh]
	 Total Energy              =    -401.5203745231406174 [Eh]

	 ================> DF-SCS-MP2 Energies <==================
	-----------------------------------------------------------
	 SCS Same-Spin Scale       =       0.3333333333333333 [-]
	 SCS Opposite-Spin Scale   =       1.2000000000000000 [-]
	 SCS Same-Spin Energy      =      -0.1410937231765023 [Eh]
	 SCS Opposite-Spin Energy  =      -1.6012360341290146 [Eh]
	 SCS Correlation Energy    =      -1.7423297573055170 [Eh]
	 SCS Total Energy          =    -401.5050597491424469 [Eh]
	-----------------------------------------------------------

  Dipole Moment: [D]
     X:    -0.8031      Y:     0.8914      Z:    -0.0000     Total:     1.1998

*** Psi4 exiting successfully. Buy a developer a beer!
