                               Psi4 1.4a3.dev225

  ==> Input File <==

--------------------------------------------------------------------------
#psi4
#
memory 32 gb

molecule  {
0 1
  O        1.7152690     0.3729450     0.0000090
  N        0.1712200    -1.3621090     0.0000060
  C       -0.5564040     0.9604300     0.0000000
  C        0.4232170    -0.0565940     0.0000060
  C       -1.8793030     0.5348530    -0.0000030
  C       -0.1474190     2.4036860    -0.0000010
  C       -2.1785860    -0.8336660    -0.0000030
  C       -1.0786748    -1.7241162     0.0000012
  C        2.7107190    -0.6607300    -0.0000090
  H       -2.6789950     1.2736560    -0.0000080
  H       -1.0269000     3.0530270    -0.0000180
  H        0.4613570     2.6342930     0.8791020
  H        0.4613860     2.6342840    -0.8790860
  H       -3.2063890    -1.1841980    -0.0000050
  H       -1.3049600    -2.8116020     0.0000010
  H        2.6194040    -1.2894460    -0.8881130
  H        2.6194520    -1.2894310     0.8881110
  H        3.6618180    -0.1291010    -0.0000380
units angstrom
no_reorient  #important for SAPT in psi4, default
symmetry c1  #important for SAPT in psi4, default
}

set PROPERTIES_ORIGIN ["COM"]
properties('MP2/aug-cc-pvtz', properties = ['dipole'])
--------------------------------------------------------------------------

    Molecular point group: c1
  Charge       = 0
  Multiplicity = 1
  Basis Set: AUG-CC-PVTZ
    Blend: AUG-CC-PVTZ
  Basis Set: (AUG-CC-PVTZ AUX)
    Blend: AUG-CC-PVTZ-JKFIT

    Orbital Energies [Eh]
    ---------------------

    Doubly Occupied:

       1A    -20.587198     2A    -15.558451     3A    -11.332647
       4A    -11.275553     5A    -11.274835     6A    -11.253614
       7A    -11.239870     8A    -11.231335     9A    -11.223656
      10A     -1.416226    11A     -1.259502    12A     -1.101936
      13A     -1.035627    14A     -0.957029    15A     -0.933166
      16A     -0.833766    17A     -0.830197    18A     -0.719465
      19A     -0.691171    20A     -0.654857    21A     -0.647265
      22A     -0.605472    23A     -0.584818    24A     -0.576817
      25A     -0.559264    26A     -0.549463    27A     -0.533566
      28A     -0.527861    29A     -0.503427    30A     -0.478334
      31A     -0.420121    32A     -0.381657    33A     -0.310299

  @DF-RHF Final Energy:  -399.76352591951616

   => Energetics <=

    Nuclear Repulsion Energy =            436.0160784057466117
    One-Electron Energy =               -1407.3822734421250971
    Two-Electron Energy =                 571.6026691168623302
    Total Energy =                       -399.7635259195161552
  Basis Set: (AUG-CC-PVTZ AUX)
    Blend: AUG-CC-PVTZ-RI
    Molecular point group: c1

    Geometry (in Angstrom), charge = 0, multiplicity = 1:

       Center              X                  Y                   Z               Mass
    ------------   -----------------  -----------------  -----------------  -----------------
         O            1.723601606851     0.394949250078     0.000008447867    15.994914619570
         N            0.179552606851    -1.340104749922     0.000005447867    14.003074004430
         C           -0.548071393149     0.982434250078    -0.000000552133    12.000000000000
         C            0.431549606851    -0.034589749922     0.000005447867    12.000000000000
         C           -1.870970393149     0.556857250078    -0.000003552133    12.000000000000
         C           -0.139086393149     2.425690250078    -0.000001552133    12.000000000000
         C           -2.170253393149    -0.811661749922    -0.000003552133    12.000000000000
         C           -1.070342193149    -1.702111949922     0.000000647867    12.000000000000
         C            2.719051606851    -0.638725749922    -0.000009552133    12.000000000000
         H           -2.670662393149     1.295660250078    -0.000008552133     1.007825032230
         H           -1.018567393149     3.075031250078    -0.000018552133     1.007825032230
         H            0.469689606851     2.656297250078     0.879101447867     1.007825032230
         H            0.469718606851     2.656288250078    -0.879086552133     1.007825032230
         H           -3.198056393149    -1.162193749922    -0.000005552133     1.007825032230
         H           -1.296627393149    -2.789597749922     0.000000447867     1.007825032230
         H            2.627736606851    -1.267441749922    -0.888113552133     1.007825032230
         H            2.627784606851    -1.267426749922     0.888110447867     1.007825032230
         H            3.670150606851    -0.107096749922    -0.000038552133     1.007825032230

  Basis Set: AUG-CC-PVTZ
    Blend: AUG-CC-PVTZ
  Basis Set: (AUG-CC-PVTZ AUX)
    Blend: AUG-CC-PVTZ-JKFIT
	 Reference Energy          =    -399.7635259195161552 [Eh]
	 Singles Energy            =      -0.0000000000000000 [Eh]
	 Same-Spin Energy          =      -0.4237553511602696 [Eh]
	 Opposite-Spin Energy      =      -1.3360101190419007 [Eh]
	 Correlation Energy        =      -1.7597654702021703 [Eh]
	 Total Energy              =    -401.5232913897183380 [Eh]

	 ================> DF-SCS-MP2 Energies <==================
	-----------------------------------------------------------
	 SCS Same-Spin Scale       =       0.3333333333333333 [-]
	 SCS Opposite-Spin Scale   =       1.2000000000000000 [-]
	 SCS Same-Spin Energy      =      -0.1412517837200898 [Eh]
	 SCS Opposite-Spin Energy  =      -1.6032121428502808 [Eh]
	 SCS Correlation Energy    =      -1.7444639265703707 [Eh]
	 SCS Total Energy          =    -401.5079898460865024 [Eh]
	-----------------------------------------------------------

  Dipole Moment: [D]
     X:    -0.4585      Y:     0.6363      Z:    -0.0000     Total:     0.7843

*** Psi4 exiting successfully. Buy a developer a beer!
