                               Psi4 1.4a3.dev225

  ==> Input File <==

--------------------------------------------------------------------------
#psi4
#
memory 32 gb

molecule  {
0 1
  O        1.7152690     0.3729450     0.0000090
  N        0.1712200    -1.3621090     0.0000060
  C       -0.5564040     0.9604300     0.0000000
  C        0.4232170    -0.0565940     0.0000060
  C       -1.8865289     0.5580056    -0.0000031
  C       -0.1474190     2.4036860    -0.0000010
  C       -2.1785860    -0.8336660    -0.0000030
  C       -1.1267010    -1.7380260     0.0000010
  C        2.7107190    -0.6607300    -0.0000090
  H       -2.6789950     1.2736560    -0.0000080
  H       -1.0269000     3.0530270    -0.0000180
  H        0.4613570     2.6342930     0.8791020
  H        0.4613860     2.6342840    -0.8790860
  H       -3.2063890    -1.1841980    -0.0000050
  H       -1.3049600    -2.8116020     0.0000010
  H        2.6194040    -1.2894460    -0.8881130
  H        2.6194520    -1.2894310     0.8881110
  H        3.6618180    -0.1291010    -0.0000380
units angstrom
no_reorient  #important for SAPT in psi4, default
symmetry c1  #important for SAPT in psi4, default
}

set PROPERTIES_ORIGIN ["COM"]
properties('MP2/aug-cc-pvtz', properties = ['dipole'])
--------------------------------------------------------------------------

    Molecular point group: c1
  Charge       = 0
  Multiplicity = 1
  Basis Set: AUG-CC-PVTZ
    Blend: AUG-CC-PVTZ
  Basis Set: (AUG-CC-PVTZ AUX)
    Blend: AUG-CC-PVTZ-JKFIT

    Orbital Energies [Eh]
    ---------------------

    Doubly Occupied:

       1A    -20.587403     2A    -15.558860     3A    -11.332901
       4A    -11.274298     5A    -11.273156     6A    -11.255021
       7A    -11.242671     8A    -11.232151     9A    -11.224000
      10A     -1.415789    11A     -1.243629    12A     -1.099078
      13A     -1.037735    14A     -0.955521    15A     -0.935485
      16A     -0.837060    17A     -0.824779    18A     -0.720930
      19A     -0.687579    20A     -0.654007    21A     -0.646674
      22A     -0.606779    23A     -0.589680    24A     -0.576547
      25A     -0.564381    26A     -0.548395    27A     -0.528851
      28A     -0.525769    29A     -0.499865    30A     -0.476035
      31A     -0.423241    32A     -0.375064    33A     -0.315389

  @DF-RHF Final Energy:  -399.76475293771125

   => Energetics <=

    Nuclear Repulsion Energy =            434.9924503248404903
    One-Electron Energy =               -1405.3769614593882125
    Two-Electron Energy =                 570.6197581968364148
    Total Energy =                       -399.7647529377112505
  Basis Set: (AUG-CC-PVTZ AUX)
    Blend: AUG-CC-PVTZ-RI
    Molecular point group: c1

    Geometry (in Angstrom), charge = 0, multiplicity = 1:

       Center              X                  Y                   Z               Mass
    ------------   -----------------  -----------------  -----------------  -----------------
         O            1.728989059073     0.394048014769     0.000008477119    15.994914619570
         N            0.184940059073    -1.341005985231     0.000005477119    14.003074004430
         C           -0.542683940927     0.981533014769    -0.000000522881    12.000000000000
         C            0.436937059073    -0.035490985231     0.000005477119    12.000000000000
         C           -1.872808840927     0.579108614769    -0.000003622881    12.000000000000
         C           -0.133698940927     2.424789014769    -0.000001522881    12.000000000000
         C           -2.164865940927    -0.812562985231    -0.000003522881    12.000000000000
         C           -1.112980940927    -1.716922985231     0.000000477119    12.000000000000
         C            2.724439059073    -0.639626985231    -0.000009522881    12.000000000000
         H           -2.665274940927     1.294759014769    -0.000008522881     1.007825032230
         H           -1.013179940927     3.074130014769    -0.000018522881     1.007825032230
         H            0.475077059073     2.655396014769     0.879101477119     1.007825032230
         H            0.475106059073     2.655387014769    -0.879086522881     1.007825032230
         H           -3.192668940927    -1.163094985231    -0.000005522881     1.007825032230
         H           -1.291239940927    -2.790498985231     0.000000477119     1.007825032230
         H            2.633124059073    -1.268342985231    -0.888113522881     1.007825032230
         H            2.633172059073    -1.268327985231     0.888110477119     1.007825032230
         H            3.675538059073    -0.107997985231    -0.000038522881     1.007825032230

  Basis Set: AUG-CC-PVTZ
    Blend: AUG-CC-PVTZ
  Basis Set: (AUG-CC-PVTZ AUX)
    Blend: AUG-CC-PVTZ-JKFIT
	 Reference Energy          =    -399.7647529377112505 [Eh]
	 Singles Energy            =      -0.0000000000000000 [Eh]
	 Same-Spin Energy          =      -0.4236682035202185 [Eh]
	 Opposite-Spin Energy      =      -1.3367621011405877 [Eh]
	 Correlation Energy        =      -1.7604303046608063 [Eh]
	 Total Energy              =    -401.5251832423720657 [Eh]

	 ================> DF-SCS-MP2 Energies <==================
	-----------------------------------------------------------
	 SCS Same-Spin Scale       =       0.3333333333333333 [-]
	 SCS Opposite-Spin Scale   =       1.2000000000000000 [-]
	 SCS Same-Spin Energy      =      -0.1412227345067395 [Eh]
	 SCS Opposite-Spin Energy  =      -1.6041145213687051 [Eh]
	 SCS Correlation Energy    =      -1.7453372558754445 [Eh]
	 SCS Total Energy          =    -401.5100901935866773 [Eh]
	-----------------------------------------------------------

  Dipole Moment: [D]
     X:    -0.5252      Y:     0.6661      Z:    -0.0000     Total:     0.8483

*** Psi4 exiting successfully. Buy a developer a beer!
