                               Psi4 1.4a3.dev225

  ==> Input File <==

--------------------------------------------------------------------------
#psi4
#
memory 32 gb

molecule  {
0 1
  O        1.7152690     0.3729450     0.0000090
  N        0.1712200    -1.3621090     0.0000060
  C       -0.5564040     0.9604300     0.0000000
  C        0.4232170    -0.0565940     0.0000060
  C       -1.8793030     0.5348530    -0.0000030
  C       -0.1474190     2.4036860    -0.0000010
  C       -2.1572218    -0.7359748    -0.0000030
  C       -1.1267010    -1.7380260     0.0000010
  C        2.7107190    -0.6607300    -0.0000090
  H       -2.6789950     1.2736560    -0.0000080
  H       -1.0269000     3.0530270    -0.0000180
  H        0.4613570     2.6342930     0.8791020
  H        0.4613860     2.6342840    -0.8790860
  H       -3.2063890    -1.1841980    -0.0000050
  H       -1.3049600    -2.8116020     0.0000010
  H        2.6194040    -1.2894460    -0.8881130
  H        2.6194520    -1.2894310     0.8881110
  H        3.6618180    -0.1291010    -0.0000380
units angstrom
no_reorient  #important for SAPT in psi4, default
symmetry c1  #important for SAPT in psi4, default
}

set PROPERTIES_ORIGIN ["COM"]
properties('MP2/aug-cc-pvtz', properties = ['dipole'])
--------------------------------------------------------------------------

    Molecular point group: c1
  Charge       = 0
  Multiplicity = 1
  Basis Set: AUG-CC-PVTZ
    Blend: AUG-CC-PVTZ
  Basis Set: (AUG-CC-PVTZ AUX)
    Blend: AUG-CC-PVTZ-JKFIT

    Orbital Energies [Eh]
    ---------------------

    Doubly Occupied:

       1A    -20.583608     2A    -15.562810     3A    -11.327353
       4A    -11.283019     5A    -11.272980     6A    -11.241463
       7A    -11.238829     8A    -11.230949     9A    -11.222704
      10A     -1.412776    11A     -1.246798    12A     -1.110138
      13A     -1.041209    14A     -0.955913    15A     -0.931703
      16A     -0.839910    17A     -0.818910    18A     -0.721369
      19A     -0.691919    20A     -0.652292    21A     -0.642719
      22A     -0.599254    23A     -0.596456    24A     -0.576155
      25A     -0.556847    26A     -0.545357    27A     -0.529627
      28A     -0.527437    29A     -0.500530    30A     -0.477533
      31A     -0.419085    32A     -0.389470    33A     -0.307045

  @DF-RHF Final Energy:  -399.75037754243385

   => Energetics <=

    Nuclear Repulsion Energy =            436.4316071915181965
    One-Electron Energy =               -1408.2556388069795048
    Two-Electron Energy =                 572.0736540730274555
    Total Energy =                       -399.7503775424338528
  Basis Set: (AUG-CC-PVTZ AUX)
    Blend: AUG-CC-PVTZ-RI
    Molecular point group: c1

    Geometry (in Angstrom), charge = 0, multiplicity = 1:

       Center              X                  Y                   Z               Mass
    ------------   -----------------  -----------------  -----------------  -----------------
         O            1.726201331588     0.386779998781     0.000008467368    15.994914619570
         N            0.182152331588    -1.348274001219     0.000005467368    14.003074004430
         C           -0.545471668412     0.974264998781    -0.000000532632    12.000000000000
         C            0.434149331588    -0.042759001219     0.000005467368    12.000000000000
         C           -1.868370668412     0.548687998781    -0.000003532632    12.000000000000
         C           -0.136486668412     2.417520998781    -0.000001532632    12.000000000000
         C           -2.146289468412    -0.722139801219    -0.000003532632    12.000000000000
         C           -1.115768668412    -1.724191001219     0.000000467368    12.000000000000
         C            2.721651331588    -0.646895001219    -0.000009532632    12.000000000000
         H           -2.668062668412     1.287490998781    -0.000008532632     1.007825032230
         H           -1.015967668412     3.066861998781    -0.000018532632     1.007825032230
         H            0.472289331588     2.648127998781     0.879101467368     1.007825032230
         H            0.472318331588     2.648118998781    -0.879086532632     1.007825032230
         H           -3.195456668412    -1.170363001219    -0.000005532632     1.007825032230
         H           -1.294027668412    -2.797767001219     0.000000467368     1.007825032230
         H            2.630336331588    -1.275611001219    -0.888113532632     1.007825032230
         H            2.630384331588    -1.275596001219     0.888110467368     1.007825032230
         H            3.672750331588    -0.115266001219    -0.000038532632     1.007825032230

  Basis Set: AUG-CC-PVTZ
    Blend: AUG-CC-PVTZ
  Basis Set: (AUG-CC-PVTZ AUX)
    Blend: AUG-CC-PVTZ-JKFIT
	 Reference Energy          =    -399.7503775424338528 [Eh]
	 Singles Energy            =      -0.0000000000000000 [Eh]
	 Same-Spin Energy          =      -0.4247589454291971 [Eh]
	 Opposite-Spin Energy      =      -1.3378258919586139 [Eh]
	 Correlation Energy        =      -1.7625848373878110 [Eh]
	 Total Energy              =    -401.5129623798216585 [Eh]

	 ================> DF-SCS-MP2 Energies <==================
	-----------------------------------------------------------
	 SCS Same-Spin Scale       =       0.3333333333333333 [-]
	 SCS Opposite-Spin Scale   =       1.2000000000000000 [-]
	 SCS Same-Spin Energy      =      -0.1415863151430657 [Eh]
	 SCS Opposite-Spin Energy  =      -1.6053910703503367 [Eh]
	 SCS Correlation Energy    =      -1.7469773854934023 [Eh]
	 SCS Total Energy          =    -401.4973549279272333 [Eh]
	-----------------------------------------------------------

  Dipole Moment: [D]
     X:    -0.5598      Y:     0.5565      Z:    -0.0000     Total:     0.7893

*** Psi4 exiting successfully. Buy a developer a beer!
