                               Psi4 1.4a3.dev225

  ==> Input File <==

--------------------------------------------------------------------------
#psi4
#
memory 32 gb

molecule  {
0 1
  O        1.6632920     0.5056482     0.0000088
  N        0.1712200    -1.3621090     0.0000060
  C       -0.5564040     0.9604300     0.0000000
  C        0.4232170    -0.0565940     0.0000060
  C       -1.8793030     0.5348530    -0.0000030
  C       -0.1474190     2.4036860    -0.0000010
  C       -2.1785860    -0.8336660    -0.0000030
  C       -1.1267010    -1.7380260     0.0000010
  C        2.7107190    -0.6607300    -0.0000090
  H       -2.6789950     1.2736560    -0.0000080
  H       -1.0269000     3.0530270    -0.0000180
  H        0.4613570     2.6342930     0.8791020
  H        0.4613860     2.6342840    -0.8790860
  H       -3.2063890    -1.1841980    -0.0000050
  H       -1.3049600    -2.8116020     0.0000010
  H        2.6194040    -1.2894460    -0.8881130
  H        2.6194520    -1.2894310     0.8881110
  H        3.6618180    -0.1291010    -0.0000380
units angstrom
no_reorient  #important for SAPT in psi4, default
symmetry c1  #important for SAPT in psi4, default
}

set PROPERTIES_ORIGIN ["COM"]
properties('MP2/aug-cc-pvtz', properties = ['dipole'])
--------------------------------------------------------------------------

    Molecular point group: c1
  Charge       = 0
  Multiplicity = 1
  Basis Set: AUG-CC-PVTZ
    Blend: AUG-CC-PVTZ
  Basis Set: (AUG-CC-PVTZ AUX)
    Blend: AUG-CC-PVTZ-JKFIT

    Orbital Energies [Eh]
    ---------------------

    Doubly Occupied:

       1A    -20.592704     2A    -15.558943     3A    -11.328547
       4A    -11.288976     5A    -11.272522     6A    -11.249813
       7A    -11.235442     8A    -11.227782     9A    -11.220255
      10A     -1.394100    11A     -1.240857    12A     -1.095832
      13A     -1.032013    14A     -0.949228    15A     -0.937636
      16A     -0.834034    17A     -0.822435    18A     -0.710706
      19A     -0.683783    20A     -0.641304    21A     -0.640629
      22A     -0.598064    23A     -0.578218    24A     -0.574106
      25A     -0.554959    26A     -0.537527    27A     -0.535101
      28A     -0.531600    29A     -0.505163    30A     -0.486828
      31A     -0.418944    32A     -0.374793    33A     -0.311920

  @DF-RHF Final Energy:  -399.74576187518727

   => Energetics <=

    Nuclear Repulsion Energy =            434.2301434689513826
    One-Electron Energy =               -1404.0222787956233788
    Two-Electron Energy =                 570.0463734514846692
    Total Energy =                       -399.7457618751873270
  Basis Set: (AUG-CC-PVTZ AUX)
    Blend: AUG-CC-PVTZ-RI
    Molecular point group: c1

    Geometry (in Angstrom), charge = 0, multiplicity = 1:

       Center              X                  Y                   Z               Mass
    ------------   -----------------  -----------------  -----------------  -----------------
         O            1.683062814530     0.511761624061     0.000008293362    15.994914619570
         N            0.190990814530    -1.355995575939     0.000005493362    14.003074004430
         C           -0.536633185470     0.966543424061    -0.000000506638    12.000000000000
         C            0.442987814530    -0.050480575939     0.000005493362    12.000000000000
         C           -1.859532185470     0.540966424061    -0.000003506638    12.000000000000
         C           -0.127648185470     2.409799424061    -0.000001506638    12.000000000000
         C           -2.158815185470    -0.827552575939    -0.000003506638    12.000000000000
         C           -1.106930185470    -1.731912575939     0.000000493362    12.000000000000
         C            2.730489814530    -0.654616575939    -0.000009506638    12.000000000000
         H           -2.659224185470     1.279769424061    -0.000008506638     1.007825032230
         H           -1.007129185470     3.059140424061    -0.000018506638     1.007825032230
         H            0.481127814530     2.640406424061     0.879101493362     1.007825032230
         H            0.481156814530     2.640397424061    -0.879086506638     1.007825032230
         H           -3.186618185470    -1.178084575939    -0.000005506638     1.007825032230
         H           -1.285189185470    -2.805488575939     0.000000493362     1.007825032230
         H            2.639174814530    -1.283332575939    -0.888113506638     1.007825032230
         H            2.639222814530    -1.283317575939     0.888110493362     1.007825032230
         H            3.681588814530    -0.122987575939    -0.000038506638     1.007825032230

  Basis Set: AUG-CC-PVTZ
    Blend: AUG-CC-PVTZ
  Basis Set: (AUG-CC-PVTZ AUX)
    Blend: AUG-CC-PVTZ-JKFIT
	 Reference Energy          =    -399.7457618751872701 [Eh]
	 Singles Energy            =      -0.0000000000000000 [Eh]
	 Same-Spin Energy          =      -0.4254037324545319 [Eh]
	 Opposite-Spin Energy      =      -1.3418505725440455 [Eh]
	 Correlation Energy        =      -1.7672543049985774 [Eh]
	 Total Energy              =    -401.5130161801858435 [Eh]

	 ================> DF-SCS-MP2 Energies <==================
	-----------------------------------------------------------
	 SCS Same-Spin Scale       =       0.3333333333333333 [-]
	 SCS Opposite-Spin Scale   =       1.2000000000000000 [-]
	 SCS Same-Spin Energy      =      -0.1418012441515106 [Eh]
	 SCS Opposite-Spin Energy  =      -1.6102206870528546 [Eh]
	 SCS Correlation Energy    =      -1.7520219312043652 [Eh]
	 SCS Total Energy          =    -401.4977838063916238 [Eh]
	-----------------------------------------------------------

  Dipole Moment: [D]
     X:    -0.1641      Y:     0.3619      Z:    -0.0000     Total:     0.3973

*** Psi4 exiting successfully. Buy a developer a beer!
