                               Psi4 1.4a3.dev225

  ==> Input File <==

--------------------------------------------------------------------------
#psi4
#
memory 32 gb

molecule  {
0 1
  O        1.7152690     0.3729450     0.0000090
  N        0.1712200    -1.3621090     0.0000060
  C       -0.5564040     0.9604300     0.0000000
  C        0.4232170    -0.0565940     0.0000060
  C       -1.8793030     0.5348530    -0.0000030
  C       -0.1474190     2.4036860    -0.0000010
  C       -2.1785860    -0.8336660    -0.0000030
  C       -1.1267010    -1.7380260     0.0000010
  C        2.7107190    -0.6607300    -0.0000090
  H       -2.6643047     1.2600842    -0.0000079
  H       -1.0269000     3.0530270    -0.0000180
  H        0.4613570     2.6342930     0.8791020
  H        0.4613860     2.6342840    -0.8790860
  H       -3.2063890    -1.1841980    -0.0000050
  H       -1.3049600    -2.8116020     0.0000010
  H        2.6194040    -1.2894460    -0.8881130
  H        2.6194520    -1.2894310     0.8881110
  H        3.6618180    -0.1291010    -0.0000380
units angstrom
no_reorient  #important for SAPT in psi4, default
symmetry c1  #important for SAPT in psi4, default
}

set PROPERTIES_ORIGIN ["COM"]
properties('MP2/aug-cc-pvtz', properties = ['dipole'])
--------------------------------------------------------------------------

    Molecular point group: c1
  Charge       = 0
  Multiplicity = 1
  Basis Set: AUG-CC-PVTZ
    Blend: AUG-CC-PVTZ
  Basis Set: (AUG-CC-PVTZ AUX)
    Blend: AUG-CC-PVTZ-JKFIT

    Orbital Energies [Eh]
    ---------------------

    Doubly Occupied:

       1A    -20.586805     2A    -15.558894     3A    -11.331990
       4A    -11.273989     5A    -11.273714     6A    -11.252013
       7A    -11.241691     8A    -11.230159     9A    -11.224398
      10A     -1.415304    11A     -1.244310    12A     -1.100031
      13A     -1.040177    14A     -0.955632    15A     -0.935663
      16A     -0.836948    17A     -0.825299    18A     -0.720921
      19A     -0.688506    20A     -0.653680    21A     -0.648388
      22A     -0.605181    23A     -0.589746    24A     -0.576670
      25A     -0.561738    26A     -0.547703    27A     -0.529306
      28A     -0.528017    29A     -0.501392    30A     -0.476481
      31A     -0.422828    32A     -0.376628    33A     -0.315219

  @DF-RHF Final Energy:  -399.76577730447167

   => Energetics <=

    Nuclear Repulsion Energy =            435.4219890707535114
    One-Electron Energy =               -1406.2366896307376010
    Two-Electron Energy =                 571.0489232555123635
    Total Energy =                       -399.7657773044717260
  Basis Set: (AUG-CC-PVTZ AUX)
    Blend: AUG-CC-PVTZ-RI
    Molecular point group: c1

    Geometry (in Angstrom), charge = 0, multiplicity = 1:

       Center              X                  Y                   Z               Mass
    ------------   -----------------  -----------------  -----------------  -----------------
         O            1.728164184120     0.396416690780     0.000008466550    15.994914619570
         N            0.184115184120    -1.338637309220     0.000005466550    14.003074004430
         C           -0.543508815880     0.983901690780    -0.000000533450    12.000000000000
         C            0.436112184120    -0.033122309220     0.000005466550    12.000000000000
         C           -1.866407815880     0.558324690780    -0.000003533450    12.000000000000
         C           -0.134523815880     2.427157690780    -0.000001533450    12.000000000000
         C           -2.165690815880    -0.810194309220    -0.000003533450    12.000000000000
         C           -1.113805815880    -1.714554309220     0.000000466550    12.000000000000
         C            2.723614184120    -0.637258309220    -0.000009533450    12.000000000000
         H           -2.651409515880     1.283555890780    -0.000008433450     1.007825032230
         H           -1.014004815880     3.076498690780    -0.000018533450     1.007825032230
         H            0.474252184120     2.657764690780     0.879101466550     1.007825032230
         H            0.474281184120     2.657755690780    -0.879086533450     1.007825032230
         H           -3.193493815880    -1.160726309220    -0.000005533450     1.007825032230
         H           -1.292064815880    -2.788130309220     0.000000466550     1.007825032230
         H            2.632299184120    -1.265974309220    -0.888113533450     1.007825032230
         H            2.632347184120    -1.265959309220     0.888110466550     1.007825032230
         H            3.674713184120    -0.105629309220    -0.000038533450     1.007825032230

  Basis Set: AUG-CC-PVTZ
    Blend: AUG-CC-PVTZ
  Basis Set: (AUG-CC-PVTZ AUX)
    Blend: AUG-CC-PVTZ-JKFIT
	 Reference Energy          =    -399.7657773044716691 [Eh]
	 Singles Energy            =      -0.0000000000000000 [Eh]
	 Same-Spin Energy          =      -0.4237237866690250 [Eh]
	 Opposite-Spin Energy      =      -1.3365175792381312 [Eh]
	 Correlation Energy        =      -1.7602413659071563 [Eh]
	 Total Energy              =    -401.5260186703788463 [Eh]

	 ================> DF-SCS-MP2 Energies <==================
	-----------------------------------------------------------
	 SCS Same-Spin Scale       =       0.3333333333333333 [-]
	 SCS Opposite-Spin Scale   =       1.2000000000000000 [-]
	 SCS Same-Spin Energy      =      -0.1412412622230083 [Eh]
	 SCS Opposite-Spin Energy  =      -1.6038210950857574 [Eh]
	 SCS Correlation Energy    =      -1.7450623573087658 [Eh]
	 SCS Total Energy          =    -401.5108396617804374 [Eh]
	-----------------------------------------------------------

  Dipole Moment: [D]
     X:    -0.5327      Y:     0.6590      Z:    -0.0000     Total:     0.8473

*** Psi4 exiting successfully. Buy a developer a beer!
