                               Psi4 1.4a3.dev225

  ==> Input File <==

--------------------------------------------------------------------------
#psi4
#
memory 32 gb

molecule  {
0 1
  O        1.7152690     0.3729450     0.0000090
  N        0.1712200    -1.3621090     0.0000060
  C       -0.5564040     0.9604300     0.0000000
  C        0.4232170    -0.0565940     0.0000060
  C       -1.8793030     0.5348530    -0.0000030
  C       -0.1746831     2.3074744    -0.0000009
  C       -2.1785860    -0.8336660    -0.0000030
  C       -1.1267010    -1.7380260     0.0000010
  C        2.7107190    -0.6607300    -0.0000090
  H       -2.6789950     1.2736560    -0.0000080
  H       -1.0269000     3.0530270    -0.0000180
  H        0.4613570     2.6342930     0.8791020
  H        0.4613860     2.6342840    -0.8790860
  H       -3.2063890    -1.1841980    -0.0000050
  H       -1.3049600    -2.8116020     0.0000010
  H        2.6194040    -1.2894460    -0.8881130
  H        2.6194520    -1.2894310     0.8881110
  H        3.6618180    -0.1291010    -0.0000380
units angstrom
no_reorient  #important for SAPT in psi4, default
symmetry c1  #important for SAPT in psi4, default
}

set PROPERTIES_ORIGIN ["COM"]
properties('MP2/aug-cc-pvtz', properties = ['dipole'])
--------------------------------------------------------------------------

    Molecular point group: c1
  Charge       = 0
  Multiplicity = 1
  Basis Set: AUG-CC-PVTZ
    Blend: AUG-CC-PVTZ
  Basis Set: (AUG-CC-PVTZ AUX)
    Blend: AUG-CC-PVTZ-JKFIT

    Orbital Energies [Eh]
    ---------------------

    Doubly Occupied:

       1A    -20.587764     2A    -15.559565     3A    -11.332774
       4A    -11.274496     5A    -11.274389     6A    -11.254635
       7A    -11.237270     8A    -11.230765     9A    -11.227798
      10A     -1.416338    11A     -1.245333    12A     -1.110859
      13A     -1.044627    14A     -0.957360    15A     -0.934706
      16A     -0.835106    17A     -0.823984    18A     -0.720825
      19A     -0.691243    20A     -0.654582    21A     -0.653908
      22A     -0.614235    23A     -0.593956    24A     -0.572062
      25A     -0.562547    26A     -0.544359    27A     -0.527245
      28A     -0.521185    29A     -0.496104    30A     -0.477084
      31A     -0.424074    32A     -0.375076    33A     -0.313544

  @DF-RHF Final Energy:  -399.75310120652807

   => Energetics <=

    Nuclear Repulsion Energy =            437.1500191593733007
    One-Electron Energy =               -1409.6266461342088405
    Two-Electron Energy =                 572.7235257683074678
    Total Energy =                       -399.7531012065280720
  Basis Set: (AUG-CC-PVTZ AUX)
    Blend: AUG-CC-PVTZ-RI
    Molecular point group: c1

    Geometry (in Angstrom), charge = 0, multiplicity = 1:

       Center              X                  Y                   Z               Mass
    ------------   -----------------  -----------------  -----------------  -----------------
         O            1.730942918657     0.405686828941     0.000008457618    15.994914619570
         N            0.186893918657    -1.329367171059     0.000005457618    14.003074004430
         C           -0.540730081343     0.993171828941    -0.000000542382    12.000000000000
         C            0.438890918657    -0.023852171059     0.000005457618    12.000000000000
         C           -1.863629081343     0.567594828941    -0.000003542382    12.000000000000
         C           -0.159009181343     2.340216228941    -0.000001442382    12.000000000000
         C           -2.162912081343    -0.800924171059    -0.000003542382    12.000000000000
         C           -1.111027081343    -1.705284171059     0.000000457618    12.000000000000
         C            2.726392918657    -0.627988171059    -0.000009542382    12.000000000000
         H           -2.663321081343     1.306397828941    -0.000008542382     1.007825032230
         H           -1.011226081343     3.085768828941    -0.000018542382     1.007825032230
         H            0.477030918657     2.667034828941     0.879101457618     1.007825032230
         H            0.477059918657     2.667025828941    -0.879086542382     1.007825032230
         H           -3.190715081343    -1.151456171059    -0.000005542382     1.007825032230
         H           -1.289286081343    -2.778860171059     0.000000457618     1.007825032230
         H            2.635077918657    -1.256704171059    -0.888113542382     1.007825032230
         H            2.635125918657    -1.256689171059     0.888110457618     1.007825032230
         H            3.677491918657    -0.096359171059    -0.000038542382     1.007825032230

  Basis Set: AUG-CC-PVTZ
    Blend: AUG-CC-PVTZ
  Basis Set: (AUG-CC-PVTZ AUX)
    Blend: AUG-CC-PVTZ-JKFIT
	 Reference Energy          =    -399.7531012065280720 [Eh]
	 Singles Energy            =      -0.0000000000000000 [Eh]
	 Same-Spin Energy          =      -0.4251445880477017 [Eh]
	 Opposite-Spin Energy      =      -1.3381447559065447 [Eh]
	 Correlation Energy        =      -1.7632893439542463 [Eh]
	 Total Energy              =    -401.5163905504822992 [Eh]

	 ================> DF-SCS-MP2 Energies <==================
	-----------------------------------------------------------
	 SCS Same-Spin Scale       =       0.3333333333333333 [-]
	 SCS Opposite-Spin Scale   =       1.2000000000000000 [-]
	 SCS Same-Spin Energy      =      -0.1417148626825672 [Eh]
	 SCS Opposite-Spin Energy  =      -1.6057737070878535 [Eh]
	 SCS Correlation Energy    =      -1.7474885697704208 [Eh]
	 SCS Total Energy          =    -401.5005897762985114 [Eh]
	-----------------------------------------------------------

  Dipole Moment: [D]
     X:    -0.4953      Y:     0.6525      Z:    -0.0000     Total:     0.8192

*** Psi4 exiting successfully. Buy a developer a beer!
