                               Psi4 1.4a3.dev225

  ==> Input File <==

--------------------------------------------------------------------------
#psi4
#
memory 32 gb

molecule  {
0 1
  O        1.7152690     0.3729450     0.0000090
  N        0.1712200    -1.3621090     0.0000060
  C       -0.5564040     0.9604300     0.0000000
  C        0.4232170    -0.0565940     0.0000060
  C       -1.8716742     0.5118300    -0.0000029
  C       -0.1474190     2.4036860    -0.0000010
  C       -2.1785860    -0.8336660    -0.0000030
  C       -1.1267010    -1.7380260     0.0000010
  C        2.7107190    -0.6607300    -0.0000090
  H       -2.6789950     1.2736560    -0.0000080
  H       -1.0269000     3.0530270    -0.0000180
  H        0.4613570     2.6342930     0.8791020
  H        0.4613860     2.6342840    -0.8790860
  H       -3.2063890    -1.1841980    -0.0000050
  H       -1.3049600    -2.8116020     0.0000010
  H        2.6194040    -1.2894460    -0.8881130
  H        2.6194520    -1.2894310     0.8881110
  H        3.6618180    -0.1291010    -0.0000380
units angstrom
no_reorient  #important for SAPT in psi4, default
symmetry c1  #important for SAPT in psi4, default
}

set PROPERTIES_ORIGIN ["COM"]
properties('MP2/aug-cc-pvtz', properties = ['dipole'])
--------------------------------------------------------------------------

    Molecular point group: c1
  Charge       = 0
  Multiplicity = 1
  Basis Set: AUG-CC-PVTZ
    Blend: AUG-CC-PVTZ
  Basis Set: (AUG-CC-PVTZ AUX)
    Blend: AUG-CC-PVTZ-JKFIT

    Orbital Energies [Eh]
    ---------------------

    Doubly Occupied:

       1A    -20.586391     2A    -15.559107     3A    -11.331419
       4A    -11.274597     5A    -11.273805     6A    -11.253696
       7A    -11.241164     8A    -11.228509     9A    -11.224762
      10A     -1.415003    11A     -1.245286    12A     -1.100431
      13A     -1.042681    14A     -0.955824    15A     -0.935333
      16A     -0.835424    17A     -0.824416    18A     -0.719015
      19A     -0.689531    20A     -0.653520    21A     -0.649880
      22A     -0.601376    23A     -0.589859    24A     -0.576867
      25A     -0.555892    26A     -0.545770    27A     -0.530592
      28A     -0.529975    29A     -0.502665    30A     -0.477144
      31A     -0.422278    32A     -0.378507    33A     -0.315289

  @DF-RHF Final Energy:  -399.76493599597092

   => Energetics <=

    Nuclear Repulsion Energy =            435.6535510301768568
    One-Electron Energy =               -1406.7049540546345270
    Two-Electron Energy =                 571.2864670284866406
    Total Energy =                       -399.7649359959709727
  Basis Set: (AUG-CC-PVTZ AUX)
    Blend: AUG-CC-PVTZ-RI
    Molecular point group: c1

    Geometry (in Angstrom), charge = 0, multiplicity = 1:

       Center              X                  Y                   Z               Mass
    ------------   -----------------  -----------------  -----------------  -----------------
         O            1.727540625682     0.398550447054     0.000008457618    15.994914619570
         N            0.183491625682    -1.336503552946     0.000005457618    14.003074004430
         C           -0.544132374318     0.986035447054    -0.000000542382    12.000000000000
         C            0.435488625682    -0.030988552946     0.000005457618    12.000000000000
         C           -1.859402574318     0.537435447054    -0.000003442382    12.000000000000
         C           -0.135147374318     2.429291447054    -0.000001542382    12.000000000000
         C           -2.166314374318    -0.808060552946    -0.000003542382    12.000000000000
         C           -1.114429374318    -1.712420552946     0.000000457618    12.000000000000
         C            2.722990625682    -0.635124552946    -0.000009542382    12.000000000000
         H           -2.666723374318     1.299261447054    -0.000008542382     1.007825032230
         H           -1.014628374318     3.078632447054    -0.000018542382     1.007825032230
         H            0.473628625682     2.659898447054     0.879101457618     1.007825032230
         H            0.473657625682     2.659889447054    -0.879086542382     1.007825032230
         H           -3.194117374318    -1.158592552946    -0.000005542382     1.007825032230
         H           -1.292688374318    -2.785996552946     0.000000457618     1.007825032230
         H            2.631675625682    -1.263840552946    -0.888113542382     1.007825032230
         H            2.631723625682    -1.263825552946     0.888110457618     1.007825032230
         H            3.674089625682    -0.103495552946    -0.000038542382     1.007825032230

  Basis Set: AUG-CC-PVTZ
    Blend: AUG-CC-PVTZ
  Basis Set: (AUG-CC-PVTZ AUX)
    Blend: AUG-CC-PVTZ-JKFIT
	 Reference Energy          =    -399.7649359959709159 [Eh]
	 Singles Energy            =      -0.0000000000000000 [Eh]
	 Same-Spin Energy          =      -0.4238821629358952 [Eh]
	 Opposite-Spin Energy      =      -1.3366273791584298 [Eh]
	 Correlation Energy        =      -1.7605095420943249 [Eh]
	 Total Energy              =    -401.5254455380652416 [Eh]

	 ================> DF-SCS-MP2 Energies <==================
	-----------------------------------------------------------
	 SCS Same-Spin Scale       =       0.3333333333333333 [-]
	 SCS Opposite-Spin Scale   =       1.2000000000000000 [-]
	 SCS Same-Spin Energy      =      -0.1412940543119651 [Eh]
	 SCS Opposite-Spin Energy  =      -1.6039528549901156 [Eh]
	 SCS Correlation Energy    =      -1.7452469093020806 [Eh]
	 SCS Total Energy          =    -401.5101829052729840 [Eh]
	-----------------------------------------------------------

  Dipole Moment: [D]
     X:    -0.5267      Y:     0.6384      Z:    -0.0000     Total:     0.8276

*** Psi4 exiting successfully. Buy a developer a beer!
