                               Psi4 1.4a3.dev225

  ==> Input File <==

--------------------------------------------------------------------------
#psi4
#
memory 32 gb

molecule  {
0 1
  O        1.7334607     0.3901606     0.0000084
  N        0.1712200    -1.3621090     0.0000060
  C       -0.5564040     0.9604300     0.0000000
  C        0.4232170    -0.0565940     0.0000060
  C       -1.8793030     0.5348530    -0.0000030
  C       -0.1474190     2.4036860    -0.0000010
  C       -2.1785860    -0.8336660    -0.0000030
  C       -1.1267010    -1.7380260     0.0000010
  C        2.7107190    -0.6607300    -0.0000090
  H       -2.6789950     1.2736560    -0.0000080
  H       -1.0269000     3.0530270    -0.0000180
  H        0.4613570     2.6342930     0.8791020
  H        0.4613860     2.6342840    -0.8790860
  H       -3.2063890    -1.1841980    -0.0000050
  H       -1.3049600    -2.8116020     0.0000010
  H        2.6194040    -1.2894460    -0.8881130
  H        2.6194520    -1.2894310     0.8881110
  H        3.6618180    -0.1291010    -0.0000380
units angstrom
no_reorient  #important for SAPT in psi4, default
symmetry c1  #important for SAPT in psi4, default
}

set PROPERTIES_ORIGIN ["COM"]
properties('MP2/aug-cc-pvtz', properties = ['dipole'])
--------------------------------------------------------------------------

    Molecular point group: c1
  Charge       = 0
  Multiplicity = 1
  Basis Set: AUG-CC-PVTZ
    Blend: AUG-CC-PVTZ
  Basis Set: (AUG-CC-PVTZ AUX)
    Blend: AUG-CC-PVTZ-JKFIT

    Orbital Energies [Eh]
    ---------------------

    Doubly Occupied:

       1A    -20.586504     2A    -15.561524     3A    -11.333501
       4A    -11.275007     5A    -11.271960     6A    -11.255215
       7A    -11.243457     8A    -11.232168     9A    -11.224668
      10A     -1.406683    11A     -1.246099    12A     -1.100504
      13A     -1.040767    14A     -0.952769    15A     -0.934923
      16A     -0.835883    17A     -0.826160    18A     -0.717881
      19A     -0.687423    20A     -0.650108    21A     -0.647903
      22A     -0.603513    23A     -0.589134    24A     -0.576868
      25A     -0.559841    26A     -0.548744    27A     -0.529173
      28A     -0.528140    29A     -0.500551    30A     -0.474966
      31A     -0.424151    32A     -0.377828    33A     -0.317614

  @DF-RHF Final Energy:  -399.76366379298821

   => Energetics <=

    Nuclear Repulsion Energy =            434.6935773455094818
    One-Electron Energy =               -1404.7912262187157921
    Two-Electron Energy =                 570.3339850802180990
    Total Energy =                       -399.7636637929881545
  Basis Set: (AUG-CC-PVTZ AUX)
    Blend: AUG-CC-PVTZ-RI
    Molecular point group: c1

    Geometry (in Angstrom), charge = 0, multiplicity = 1:

       Center              X                  Y                   Z               Mass
    ------------   -----------------  -----------------  -----------------  -----------------
         O            1.744111852305     0.411283677983     0.000007945349    15.994914619570
         N            0.181871152305    -1.340985922017     0.000005545349    14.003074004430
         C           -0.545752847695     0.981553077983    -0.000000454651    12.000000000000
         C            0.433868152305    -0.035470922017     0.000005545349    12.000000000000
         C           -1.868651847695     0.555976077983    -0.000003454651    12.000000000000
         C           -0.136767847695     2.424809077983    -0.000001454651    12.000000000000
         C           -2.167934847695    -0.812542922017    -0.000003454651    12.000000000000
         C           -1.116049847695    -1.716902922017     0.000000545349    12.000000000000
         C            2.721370152305    -0.639606922017    -0.000009454651    12.000000000000
         H           -2.668343847695     1.294779077983    -0.000008454651     1.007825032230
         H           -1.016248847695     3.074150077983    -0.000018454651     1.007825032230
         H            0.472008152305     2.655416077983     0.879101545349     1.007825032230
         H            0.472037152305     2.655407077983    -0.879086454651     1.007825032230
         H           -3.195737847695    -1.163074922017    -0.000005454651     1.007825032230
         H           -1.294308847695    -2.790478922017     0.000000545349     1.007825032230
         H            2.630055152305    -1.268322922017    -0.888113454651     1.007825032230
         H            2.630103152305    -1.268307922017     0.888110545349     1.007825032230
         H            3.672469152305    -0.107977922017    -0.000038454651     1.007825032230

  Basis Set: AUG-CC-PVTZ
    Blend: AUG-CC-PVTZ
  Basis Set: (AUG-CC-PVTZ AUX)
    Blend: AUG-CC-PVTZ-JKFIT
	 Reference Energy          =    -399.7636637929882113 [Eh]
	 Singles Energy            =      -0.0000000000000000 [Eh]
	 Same-Spin Energy          =      -0.4240293630734604 [Eh]
	 Opposite-Spin Energy      =      -1.3374873900519570 [Eh]
	 Correlation Energy        =      -1.7615167531254174 [Eh]
	 Total Energy              =    -401.5251805461136314 [Eh]

	 ================> DF-SCS-MP2 Energies <==================
	-----------------------------------------------------------
	 SCS Same-Spin Scale       =       0.3333333333333333 [-]
	 SCS Opposite-Spin Scale   =       1.2000000000000000 [-]
	 SCS Same-Spin Energy      =      -0.1413431210244868 [Eh]
	 SCS Opposite-Spin Energy  =      -1.6049848680623484 [Eh]
	 SCS Correlation Energy    =      -1.7463279890868353 [Eh]
	 SCS Total Energy          =    -401.5099917820750193 [Eh]
	-----------------------------------------------------------

  Dipole Moment: [D]
     X:    -0.6904      Y:     0.6180      Z:    -0.0000     Total:     0.9266

*** Psi4 exiting successfully. Buy a developer a beer!
