                               Psi4 1.4a3.dev225

  ==> Input File <==

--------------------------------------------------------------------------
#psi4
#
memory 32 gb

molecule  {
0 1
  O        1.7152690     0.3729450     0.0000090
  N        0.1712200    -1.3621090     0.0000060
  C       -0.5564040     0.9604300     0.0000000
  C        0.4232170    -0.0565940     0.0000060
  C       -1.8793030     0.5348530    -0.0000030
  C       -0.1474190     2.4036860    -0.0000010
  C       -2.1785860    -0.8336660    -0.0000030
  C       -1.0306486    -1.7102063     0.0000014
  C        2.7107190    -0.6607300    -0.0000090
  H       -2.6789950     1.2736560    -0.0000080
  H       -1.0269000     3.0530270    -0.0000180
  H        0.4613570     2.6342930     0.8791020
  H        0.4613860     2.6342840    -0.8790860
  H       -3.2063890    -1.1841980    -0.0000050
  H       -1.3049600    -2.8116020     0.0000010
  H        2.6194040    -1.2894460    -0.8881130
  H        2.6194520    -1.2894310     0.8881110
  H        3.6618180    -0.1291010    -0.0000380
units angstrom
no_reorient  #important for SAPT in psi4, default
symmetry c1  #important for SAPT in psi4, default
}

set PROPERTIES_ORIGIN ["COM"]
properties('MP2/aug-cc-pvtz', properties = ['dipole'])
--------------------------------------------------------------------------

    Molecular point group: c1
  Charge       = 0
  Multiplicity = 1
  Basis Set: AUG-CC-PVTZ
    Blend: AUG-CC-PVTZ
  Basis Set: (AUG-CC-PVTZ AUX)
    Blend: AUG-CC-PVTZ-JKFIT

    Orbital Energies [Eh]
    ---------------------

    Doubly Occupied:

       1A    -20.587554     2A    -15.557453     3A    -11.333184
       4A    -11.276818     5A    -11.275725     6A    -11.252753
       7A    -11.238071     8A    -11.232311     9A    -11.223029
      10A     -1.417286    11A     -1.277091    12A     -1.104087
      13A     -1.031264    14A     -0.958626    15A     -0.931334
      16A     -0.836135    17A     -0.830872    18A     -0.719539
      19A     -0.693382    20A     -0.656204    21A     -0.646324
      22A     -0.606840    23A     -0.580924    24A     -0.577382
      25A     -0.559528    26A     -0.550347    27A     -0.538842
      28A     -0.527785    29A     -0.505082    30A     -0.480591
      31A     -0.414913    32A     -0.386768    33A     -0.305556

  @DF-RHF Final Energy:  -399.75429138866548

   => Energetics <=

    Nuclear Repulsion Energy =            436.7682707879199597
    One-Electron Energy =               -1408.8179260759684439
    Two-Electron Energy =                 572.2953638993830054
    Total Energy =                       -399.7542913886654787
  Basis Set: (AUG-CC-PVTZ AUX)
    Blend: AUG-CC-PVTZ-RI
    Molecular point group: c1

    Geometry (in Angstrom), charge = 0, multiplicity = 1:

       Center              X                  Y                   Z               Mass
    ------------   -----------------  -----------------  -----------------  -----------------
         O            1.718918728591     0.393592941057     0.000008428366    15.994914619570
         N            0.174869728591    -1.341461058943     0.000005428366    14.003074004430
         C           -0.552754271409     0.981077941057    -0.000000571634    12.000000000000
         C            0.426866728591    -0.035946058943     0.000005428366    12.000000000000
         C           -1.875653271409     0.555500941057    -0.000003571634    12.000000000000
         C           -0.143769271409     2.424333941057    -0.000001571634    12.000000000000
         C           -2.174936271409    -0.813018058943    -0.000003571634    12.000000000000
         C           -1.026998871409    -1.689558358943     0.000000828366    12.000000000000
         C            2.714368728591    -0.640082058943    -0.000009571634    12.000000000000
         H           -2.675345271409     1.294303941057    -0.000008571634     1.007825032230
         H           -1.023250271409     3.073674941057    -0.000018571634     1.007825032230
         H            0.465006728591     2.654940941057     0.879101428366     1.007825032230
         H            0.465035728591     2.654931941057    -0.879086571634     1.007825032230
         H           -3.202739271409    -1.163550058943    -0.000005571634     1.007825032230
         H           -1.301310271409    -2.790954058943     0.000000428366     1.007825032230
         H            2.623053728591    -1.268798058943    -0.888113571634     1.007825032230
         H            2.623101728591    -1.268783058943     0.888110428366     1.007825032230
         H            3.665467728591    -0.108453058943    -0.000038571634     1.007825032230

  Basis Set: AUG-CC-PVTZ
    Blend: AUG-CC-PVTZ
  Basis Set: (AUG-CC-PVTZ AUX)
    Blend: AUG-CC-PVTZ-JKFIT
	 Reference Energy          =    -399.7542913886654787 [Eh]
	 Singles Energy            =      -0.0000000000000000 [Eh]
	 Same-Spin Energy          =      -0.4236137720588762 [Eh]
	 Opposite-Spin Energy      =      -1.3355879447049934 [Eh]
	 Correlation Energy        =      -1.7592017167638696 [Eh]
	 Total Energy              =    -401.5134931054293475 [Eh]

	 ================> DF-SCS-MP2 Energies <==================
	-----------------------------------------------------------
	 SCS Same-Spin Scale       =       0.3333333333333333 [-]
	 SCS Opposite-Spin Scale   =       1.2000000000000000 [-]
	 SCS Same-Spin Energy      =      -0.1412045906862920 [Eh]
	 SCS Opposite-Spin Energy  =      -1.6027055336459921 [Eh]
	 SCS Correlation Energy    =      -1.7439101243322841 [Eh]
	 SCS Total Energy          =    -401.4982015129977526 [Eh]
	-----------------------------------------------------------

  Dipole Moment: [D]
     X:    -0.3758      Y:     0.6199      Z:    -0.0000     Total:     0.7249

*** Psi4 exiting successfully. Buy a developer a beer!
