                               Psi4 1.4a3.dev225

  ==> Input File <==

--------------------------------------------------------------------------
#psi4
#
memory 32 gb

molecule  {
0 1
  O        1.7152690     0.3729450     0.0000090
  N        0.1712200    -1.3621090     0.0000060
  C       -0.5564040     0.9604300     0.0000000
  C        0.4232170    -0.0565940     0.0000060
  C       -1.8793030     0.5348530    -0.0000030
  C       -0.1474190     2.4036860    -0.0000010
  C       -2.1785860    -0.8336660    -0.0000030
  C       -0.9345962    -1.6823867     0.0000017
  C        2.7107190    -0.6607300    -0.0000090
  H       -2.6789950     1.2736560    -0.0000080
  H       -1.0269000     3.0530270    -0.0000180
  H        0.4613570     2.6342930     0.8791020
  H        0.4613860     2.6342840    -0.8790860
  H       -3.2063890    -1.1841980    -0.0000050
  H       -1.3049600    -2.8116020     0.0000010
  H        2.6194040    -1.2894460    -0.8881130
  H        2.6194520    -1.2894310     0.8881110
  H        3.6618180    -0.1291010    -0.0000380
units angstrom
no_reorient  #important for SAPT in psi4, default
symmetry c1  #important for SAPT in psi4, default
}

set PROPERTIES_ORIGIN ["COM"]
properties('MP2/aug-cc-pvtz', properties = ['dipole'])
--------------------------------------------------------------------------

    Molecular point group: c1
  Charge       = 0
  Multiplicity = 1
  Basis Set: AUG-CC-PVTZ
    Blend: AUG-CC-PVTZ
  Basis Set: (AUG-CC-PVTZ AUX)
    Blend: AUG-CC-PVTZ-JKFIT

    Orbital Energies [Eh]
    ---------------------

    Doubly Occupied:

       1A    -20.588545     2A    -15.554188     3A    -11.334701
       4A    -11.277922     5A    -11.277589     6A    -11.250700
       7A    -11.235617     8A    -11.234146     9A    -11.222301
      10A     -1.420740    11A     -1.319140    12A     -1.108158
      13A     -1.023398    14A     -0.962762    15A     -0.929533
      16A     -0.845738    17A     -0.825449    18A     -0.722300
      19A     -0.694949    20A     -0.660178    21A     -0.644902
      22A     -0.608753    23A     -0.581784    24A     -0.577897
      25A     -0.564315    26A     -0.552547    27A     -0.548190
      28A     -0.528224    29A     -0.507911    30A     -0.486293
      31A     -0.396799    32A     -0.396662    33A     -0.297484

  @DF-RHF Final Energy:  -399.70770211570692

   => Energetics <=

    Nuclear Repulsion Energy =            438.4689665728157593
    One-Electron Energy =               -1411.9937062066364888
    Two-Electron Energy =                 573.8170375181138070
    Total Energy =                       -399.7077021157068657
  Basis Set: (AUG-CC-PVTZ AUX)
    Blend: AUG-CC-PVTZ-RI
    Molecular point group: c1

    Geometry (in Angstrom), charge = 0, multiplicity = 1:

       Center              X                  Y                   Z               Mass
    ------------   -----------------  -----------------  -----------------  -----------------
         O            1.709552972071     0.390880342516     0.000008399114    15.994914619570
         N            0.165503972071    -1.344173657484     0.000005399114    14.003074004430
         C           -0.562120027929     0.978365342516    -0.000000600886    12.000000000000
         C            0.417500972071    -0.038658657484     0.000005399114    12.000000000000
         C           -1.885019027929     0.552788342516    -0.000003600886    12.000000000000
         C           -0.153135027929     2.421621342516    -0.000001600886    12.000000000000
         C           -2.184302027929    -0.815730657484    -0.000003600886    12.000000000000
         C           -0.940312227929    -1.664451357484     0.000001099114    12.000000000000
         C            2.705002972071    -0.642794657484    -0.000009600886    12.000000000000
         H           -2.684711027929     1.291591342516    -0.000008600886     1.007825032230
         H           -1.032616027929     3.070962342516    -0.000018600886     1.007825032230
         H            0.455640972071     2.652228342516     0.879101399114     1.007825032230
         H            0.455669972071     2.652219342516    -0.879086600886     1.007825032230
         H           -3.212105027929    -1.166262657484    -0.000005600886     1.007825032230
         H           -1.310676027929    -2.793666657484     0.000000399114     1.007825032230
         H            2.613687972071    -1.271510657484    -0.888113600886     1.007825032230
         H            2.613735972071    -1.271495657484     0.888110399114     1.007825032230
         H            3.656101972071    -0.111165657484    -0.000038600886     1.007825032230

  Basis Set: AUG-CC-PVTZ
    Blend: AUG-CC-PVTZ
  Basis Set: (AUG-CC-PVTZ AUX)
    Blend: AUG-CC-PVTZ-JKFIT
	 Reference Energy          =    -399.7077021157069225 [Eh]
	 Singles Energy            =      -0.0000000000000000 [Eh]
	 Same-Spin Energy          =      -0.4229594318141855 [Eh]
	 Opposite-Spin Energy      =      -1.3354406303055431 [Eh]
	 Correlation Energy        =      -1.7584000621197287 [Eh]
	 Total Energy              =    -401.4661021778266559 [Eh]

	 ================> DF-SCS-MP2 Energies <==================
	-----------------------------------------------------------
	 SCS Same-Spin Scale       =       0.3333333333333333 [-]
	 SCS Opposite-Spin Scale   =       1.2000000000000000 [-]
	 SCS Same-Spin Energy      =      -0.1409864772713952 [Eh]
	 SCS Opposite-Spin Energy  =      -1.6025287563666517 [Eh]
	 SCS Correlation Energy    =      -1.7435152336380468 [Eh]
	 SCS Total Energy          =    -401.4512173493449723 [Eh]
	-----------------------------------------------------------

  Dipole Moment: [D]
     X:    -0.1473      Y:     0.6079      Z:    -0.0000     Total:     0.6255

*** Psi4 exiting successfully. Buy a developer a beer!
