                               Psi4 1.4a3.dev225

  ==> Input File <==

--------------------------------------------------------------------------
#psi4
#
memory 32 gb

molecule  {
0 1
  O        1.7152690     0.3729450     0.0000090
  N        0.1712200    -1.3621090     0.0000060
  C       -0.5564040     0.9604300     0.0000000
  C        0.4232170    -0.0565940     0.0000060
  C       -1.8793030     0.5348530    -0.0000030
  C       -0.2019472     2.2112628    -0.0000009
  C       -2.1785860    -0.8336660    -0.0000030
  C       -1.1267010    -1.7380260     0.0000010
  C        2.7107190    -0.6607300    -0.0000090
  H       -2.6789950     1.2736560    -0.0000080
  H       -1.0269000     3.0530270    -0.0000180
  H        0.4613570     2.6342930     0.8791020
  H        0.4613860     2.6342840    -0.8790860
  H       -3.2063890    -1.1841980    -0.0000050
  H       -1.3049600    -2.8116020     0.0000010
  H        2.6194040    -1.2894460    -0.8881130
  H        2.6194520    -1.2894310     0.8881110
  H        3.6618180    -0.1291010    -0.0000380
units angstrom
no_reorient  #important for SAPT in psi4, default
symmetry c1  #important for SAPT in psi4, default
}

set PROPERTIES_ORIGIN ["COM"]
properties('MP2/aug-cc-pvtz', properties = ['dipole'])
--------------------------------------------------------------------------

    Molecular point group: c1
  Charge       = 0
  Multiplicity = 1
  Basis Set: AUG-CC-PVTZ
    Blend: AUG-CC-PVTZ
  Basis Set: (AUG-CC-PVTZ AUX)
    Blend: AUG-CC-PVTZ-JKFIT

    Orbital Energies [Eh]
    ---------------------

    Doubly Occupied:

       1A    -20.588943     2A    -15.560371     3A    -11.333807
       4A    -11.275146     5A    -11.275071     6A    -11.255184
       7A    -11.233566     8A    -11.231323     9A    -11.230594
      10A     -1.417571    11A     -1.246679    12A     -1.127784
      13A     -1.049186    14A     -0.960215    15A     -0.934779
      16A     -0.835811    17A     -0.820588    18A     -0.721954
      19A     -0.695097    20A     -0.663900    21A     -0.655762
      22A     -0.625218    23A     -0.596100    24A     -0.572096
      25A     -0.566202    26A     -0.547448    27A     -0.521320
      28A     -0.512486    29A     -0.481842    30A     -0.477695
      31A     -0.423636    32A     -0.372562    33A     -0.309964

  @DF-RHF Final Energy:  -399.71263740623544

   => Energetics <=

    Nuclear Repulsion Energy =            439.1417611904322484
    One-Electron Energy =               -1413.4689983034809302
    Two-Electron Energy =                 574.6145997068132374
    Total Energy =                       -399.7126374062354444
  Basis Set: (AUG-CC-PVTZ AUX)
    Blend: AUG-CC-PVTZ-RI
    Molecular point group: c1

    Geometry (in Angstrom), charge = 0, multiplicity = 1:

       Center              X                  Y                   Z               Mass
    ------------   -----------------  -----------------  -----------------  -----------------
         O            1.733601352202     0.415068108534     0.000008457618    15.994914619570
         N            0.189552352202    -1.319985891466     0.000005457618    14.003074004430
         C           -0.538071647798     1.002553108534    -0.000000542382    12.000000000000
         C            0.441549352202    -0.014470891466     0.000005457618    12.000000000000
         C           -1.860970647798     0.576976108534    -0.000003542382    12.000000000000
         C           -0.183614847798     2.253385908534    -0.000001442382    12.000000000000
         C           -2.160253647798    -0.791542891466    -0.000003542382    12.000000000000
         C           -1.108368647798    -1.695902891466     0.000000457618    12.000000000000
         C            2.729051352202    -0.618606891466    -0.000009542382    12.000000000000
         H           -2.660662647798     1.315779108534    -0.000008542382     1.007825032230
         H           -1.008567647798     3.095150108534    -0.000018542382     1.007825032230
         H            0.479689352202     2.676416108534     0.879101457618     1.007825032230
         H            0.479718352202     2.676407108534    -0.879086542382     1.007825032230
         H           -3.188056647798    -1.142074891466    -0.000005542382     1.007825032230
         H           -1.286627647798    -2.769478891466     0.000000457618     1.007825032230
         H            2.637736352202    -1.247322891466    -0.888113542382     1.007825032230
         H            2.637784352202    -1.247307891466     0.888110457618     1.007825032230
         H            3.680150352202    -0.086977891466    -0.000038542382     1.007825032230

  Basis Set: AUG-CC-PVTZ
    Blend: AUG-CC-PVTZ
  Basis Set: (AUG-CC-PVTZ AUX)
    Blend: AUG-CC-PVTZ-JKFIT
	 Reference Energy          =    -399.7126374062354444 [Eh]
	 Singles Energy            =      -0.0000000000000000 [Eh]
	 Same-Spin Energy          =      -0.4275273545025045 [Eh]
	 Opposite-Spin Energy      =      -1.3412700093447771 [Eh]
	 Correlation Energy        =      -1.7687973638472816 [Eh]
	 Total Energy              =    -401.4814347700827284 [Eh]

	 ================> DF-SCS-MP2 Energies <==================
	-----------------------------------------------------------
	 SCS Same-Spin Scale       =       0.3333333333333333 [-]
	 SCS Opposite-Spin Scale   =       1.2000000000000000 [-]
	 SCS Same-Spin Energy      =      -0.1425091181675015 [Eh]
	 SCS Opposite-Spin Energy  =      -1.6095240112137326 [Eh]
	 SCS Correlation Energy    =      -1.7520331293812341 [Eh]
	 SCS Total Energy          =    -401.4646705356166763 [Eh]
	-----------------------------------------------------------

  Dipole Moment: [D]
     X:    -0.4528      Y:     0.6385      Z:    -0.0000     Total:     0.7828

*** Psi4 exiting successfully. Buy a developer a beer!
