                               Psi4 1.3.2 release

  ==> Input File <==

--------------------------------------------------------------------------
#psi4
#
memory 32 gb

molecule  {
0 1
  O        0.8462911    -0.4655657    -0.6663858
  O       -0.5076550    -0.8220740    -0.2452740
  O       -1.0728670     1.3987690    -0.0973370
  C        1.6031630    -0.2426310     0.5338170
  C        2.9657370     0.2196450     0.0595640
  C       -1.3789950     0.2279050    -0.0301100
  C       -2.7361800    -0.3473490     0.2635940
  H        1.1531750     0.4718980     1.2294250
  H        1.6470430    -1.2298650     1.0038120
  H        3.6380680     0.2976270     0.9176960
  H        3.3895360    -0.4934290    -0.6504970
  H        2.8952950     1.1995690    -0.4169390
  H       -3.2299570    -0.5922870    -0.6804890
  H       -2.6567000    -1.2579100     0.8585660
  H       -3.3255750     0.4009600     0.7925810
units angstrom
no_reorient  #important for SAPT in psi4, default
symmetry c1  #important for SAPT in psi4, default
}

set PROPERTIES_ORIGIN ["COM"]
properties('MP2/aug-cc-pvtz', properties = ['dipole'])
--------------------------------------------------------------------------

    Molecular point group: c1
  Charge       = 0
  Multiplicity = 1
  Basis Set: AUG-CC-PVTZ
    Blend: AUG-CC-PVTZ
  Basis Set: (AUG-CC-PVTZ AUX)
    Blend: AUG-CC-PVTZ-JKFIT

    Orbital Energies [Eh]
    ---------------------

    Doubly Occupied:

       1A    -20.653046     2A    -20.644184     3A    -20.556380
       4A    -11.395318     5A    -11.290214     6A    -11.253329
       7A    -11.227582     8A     -1.504177     9A     -1.393974
      10A     -1.269863    11A     -1.035503    12A     -1.005297
      13A     -0.855697    14A     -0.795856    15A     -0.706729
      16A     -0.694262    17A     -0.673894    18A     -0.646317
      19A     -0.614355    20A     -0.597193    21A     -0.585352
      22A     -0.549181    23A     -0.539816    24A     -0.535403
      25A     -0.510711    26A     -0.476322    27A     -0.472944
      28A     -0.450659

  @DF-RHF Final Energy:  -380.76619445717836

   => Energetics <=

    Nuclear Repulsion Energy =            314.9913391808734104
    One-Electron Energy =               -1145.6479546833156746
    Two-Electron Energy =                 449.8904210452639063
    Total Energy =                       -380.7661944571783579
  Basis Set: (AUG-CC-PVTZ AUX)
    Blend: AUG-CC-PVTZ-RI
    Molecular point group: c1

    Geometry (in Angstrom), charge = 0, multiplicity = 1:

       Center              X                  Y                   Z               Mass
    ------------   -----------------  -----------------  -----------------  -----------------
         O            0.872826162396    -0.454565801081    -0.636222763810    15.994914619570
         O           -0.481119937604    -0.811074101081    -0.215110963810    15.994914619570
         O           -1.046331937604     1.409768898919    -0.067173963810    15.994914619570
         C            1.629698062396    -0.231631101081     0.563980036190    12.000000000000
         C            2.992272062396     0.230644898919     0.089727036190    12.000000000000
         C           -1.352459937604     0.238904898919     0.000053036190    12.000000000000
         C           -2.709644937604    -0.336349101081     0.293757036190    12.000000000000
         H            1.179710062396     0.482897898919     1.259588036190     1.007825032230
         H            1.673578062396    -1.218865101081     1.033975036190     1.007825032230
         H            3.664603062396     0.308626898919     0.947859036190     1.007825032230
         H            3.416071062396    -0.482429101081    -0.620333963810     1.007825032230
         H            2.921830062396     1.210568898919    -0.386775963810     1.007825032230
         H           -3.203421937604    -0.581287101081    -0.650325963810     1.007825032230
         H           -2.630164937604    -1.246910101081     0.888729036190     1.007825032230
         H           -3.299039937604     0.411959898919     0.822744036190     1.007825032230

  Basis Set: AUG-CC-PVTZ
    Blend: AUG-CC-PVTZ
  Basis Set: (AUG-CC-PVTZ AUX)
    Blend: AUG-CC-PVTZ-JKFIT
	 Reference Energy          =    -380.7661944571783579 [Eh]
	 Singles Energy            =      -0.0000000000000000 [Eh]
	 Same-Spin Energy          =      -0.3644674564836143 [Eh]
	 Opposite-Spin Energy      =      -1.1715913040595609 [Eh]
	 Correlation Energy        =      -1.5360587605431753 [Eh]
	 Total Energy              =    -382.3022532177215567 [Eh]

	 ================> DF-SCS-MP2 Energies <==================
	-----------------------------------------------------------
	 SCS Same-Spin Scale       =       0.3333333333333333 [-]
	 SCS Opposite-Spin Scale   =       1.2000000000000000 [-]
	 SCS Same-Spin Energy      =      -0.1214891521612048 [Eh]
	 SCS Opposite-Spin Energy  =      -1.4059095648714730 [Eh]
	 SCS Correlation Energy    =      -1.5273987170326777 [Eh]
	 SCS Total Energy          =    -382.2935931742110256 [Eh]
	-----------------------------------------------------------

  Dipole Moment: [D]
     X:    -0.3106      Y:    -1.3354      Z:     1.6949     Total:     2.1800

*** Psi4 exiting successfully. Buy a developer a beer!
