                               Psi4 1.3.2 release

  ==> Input File <==

--------------------------------------------------------------------------
#psi4
#
memory 32 gb

molecule  {
0 1
  O        0.8013680    -0.3194430    -0.6593080
  O       -0.5076550    -0.8220740    -0.2452740
  O       -1.0728670     1.3987690    -0.0973370
  C        1.6031630    -0.2426310     0.5338170
  C        2.9657370     0.2196450     0.0595640
  C       -1.3159138     0.1518911    -0.0456869
  C       -2.7361800    -0.3473490     0.2635940
  H        1.1531750     0.4718980     1.2294250
  H        1.6470430    -1.2298650     1.0038120
  H        3.6380680     0.2976270     0.9176960
  H        3.3895360    -0.4934290    -0.6504970
  H        2.8952950     1.1995690    -0.4169390
  H       -3.2299570    -0.5922870    -0.6804890
  H       -2.6567000    -1.2579100     0.8585660
  H       -3.3255750     0.4009600     0.7925810
units angstrom
no_reorient  #important for SAPT in psi4, default
symmetry c1  #important for SAPT in psi4, default
}

set PROPERTIES_ORIGIN ["COM"]
properties('MP2/aug-cc-pvtz', properties = ['dipole'])
--------------------------------------------------------------------------

    Molecular point group: c1
  Charge       = 0
  Multiplicity = 1
  Basis Set: AUG-CC-PVTZ
    Blend: AUG-CC-PVTZ
  Basis Set: (AUG-CC-PVTZ AUX)
    Blend: AUG-CC-PVTZ-JKFIT

    Orbital Energies [Eh]
    ---------------------

    Doubly Occupied:

       1A    -20.678639     2A    -20.657721     3A    -20.535040
       4A    -11.391941     5A    -11.298763     6A    -11.248361
       7A    -11.233497     8A     -1.545725     9A     -1.351926
      10A     -1.295525    11A     -1.036344    12A     -0.998912
      13A     -0.864814    14A     -0.819247    15A     -0.719640
      16A     -0.697444    17A     -0.683994    18A     -0.650427
      19A     -0.610871    20A     -0.586914    21A     -0.575073
      22A     -0.553925    23A     -0.545428    24A     -0.539621
      25A     -0.518806    26A     -0.484086    27A     -0.454903
      28A     -0.438646

  @DF-RHF Final Energy:  -380.75696150184751

   => Energetics <=

    Nuclear Repulsion Energy =            316.8130131534226166
    One-Electron Energy =               -1149.1074786251419937
    Two-Electron Energy =                 451.5375039698718638
    Total Energy =                       -380.7569615018475133
  Basis Set: (AUG-CC-PVTZ AUX)
    Blend: AUG-CC-PVTZ-RI
    Molecular point group: c1

    Geometry (in Angstrom), charge = 0, multiplicity = 1:

       Center              X                  Y                   Z               Mass
    ------------   -----------------  -----------------  -----------------  -----------------
         O            0.827533680060    -0.322139301811    -0.628436497929    15.994914619570
         O           -0.481489319940    -0.824770301811    -0.214402497929    15.994914619570
         O           -1.046701319940     1.396072698189    -0.066465497929    15.994914619570
         C            1.629328680060    -0.245327301811     0.564688502071    12.000000000000
         C            2.991902680060     0.216948698189     0.090435502071    12.000000000000
         C           -1.289748119940     0.149194798189    -0.014815397929    12.000000000000
         C           -2.710014319940    -0.350045301811     0.294465502071    12.000000000000
         H            1.179340680060     0.469201698189     1.260296502071     1.007825032230
         H            1.673208680060    -1.232561301811     1.034683502071     1.007825032230
         H            3.664233680060     0.294930698189     0.948567502071     1.007825032230
         H            3.415701680060    -0.496125301811    -0.619625497929     1.007825032230
         H            2.921460680060     1.196872698189    -0.386067497929     1.007825032230
         H           -3.203791319940    -0.594983301811    -0.649617497929     1.007825032230
         H           -2.630534319940    -1.260606301811     0.889437502071     1.007825032230
         H           -3.299409319940     0.398263698189     0.823452502071     1.007825032230

  Basis Set: AUG-CC-PVTZ
    Blend: AUG-CC-PVTZ
  Basis Set: (AUG-CC-PVTZ AUX)
    Blend: AUG-CC-PVTZ-JKFIT
	 Reference Energy          =    -380.7569615018475133 [Eh]
	 Singles Energy            =      -0.0000000000000000 [Eh]
	 Same-Spin Energy          =      -0.3648905333046795 [Eh]
	 Opposite-Spin Energy      =      -1.1718602782865708 [Eh]
	 Correlation Energy        =      -1.5367508115912503 [Eh]
	 Total Energy              =    -382.2937123134387889 [Eh]

	 ================> DF-SCS-MP2 Energies <==================
	-----------------------------------------------------------
	 SCS Same-Spin Scale       =       0.3333333333333333 [-]
	 SCS Opposite-Spin Scale   =       1.2000000000000000 [-]
	 SCS Same-Spin Energy      =      -0.1216301777682265 [Eh]
	 SCS Opposite-Spin Energy  =      -1.4062323339438849 [Eh]
	 SCS Correlation Energy    =      -1.5278625117121114 [Eh]
	 SCS Total Energy          =    -382.2848240135596143 [Eh]
	-----------------------------------------------------------

  Dipole Moment: [D]
     X:     0.4228      Y:    -2.0738      Z:     1.6040     Total:     2.6556

*** Psi4 exiting successfully. Buy a developer a beer!
