                               Psi4 1.3.2 release

  ==> Input File <==

--------------------------------------------------------------------------
#psi4
#
memory 32 gb

molecule  {
0 1
  O        0.8013680    -0.3194430    -0.6593080
  O       -0.5076550    -0.8220740    -0.2452740
  O       -1.0928884     1.4040606    -0.0930172
  C        1.6031630    -0.2426310     0.5338170
  C        2.9657370     0.2196450     0.0595640
  C       -1.3789950     0.2279050    -0.0301100
  C       -2.7361800    -0.3473490     0.2635940
  H        1.1531750     0.4718980     1.2294250
  H        1.6470430    -1.2298650     1.0038120
  H        3.6380680     0.2976270     0.9176960
  H        3.3895360    -0.4934290    -0.6504970
  H        2.8952950     1.1995690    -0.4169390
  H       -3.2299570    -0.5922870    -0.6804890
  H       -2.6567000    -1.2579100     0.8585660
  H       -3.3255750     0.4009600     0.7925810
units angstrom
no_reorient  #important for SAPT in psi4, default
symmetry c1  #important for SAPT in psi4, default
}

set PROPERTIES_ORIGIN ["COM"]
properties('MP2/aug-cc-pvtz', properties = ['dipole'])
--------------------------------------------------------------------------

    Molecular point group: c1
  Charge       = 0
  Multiplicity = 1
  Basis Set: AUG-CC-PVTZ
    Blend: AUG-CC-PVTZ
  Basis Set: (AUG-CC-PVTZ AUX)
    Blend: AUG-CC-PVTZ-JKFIT

    Orbital Energies [Eh]
    ---------------------

    Doubly Occupied:

       1A    -20.658071     2A    -20.641277     3A    -20.555613
       4A    -11.393295     5A    -11.290742     6A    -11.250807
       7A    -11.227726     8A     -1.507973     9A     -1.391661
      10A     -1.268934    11A     -1.034323    12A     -1.004118
      13A     -0.854546    14A     -0.797371    15A     -0.707312
      16A     -0.694089    17A     -0.676026    18A     -0.644425
      19A     -0.615224    20A     -0.598670    21A     -0.582645
      22A     -0.548299    23A     -0.536134    24A     -0.533187
      25A     -0.513136    26A     -0.482088    27A     -0.468779
      28A     -0.452401

  @DF-RHF Final Energy:  -380.76913911698227

   => Energetics <=

    Nuclear Repulsion Energy =            315.8406881716201156
    One-Electron Energy =               -1147.3619111235198034
    Two-Electron Energy =                 450.7520838349174710
    Total Energy =                       -380.7691391169822737
  Basis Set: (AUG-CC-PVTZ AUX)
    Blend: AUG-CC-PVTZ-RI
    Molecular point group: c1

    Geometry (in Angstrom), charge = 0, multiplicity = 1:

       Center              X                  Y                   Z               Mass
    ------------   -----------------  -----------------  -----------------  -----------------
         O            0.837886803368    -0.331719608725    -0.630897085792    15.994914619570
         O           -0.471136196632    -0.834350608725    -0.216863085792    15.994914619570
         O           -1.056369596632     1.391783991275    -0.064606285792    15.994914619570
         C            1.639681803368    -0.254907608725     0.562227914208    12.000000000000
         C            3.002255803368     0.207368391275     0.087974914208    12.000000000000
         C           -1.342476196632     0.215628391275    -0.001699085792    12.000000000000
         C           -2.699661196632    -0.359625608725     0.292004914208    12.000000000000
         H            1.189693803368     0.459621391275     1.257835914208     1.007825032230
         H            1.683561803368    -1.242141608725     1.032222914208     1.007825032230
         H            3.674586803368     0.285350391275     0.946106914208     1.007825032230
         H            3.426054803368    -0.505705608725    -0.622086085792     1.007825032230
         H            2.931813803368     1.187292391275    -0.388528085792     1.007825032230
         H           -3.193438196632    -0.604563608725    -0.652078085792     1.007825032230
         H           -2.620181196632    -1.270186608725     0.886976914208     1.007825032230
         H           -3.289056196632     0.388683391275     0.820991914208     1.007825032230

  Basis Set: AUG-CC-PVTZ
    Blend: AUG-CC-PVTZ
  Basis Set: (AUG-CC-PVTZ AUX)
    Blend: AUG-CC-PVTZ-JKFIT
	 Reference Energy          =    -380.7691391169822737 [Eh]
	 Singles Energy            =      -0.0000000000000000 [Eh]
	 Same-Spin Energy          =      -0.3646804128085046 [Eh]
	 Opposite-Spin Energy      =      -1.1720651829353428 [Eh]
	 Correlation Energy        =      -1.5367455957438474 [Eh]
	 Total Energy              =    -382.3058847127261402 [Eh]

	 ================> DF-SCS-MP2 Energies <==================
	-----------------------------------------------------------
	 SCS Same-Spin Scale       =       0.3333333333333333 [-]
	 SCS Opposite-Spin Scale   =       1.2000000000000000 [-]
	 SCS Same-Spin Energy      =      -0.1215601376028349 [Eh]
	 SCS Opposite-Spin Energy  =      -1.4064782195224113 [Eh]
	 SCS Correlation Energy    =      -1.5280383571252460 [Eh]
	 SCS Total Energy          =    -382.2971774741075137 [Eh]
	-----------------------------------------------------------

  Dipole Moment: [D]
     X:    -0.1759      Y:    -1.5150      Z:     1.6705     Total:     2.2620

*** Psi4 exiting successfully. Buy a developer a beer!
