                               Psi4 1.3.2 release

  ==> Input File <==

--------------------------------------------------------------------------
#psi4
#
memory 32 gb

molecule  {
0 1
  O        0.8013680    -0.3194430    -0.6593080
  O       -0.6199123    -0.9101006    -0.2217388
  O       -1.0728670     1.3987690    -0.0973370
  C        1.6031630    -0.2426310     0.5338170
  C        2.9657370     0.2196450     0.0595640
  C       -1.3789950     0.2279050    -0.0301100
  C       -2.7361800    -0.3473490     0.2635940
  H        1.1531750     0.4718980     1.2294250
  H        1.6470430    -1.2298650     1.0038120
  H        3.6380680     0.2976270     0.9176960
  H        3.3895360    -0.4934290    -0.6504970
  H        2.8952950     1.1995690    -0.4169390
  H       -3.2299570    -0.5922870    -0.6804890
  H       -2.6567000    -1.2579100     0.8585660
  H       -3.3255750     0.4009600     0.7925810
units angstrom
no_reorient  #important for SAPT in psi4, default
symmetry c1  #important for SAPT in psi4, default
}

set PROPERTIES_ORIGIN ["COM"]
properties('MP2/aug-cc-pvtz', properties = ['dipole'])
--------------------------------------------------------------------------

    Molecular point group: c1
  Charge       = 0
  Multiplicity = 1
  Basis Set: AUG-CC-PVTZ
    Blend: AUG-CC-PVTZ
  Basis Set: (AUG-CC-PVTZ AUX)
    Blend: AUG-CC-PVTZ-JKFIT

    Orbital Energies [Eh]
    ---------------------

    Doubly Occupied:

       1A    -20.663873     2A    -20.650649     3A    -20.559053
       4A    -11.394098     5A    -11.294134     6A    -11.244630
       7A    -11.231628     8A     -1.473334     9A     -1.385351
      10A     -1.290249    11A     -1.029726    12A     -1.004065
      13A     -0.851499    14A     -0.787229    15A     -0.699990
      16A     -0.685498    17A     -0.666900    18A     -0.646750
      19A     -0.618301    20A     -0.595631    21A     -0.577470
      22A     -0.546824    23A     -0.542366    24A     -0.537867
      25A     -0.498335    26A     -0.490267    27A     -0.472476
      28A     -0.451364

  @DF-RHF Final Energy:  -380.74236508033493

   => Energetics <=

    Nuclear Repulsion Energy =            313.3110546653552433
    One-Electron Energy =               -1142.3277281827074603
    Two-Electron Energy =                 448.2743084370173392
    Total Energy =                       -380.7423650803349346
  Basis Set: (AUG-CC-PVTZ AUX)
    Blend: AUG-CC-PVTZ-RI
    Molecular point group: c1

    Geometry (in Angstrom), charge = 0, multiplicity = 1:

       Center              X                  Y                   Z               Mass
    ------------   -----------------  -----------------  -----------------  -----------------
         O            0.852065976877    -0.317374056187    -0.633851016861    15.994914619570
         O           -0.569214323123    -0.908031656187    -0.196281816861    15.994914619570
         O           -1.022169023123     1.400837943813    -0.071880016861    15.994914619570
         C            1.653860976877    -0.240562056187     0.559273983139    12.000000000000
         C            3.016434976877     0.221713943813     0.085020983139    12.000000000000
         C           -1.328297023123     0.229973943813    -0.004653016861    12.000000000000
         C           -2.685482023123    -0.345280056187     0.289050983139    12.000000000000
         H            1.203872976877     0.473966943813     1.254881983139     1.007825032230
         H            1.697740976877    -1.227796056187     1.029268983139     1.007825032230
         H            3.688765976877     0.299695943813     0.943152983139     1.007825032230
         H            3.440233976877    -0.491360056187    -0.625040016861     1.007825032230
         H            2.945992976877     1.201637943813    -0.391482016861     1.007825032230
         H           -3.179259023123    -0.590218056187    -0.655032016861     1.007825032230
         H           -2.606002023123    -1.255841056187     0.884022983139     1.007825032230
         H           -3.274877023123     0.403028943813     0.818037983139     1.007825032230

  Basis Set: AUG-CC-PVTZ
    Blend: AUG-CC-PVTZ
  Basis Set: (AUG-CC-PVTZ AUX)
    Blend: AUG-CC-PVTZ-JKFIT
	 Reference Energy          =    -380.7423650803349346 [Eh]
	 Singles Energy            =      -0.0000000000000000 [Eh]
	 Same-Spin Energy          =      -0.3680769264631825 [Eh]
	 Opposite-Spin Energy      =      -1.1836148207948909 [Eh]
	 Correlation Energy        =      -1.5516917472580734 [Eh]
	 Total Energy              =    -382.2940568275930104 [Eh]

	 ================> DF-SCS-MP2 Energies <==================
	-----------------------------------------------------------
	 SCS Same-Spin Scale       =       0.3333333333333333 [-]
	 SCS Opposite-Spin Scale   =       1.2000000000000000 [-]
	 SCS Same-Spin Energy      =      -0.1226923088210608 [Eh]
	 SCS Opposite-Spin Energy  =      -1.4203377849538690 [Eh]
	 SCS Correlation Energy    =      -1.5430300937749297 [Eh]
	 SCS Total Energy          =    -382.2853951741098513 [Eh]
	-----------------------------------------------------------

  Dipole Moment: [D]
     X:    -0.0732      Y:    -1.3973      Z:     1.6829     Total:     2.1886

*** Psi4 exiting successfully. Buy a developer a beer!
