                               Psi4 1.3.2 release

  ==> Input File <==

--------------------------------------------------------------------------
#psi4
#
memory 32 gb

molecule  {
0 1
  O        0.8013680    -0.3194430    -0.6593080
  O       -0.3285888    -0.7533172    -0.3019113
  O       -1.0728670     1.3987690    -0.0973370
  C        1.6031630    -0.2426310     0.5338170
  C        2.9657370     0.2196450     0.0595640
  C       -1.3789950     0.2279050    -0.0301100
  C       -2.7361800    -0.3473490     0.2635940
  H        1.1531750     0.4718980     1.2294250
  H        1.6470430    -1.2298650     1.0038120
  H        3.6380680     0.2976270     0.9176960
  H        3.3895360    -0.4934290    -0.6504970
  H        2.8952950     1.1995690    -0.4169390
  H       -3.2299570    -0.5922870    -0.6804890
  H       -2.6567000    -1.2579100     0.8585660
  H       -3.3255750     0.4009600     0.7925810
units angstrom
no_reorient  #important for SAPT in psi4, default
symmetry c1  #important for SAPT in psi4, default
}

set PROPERTIES_ORIGIN ["COM"]
properties('MP2/aug-cc-pvtz', properties = ['dipole'])
--------------------------------------------------------------------------

    Molecular point group: c1
  Charge       = 0
  Multiplicity = 1
  Basis Set: AUG-CC-PVTZ
    Blend: AUG-CC-PVTZ
  Basis Set: (AUG-CC-PVTZ AUX)
    Blend: AUG-CC-PVTZ-JKFIT

    Orbital Energies [Eh]
    ---------------------

    Doubly Occupied:

       1A    -20.636393     2A    -20.618947     3A    -20.562758
       4A    -11.400108     5A    -11.280636     6A    -11.265003
       7A    -11.219245     8A     -1.588393     9A     -1.404276
      10A     -1.208554    11A     -1.042490    12A     -1.002080
      13A     -0.863058    14A     -0.806772    15A     -0.724095
      16A     -0.707199    17A     -0.691319    18A     -0.640088
      19A     -0.619464    20A     -0.609280    21A     -0.592144
      22A     -0.548542    23A     -0.527467    24A     -0.524475
      25A     -0.513898    26A     -0.479593    27A     -0.448074
      28A     -0.421720

  @DF-RHF Final Energy:  -380.75005565554898

   => Energetics <=

    Nuclear Repulsion Energy =            319.1997185574836067
    One-Electron Energy =               -1154.0074062011665319
    Two-Electron Energy =                 454.0576319881339487
    Total Energy =                       -380.7500556555489766
  Basis Set: (AUG-CC-PVTZ AUX)
    Blend: AUG-CC-PVTZ-RI
    Molecular point group: c1

    Geometry (in Angstrom), charge = 0, multiplicity = 1:

       Center              X                  Y                   Z               Mass
    ------------   -----------------  -----------------  -----------------  -----------------
         O            0.807281609253    -0.341475940940    -0.621526316954    15.994914619570
         O           -0.322675190747    -0.775350140940    -0.264129616954    15.994914619570
         O           -1.066953390747     1.376736059060    -0.059555316954    15.994914619570
         C            1.609076609253    -0.264663940940     0.571598683046    12.000000000000
         C            2.971650609253     0.197612059060     0.097345683046    12.000000000000
         C           -1.373081390747     0.205872059060     0.007671683046    12.000000000000
         C           -2.730266390747    -0.369381940940     0.301375683046    12.000000000000
         H            1.159088609253     0.449865059060     1.267206683046     1.007825032230
         H            1.652956609253    -1.251897940940     1.041593683046     1.007825032230
         H            3.643981609253     0.275594059060     0.955477683046     1.007825032230
         H            3.395449609253    -0.515461940940    -0.612715316954     1.007825032230
         H            2.901208609253     1.177536059060    -0.379157316954     1.007825032230
         H           -3.224043390747    -0.614319940940    -0.642707316954     1.007825032230
         H           -2.650786390747    -1.279942940940     0.896347683046     1.007825032230
         H           -3.319661390747     0.378927059060     0.830362683046     1.007825032230

  Basis Set: AUG-CC-PVTZ
    Blend: AUG-CC-PVTZ
  Basis Set: (AUG-CC-PVTZ AUX)
    Blend: AUG-CC-PVTZ-JKFIT
	 Reference Energy          =    -380.7500556555489766 [Eh]
	 Singles Energy            =      -0.0000000000000000 [Eh]
	 Same-Spin Energy          =      -0.3633000969452337 [Eh]
	 Opposite-Spin Energy      =      -1.1637713073590863 [Eh]
	 Correlation Energy        =      -1.5270714043043201 [Eh]
	 Total Energy              =    -382.2771270598532851 [Eh]

	 ================> DF-SCS-MP2 Energies <==================
	-----------------------------------------------------------
	 SCS Same-Spin Scale       =       0.3333333333333333 [-]
	 SCS Opposite-Spin Scale   =       1.2000000000000000 [-]
	 SCS Same-Spin Energy      =      -0.1211000323150779 [Eh]
	 SCS Opposite-Spin Energy  =      -1.3965255688309035 [Eh]
	 SCS Correlation Energy    =      -1.5176256011459814 [Eh]
	 SCS Total Energy          =    -382.2676812566949707 [Eh]
	-----------------------------------------------------------

  Dipole Moment: [D]
     X:    -0.7994      Y:    -1.4487      Z:     1.7026     Total:     2.3742

*** Psi4 exiting successfully. Buy a developer a beer!
