                               Psi4 1.3.2 release

  ==> Input File <==

--------------------------------------------------------------------------
#psi4
#
memory 32 gb

molecule  {
0 1
  O        0.8013680    -0.3194430    -0.6593080
  O       -0.5076550    -0.8220740    -0.2452740
  O       -1.0728670     1.3987690    -0.0973370
  C        1.6031630    -0.2426310     0.5338170
  C        2.9657370     0.2196450     0.0595640
  C       -1.2528325     0.0758772    -0.0612639
  C       -2.7361800    -0.3473490     0.2635940
  H        1.1531750     0.4718980     1.2294250
  H        1.6470430    -1.2298650     1.0038120
  H        3.6380680     0.2976270     0.9176960
  H        3.3895360    -0.4934290    -0.6504970
  H        2.8952950     1.1995690    -0.4169390
  H       -3.2299570    -0.5922870    -0.6804890
  H       -2.6567000    -1.2579100     0.8585660
  H       -3.3255750     0.4009600     0.7925810
units angstrom
no_reorient  #important for SAPT in psi4, default
symmetry c1  #important for SAPT in psi4, default
}

set PROPERTIES_ORIGIN ["COM"]
properties('MP2/aug-cc-pvtz', properties = ['dipole'])
--------------------------------------------------------------------------

    Molecular point group: c1
  Charge       = 0
  Multiplicity = 1
  Basis Set: AUG-CC-PVTZ
    Blend: AUG-CC-PVTZ
  Basis Set: (AUG-CC-PVTZ AUX)
    Blend: AUG-CC-PVTZ-JKFIT

    Orbital Energies [Eh]
    ---------------------

    Doubly Occupied:

       1A    -20.698899     2A    -20.674831     3A    -20.513287
       4A    -11.388375     5A    -11.307364     6A    -11.246284
       7A    -11.239726     8A     -1.597962     9A     -1.356922
      10A     -1.277533    11A     -1.043918    12A     -0.988953
      13A     -0.877322    14A     -0.844606    15A     -0.743130
      16A     -0.723612    17A     -0.677119    18A     -0.655780
      19A     -0.614662    20A     -0.583645    21A     -0.566902
      22A     -0.556693    23A     -0.555450    24A     -0.546333
      25A     -0.509740    26A     -0.494701    27A     -0.429653
      28A     -0.414219

  @DF-RHF Final Energy:  -380.71571008194786

   => Energetics <=

    Nuclear Repulsion Energy =            317.8352685467261836
    One-Electron Energy =               -1150.8467175135949674
    Two-Electron Energy =                 452.2957388849209224
    Total Energy =                       -380.7157100819478615
  Basis Set: (AUG-CC-PVTZ AUX)
    Blend: AUG-CC-PVTZ-RI
    Molecular point group: c1

    Geometry (in Angstrom), charge = 0, multiplicity = 1:

       Center              X                  Y                   Z               Mass
    ------------   -----------------  -----------------  -----------------  -----------------
         O            0.820258380470    -0.313372458143    -0.626639969612    15.994914619570
         O           -0.488764619530    -0.816003458143    -0.212605969612    15.994914619570
         O           -1.053976619530     1.404839541857    -0.064668969612    15.994914619570
         C            1.622053380470    -0.236560458143     0.566485030388    12.000000000000
         C            2.984627380470     0.225715541857     0.092232030388    12.000000000000
         C           -1.233942119530     0.081947741857    -0.028595869612    12.000000000000
         C           -2.717289619530    -0.341278458143     0.296262030388    12.000000000000
         H            1.172065380470     0.477968541857     1.262093030388     1.007825032230
         H            1.665933380470    -1.223794458143     1.036480030388     1.007825032230
         H            3.656958380470     0.303697541857     0.950364030388     1.007825032230
         H            3.408426380470    -0.487358458143    -0.617828969612     1.007825032230
         H            2.914185380470     1.205639541857    -0.384270969612     1.007825032230
         H           -3.211066619530    -0.586216458143    -0.647820969612     1.007825032230
         H           -2.637809619530    -1.251839458143     0.891234030388     1.007825032230
         H           -3.306684619530     0.407030541857     0.825249030388     1.007825032230

  Basis Set: AUG-CC-PVTZ
    Blend: AUG-CC-PVTZ
  Basis Set: (AUG-CC-PVTZ AUX)
    Blend: AUG-CC-PVTZ-JKFIT
	 Reference Energy          =    -380.7157100819478615 [Eh]
	 Singles Energy            =      -0.0000000000000000 [Eh]
	 Same-Spin Energy          =      -0.3654092869605222 [Eh]
	 Opposite-Spin Energy      =      -1.1719357922101739 [Eh]
	 Correlation Energy        =      -1.5373450791706960 [Eh]
	 Total Energy              =    -382.2530551611185388 [Eh]

	 ================> DF-SCS-MP2 Energies <==================
	-----------------------------------------------------------
	 SCS Same-Spin Scale       =       0.3333333333333333 [-]
	 SCS Opposite-Spin Scale   =       1.2000000000000000 [-]
	 SCS Same-Spin Energy      =      -0.1218030956535074 [Eh]
	 SCS Opposite-Spin Energy  =      -1.4063229506522086 [Eh]
	 SCS Correlation Energy    =      -1.5281260463057160 [Eh]
	 SCS Total Energy          =    -382.2438361282535766 [Eh]
	-----------------------------------------------------------

  Dipole Moment: [D]
     X:     0.9905      Y:    -2.6523      Z:     1.5425     Total:     3.2241

*** Psi4 exiting successfully. Buy a developer a beer!
