                               Psi4 1.3.2 release

  ==> Input File <==

--------------------------------------------------------------------------
#psi4
#
memory 32 gb

molecule  {
0 1
  O        0.8013680    -0.3194430    -0.6593080
  O       -0.5076550    -0.8220740    -0.2452740
  O       -1.0728670     1.3987690    -0.0973370
  C        1.6031630    -0.2426310     0.5338170
  C        2.9657370     0.2196450     0.0595640
  C       -1.4295075     0.0347071    -0.0190172
  C       -2.7361800    -0.3473490     0.2635940
  H        1.1531750     0.4718980     1.2294250
  H        1.6470430    -1.2298650     1.0038120
  H        3.6380680     0.2976270     0.9176960
  H        3.3895360    -0.4934290    -0.6504970
  H        2.8952950     1.1995690    -0.4169390
  H       -3.2299570    -0.5922870    -0.6804890
  H       -2.6567000    -1.2579100     0.8585660
  H       -3.3255750     0.4009600     0.7925810
units angstrom
no_reorient  #important for SAPT in psi4, default
symmetry c1  #important for SAPT in psi4, default
}

set PROPERTIES_ORIGIN ["COM"]
properties('MP2/aug-cc-pvtz', properties = ['dipole'])
--------------------------------------------------------------------------

    Molecular point group: c1
  Charge       = 0
  Multiplicity = 1
  Basis Set: AUG-CC-PVTZ
    Blend: AUG-CC-PVTZ
  Basis Set: (AUG-CC-PVTZ AUX)
    Blend: AUG-CC-PVTZ-JKFIT

    Orbital Energies [Eh]
    ---------------------

    Doubly Occupied:

       1A    -20.678429     2A    -20.666031     3A    -20.512241
       4A    -11.399912     5A    -11.298603     6A    -11.255070
       7A    -11.233604     8A     -1.541046     9A     -1.332675
      10A     -1.236874    11A     -1.066695    12A     -1.023202
      13A     -0.865714    14A     -0.819827    15A     -0.719820
      16A     -0.698734    17A     -0.686044    18A     -0.655042
      19A     -0.626374    20A     -0.606629    21A     -0.562644
      22A     -0.551616    23A     -0.540866    24A     -0.535042
      25A     -0.506490    26A     -0.480315    27A     -0.420445
      28A     -0.410401

  @DF-RHF Final Energy:  -380.70127783042170

   => Energetics <=

    Nuclear Repulsion Energy =            315.5894789997691987
    One-Electron Energy =               -1146.7207413572591577
    Two-Electron Energy =                 450.4299845270682567
    Total Energy =                       -380.7012778304217022
  Basis Set: (AUG-CC-PVTZ AUX)
    Blend: AUG-CC-PVTZ-RI
    Molecular point group: c1

    Geometry (in Angstrom), charge = 0, multiplicity = 1:

       Center              X                  Y                   Z               Mass
    ------------   -----------------  -----------------  -----------------  -----------------
         O            0.840634681451    -0.308624223537    -0.631512370770    15.994914619570
         O           -0.468388318549    -0.811255223537    -0.217478370770    15.994914619570
         O           -1.033600318549     1.409587776463    -0.069541370770    15.994914619570
         C            1.642429681451    -0.231812223537     0.561612629230    12.000000000000
         C            3.005003681451     0.230463776463     0.087359629230    12.000000000000
         C           -1.390240818549     0.045525876463     0.008778429230    12.000000000000
         C           -2.696913318549    -0.336530223537     0.291389629230    12.000000000000
         H            1.192441681451     0.482716776463     1.257220629230     1.007825032230
         H            1.686309681451    -1.219046223537     1.031607629230     1.007825032230
         H            3.677334681451     0.308445776463     0.945491629230     1.007825032230
         H            3.428802681451    -0.482610223537    -0.622701370770     1.007825032230
         H            2.934561681451     1.210387776463    -0.389143370770     1.007825032230
         H           -3.190690318549    -0.581468223537    -0.652693370770     1.007825032230
         H           -2.617433318549    -1.247091223537     0.886361629230     1.007825032230
         H           -3.286308318549     0.411778776463     0.820376629230     1.007825032230

  Basis Set: AUG-CC-PVTZ
    Blend: AUG-CC-PVTZ
  Basis Set: (AUG-CC-PVTZ AUX)
    Blend: AUG-CC-PVTZ-JKFIT
	 Reference Energy          =    -380.7012778304217022 [Eh]
	 Singles Energy            =      -0.0000000000000000 [Eh]
	 Same-Spin Energy          =      -0.3684031469463018 [Eh]
	 Opposite-Spin Energy      =      -1.1778258261241801 [Eh]
	 Correlation Energy        =      -1.5462289730704819 [Eh]
	 Total Energy              =    -382.2475068034921719 [Eh]

	 ================> DF-SCS-MP2 Energies <==================
	-----------------------------------------------------------
	 SCS Same-Spin Scale       =       0.3333333333333333 [-]
	 SCS Opposite-Spin Scale   =       1.2000000000000000 [-]
	 SCS Same-Spin Energy      =      -0.1228010489821006 [Eh]
	 SCS Opposite-Spin Energy  =      -1.4133909913490161 [Eh]
	 SCS Correlation Energy    =      -1.5361920403311167 [Eh]
	 SCS Total Energy          =    -382.2374698707528182 [Eh]
	-----------------------------------------------------------

  Dipole Moment: [D]
     X:     0.0206      Y:    -2.6877      Z:     1.6983     Total:     3.1794

*** Psi4 exiting successfully. Buy a developer a beer!
