                               Psi4 1.3.2 release

  ==> Input File <==

--------------------------------------------------------------------------
#psi4
#
memory 32 gb

molecule  {
0 1
  O        0.8013680    -0.3194430    -0.6593080
  O       -0.5256244    -0.8375773    -0.2410386
  O       -1.0728670     1.3987690    -0.0973370
  C        1.6031630    -0.2426310     0.5338170
  C        2.9657370     0.2196450     0.0595640
  C       -1.3789950     0.2279050    -0.0301100
  C       -2.7361800    -0.3473490     0.2635940
  H        1.1531750     0.4718980     1.2294250
  H        1.6470430    -1.2298650     1.0038120
  H        3.6380680     0.2976270     0.9176960
  H        3.3895360    -0.4934290    -0.6504970
  H        2.8952950     1.1995690    -0.4169390
  H       -3.2299570    -0.5922870    -0.6804890
  H       -2.6567000    -1.2579100     0.8585660
  H       -3.3255750     0.4009600     0.7925810
units angstrom
no_reorient  #important for SAPT in psi4, default
symmetry c1  #important for SAPT in psi4, default
}

set PROPERTIES_ORIGIN ["COM"]
properties('MP2/aug-cc-pvtz', properties = ['dipole'])
--------------------------------------------------------------------------

    Molecular point group: c1
  Charge       = 0
  Multiplicity = 1
  Basis Set: AUG-CC-PVTZ
    Blend: AUG-CC-PVTZ
  Basis Set: (AUG-CC-PVTZ AUX)
    Blend: AUG-CC-PVTZ-JKFIT

    Orbital Energies [Eh]
    ---------------------

    Doubly Occupied:

       1A    -20.658199     2A    -20.642165     3A    -20.555949
       4A    -11.393312     5A    -11.290810     6A    -11.250726
       7A    -11.228001     8A     -1.500588     9A     -1.390078
      10A     -1.271874    11A     -1.033672    12A     -1.004280
      13A     -0.853253    14A     -0.795008    15A     -0.705853
      16A     -0.692128    17A     -0.673772    18A     -0.644488
      19A     -0.615557    20A     -0.598129    21A     -0.582088
      22A     -0.547730    23A     -0.536659    24A     -0.533909
      25A     -0.510713    26A     -0.483228    27A     -0.468589
      28A     -0.453406

  @DF-RHF Final Energy:  -380.76623728137463

   => Energetics <=

    Nuclear Repulsion Energy =            315.5542145851689497
    One-Electron Energy =               -1146.8125762292397667
    Two-Electron Energy =                 450.4921243626962450
    Total Energy =                       -380.7662372813746288
  Basis Set: (AUG-CC-PVTZ AUX)
    Blend: AUG-CC-PVTZ-RI
    Molecular point group: c1

    Geometry (in Angstrom), charge = 0, multiplicity = 1:

       Center              X                  Y                   Z               Mass
    ------------   -----------------  -----------------  -----------------  -----------------
         O            0.837571355001    -0.328522865427    -0.630884111210    15.994914619570
         O           -0.489421044999    -0.846657165427    -0.212614711210    15.994914619570
         O           -1.036663644999     1.389689134573    -0.068913111210    15.994914619570
         C            1.639366355001    -0.251710865427     0.562240888790    12.000000000000
         C            3.001940355001     0.210565134573     0.087987888790    12.000000000000
         C           -1.342791644999     0.218825134573    -0.001686111210    12.000000000000
         C           -2.699976644999    -0.356428865427     0.292017888790    12.000000000000
         H            1.189378355001     0.462818134573     1.257848888790     1.007825032230
         H            1.683246355001    -1.238944865427     1.032235888790     1.007825032230
         H            3.674271355001     0.288547134573     0.946119888790     1.007825032230
         H            3.425739355001    -0.502508865427    -0.622073111210     1.007825032230
         H            2.931498355001     1.190489134573    -0.388515111210     1.007825032230
         H           -3.193753644999    -0.601366865427    -0.652065111210     1.007825032230
         H           -2.620496644999    -1.266989865427     0.886989888790     1.007825032230
         H           -3.289371644999     0.391880134573     0.821004888790     1.007825032230

  Basis Set: AUG-CC-PVTZ
    Blend: AUG-CC-PVTZ
  Basis Set: (AUG-CC-PVTZ AUX)
    Blend: AUG-CC-PVTZ-JKFIT
	 Reference Energy          =    -380.7662372813746288 [Eh]
	 Singles Energy            =      -0.0000000000000000 [Eh]
	 Same-Spin Energy          =      -0.3651904667851745 [Eh]
	 Opposite-Spin Energy      =      -1.1737975901390010 [Eh]
	 Correlation Energy        =      -1.5389880569241754 [Eh]
	 Total Energy              =    -382.3052253382987828 [Eh]

	 ================> DF-SCS-MP2 Energies <==================
	-----------------------------------------------------------
	 SCS Same-Spin Scale       =       0.3333333333333333 [-]
	 SCS Opposite-Spin Scale   =       1.2000000000000000 [-]
	 SCS Same-Spin Energy      =      -0.1217301555950582 [Eh]
	 SCS Opposite-Spin Energy  =      -1.4085571081668011 [Eh]
	 SCS Correlation Energy    =      -1.5302872637618594 [Eh]
	 SCS Total Energy          =    -382.2965245451364922 [Eh]
	-----------------------------------------------------------

  Dipole Moment: [D]
     X:    -0.2053      Y:    -1.4873      Z:     1.6796     Total:     2.2528

*** Psi4 exiting successfully. Buy a developer a beer!
