                               Psi4 1.3.2 release

  ==> Input File <==

--------------------------------------------------------------------------
#psi4
#
memory 32 gb

molecule  {
0 1
  O        0.8013680    -0.3194430    -0.6593080
  O       -0.4725178    -0.7901127    -0.2535468
  O       -1.0728670     1.3987690    -0.0973370
  C        1.6031630    -0.2426310     0.5338170
  C        2.9657370     0.2196450     0.0595640
  C       -1.3789950     0.2279050    -0.0301100
  C       -2.7361800    -0.3473490     0.2635940
  H        1.1531750     0.4718980     1.2294250
  H        1.6470430    -1.2298650     1.0038120
  H        3.6380680     0.2976270     0.9176960
  H        3.3895360    -0.4934290    -0.6504970
  H        2.8952950     1.1995690    -0.4169390
  H       -3.2299570    -0.5922870    -0.6804890
  H       -2.6567000    -1.2579100     0.8585660
  H       -3.3255750     0.4009600     0.7925810
units angstrom
no_reorient  #important for SAPT in psi4, default
symmetry c1  #important for SAPT in psi4, default
}

set PROPERTIES_ORIGIN ["COM"]
properties('MP2/aug-cc-pvtz', properties = ['dipole'])
--------------------------------------------------------------------------

    Molecular point group: c1
  Charge       = 0
  Multiplicity = 1
  Basis Set: AUG-CC-PVTZ
    Blend: AUG-CC-PVTZ
  Basis Set: (AUG-CC-PVTZ AUX)
    Blend: AUG-CC-PVTZ-JKFIT

    Orbital Energies [Eh]
    ---------------------

    Doubly Occupied:

       1A    -20.653345     2A    -20.637188     3A    -20.553708
       4A    -11.392936     5A    -11.288883     6A    -11.254399
       7A    -11.225964     8A     -1.522991     9A     -1.392682
      10A     -1.259998    11A     -1.036525    12A     -1.004400
      13A     -0.856000    14A     -0.800656    15A     -0.710883
      16A     -0.696219    17A     -0.679661    18A     -0.643475
      19A     -0.614903    20A     -0.599380    21A     -0.585074
      22A     -0.548942    23A     -0.533792    24A     -0.531070
      25A     -0.515254    26A     -0.477735    27A     -0.466839
      28A     -0.449975

  @DF-RHF Final Energy:  -380.77273576333175

   => Energetics <=

    Nuclear Repulsion Energy =            317.0448757122331926
    One-Electron Energy =               -1149.7694724845366636
    Two-Electron Energy =                 451.9518610089717185
    Total Energy =                       -380.7727357633317524
  Basis Set: (AUG-CC-PVTZ AUX)
    Blend: AUG-CC-PVTZ-RI
    Molecular point group: c1

    Geometry (in Angstrom), charge = 0, multiplicity = 1:

       Center              X                  Y                   Z               Mass
    ------------   -----------------  -----------------  -----------------  -----------------
         O            0.829407422131    -0.335819469015    -0.628961259717    15.994914619570
         O           -0.444478377869    -0.806489169015    -0.223200059717    15.994914619570
         O           -1.044827577869     1.382392530985    -0.066990259717    15.994914619570
         C            1.631202422131    -0.259007469015     0.564163740283    12.000000000000
         C            2.993776422131     0.203268530985     0.089910740283    12.000000000000
         C           -1.350955577869     0.211528530985     0.000236740283    12.000000000000
         C           -2.708140577869    -0.363725469015     0.293940740283    12.000000000000
         H            1.181214422131     0.455521530985     1.259771740283     1.007825032230
         H            1.675082422131    -1.246241469015     1.034158740283     1.007825032230
         H            3.666107422131     0.281250530985     0.948042740283     1.007825032230
         H            3.417575422131    -0.509805469015    -0.620150259717     1.007825032230
         H            2.923334422131     1.183192530985    -0.386592259717     1.007825032230
         H           -3.201917577869    -0.608663469015    -0.650142259717     1.007825032230
         H           -2.628660577869    -1.274286469015     0.888912740283     1.007825032230
         H           -3.297535577869     0.384583530985     0.822927740283     1.007825032230

  Basis Set: AUG-CC-PVTZ
    Blend: AUG-CC-PVTZ
  Basis Set: (AUG-CC-PVTZ AUX)
    Blend: AUG-CC-PVTZ-JKFIT
	 Reference Energy          =    -380.7727357633317524 [Eh]
	 Singles Energy            =      -0.0000000000000000 [Eh]
	 Same-Spin Energy          =      -0.3638322063779603 [Eh]
	 Opposite-Spin Energy      =      -1.1687874805786966 [Eh]
	 Correlation Energy        =      -1.5326196869566568 [Eh]
	 Total Energy              =    -382.3053554502884026 [Eh]

	 ================> DF-SCS-MP2 Energies <==================
	-----------------------------------------------------------
	 SCS Same-Spin Scale       =       0.3333333333333333 [-]
	 SCS Opposite-Spin Scale   =       1.2000000000000000 [-]
	 SCS Same-Spin Energy      =      -0.1212774021259868 [Eh]
	 SCS Opposite-Spin Energy  =      -1.4025449766944360 [Eh]
	 SCS Correlation Energy    =      -1.5238223788204228 [Eh]
	 SCS Total Energy          =    -382.2965581421521506 [Eh]
	-----------------------------------------------------------

  Dipole Moment: [D]
     X:    -0.3037      Y:    -1.5508      Z:     1.6802     Total:     2.3066

*** Psi4 exiting successfully. Buy a developer a beer!
