                               Psi4 1.3.2 release

  ==> Input File <==

--------------------------------------------------------------------------
#psi4
#
memory 32 gb

molecule  {
0 1
  O        0.7942028    -0.3683518    -0.6502862
  O       -0.5076550    -0.8220740    -0.2452740
  O       -1.0728670     1.3987690    -0.0973370
  C        1.6031630    -0.2426310     0.5338170
  C        2.9657370     0.2196450     0.0595640
  C       -1.3789950     0.2279050    -0.0301100
  C       -2.7361800    -0.3473490     0.2635940
  H        1.1531750     0.4718980     1.2294250
  H        1.6470430    -1.2298650     1.0038120
  H        3.6380680     0.2976270     0.9176960
  H        3.3895360    -0.4934290    -0.6504970
  H        2.8952950     1.1995690    -0.4169390
  H       -3.2299570    -0.5922870    -0.6804890
  H       -2.6567000    -1.2579100     0.8585660
  H       -3.3255750     0.4009600     0.7925810
units angstrom
no_reorient  #important for SAPT in psi4, default
symmetry c1  #important for SAPT in psi4, default
}

set PROPERTIES_ORIGIN ["COM"]
properties('MP2/aug-cc-pvtz', properties = ['dipole'])
--------------------------------------------------------------------------

    Molecular point group: c1
  Charge       = 0
  Multiplicity = 1
  Basis Set: AUG-CC-PVTZ
    Blend: AUG-CC-PVTZ
  Basis Set: (AUG-CC-PVTZ AUX)
    Blend: AUG-CC-PVTZ-JKFIT

    Orbital Energies [Eh]
    ---------------------

    Doubly Occupied:

       1A    -20.656542     2A    -20.637753     3A    -20.555991
       4A    -11.393788     5A    -11.289749     6A    -11.252339
       7A    -11.227573     8A     -1.515461     9A     -1.392936
      10A     -1.264746    11A     -1.035972    12A     -1.004109
      13A     -0.855753    14A     -0.798716    15A     -0.708891
      16A     -0.696028    17A     -0.677814    18A     -0.644075
      19A     -0.614072    20A     -0.599768    21A     -0.583985
      22A     -0.548912    23A     -0.536405    24A     -0.532035
      25A     -0.514705    26A     -0.477705    27A     -0.469604
      28A     -0.451016

  @DF-RHF Final Energy:  -380.77151885634294

   => Energetics <=

    Nuclear Repulsion Energy =            316.2446540599668197
    One-Electron Energy =               -1148.1594638444710199
    Two-Electron Energy =                 451.1432909281612638
    Total Energy =                       -380.7715188563429365
  Basis Set: (AUG-CC-PVTZ AUX)
    Blend: AUG-CC-PVTZ-RI
    Molecular point group: c1

    Geometry (in Angstrom), charge = 0, multiplicity = 1:

       Center              X                  Y                   Z               Mass
    ------------   -----------------  -----------------  -----------------  -----------------
         O            0.828745254783    -0.372296328962    -0.622598111436    15.994914619570
         O           -0.473112545217    -0.826018528962    -0.217585911436    15.994914619570
         O           -1.038324545217     1.394824471038    -0.069648911436    15.994914619570
         C            1.637705454783    -0.246575528962     0.561505088564    12.000000000000
         C            3.000279454783     0.215700471038     0.087252088564    12.000000000000
         C           -1.344452545217     0.223960471038    -0.002421911436    12.000000000000
         C           -2.701637545217    -0.351293528962     0.291282088564    12.000000000000
         H            1.187717454783     0.467953471038     1.257113088564     1.007825032230
         H            1.681585454783    -1.233809528962     1.031500088564     1.007825032230
         H            3.672610454783     0.293682471038     0.945384088564     1.007825032230
         H            3.424078454783    -0.497373528962    -0.622808911436     1.007825032230
         H            2.929837454783     1.195624471038    -0.389250911436     1.007825032230
         H           -3.195414545217    -0.596231528962    -0.652800911436     1.007825032230
         H           -2.622157545217    -1.261854528962     0.886254088564     1.007825032230
         H           -3.291032545217     0.397015471038     0.820269088564     1.007825032230

  Basis Set: AUG-CC-PVTZ
    Blend: AUG-CC-PVTZ
  Basis Set: (AUG-CC-PVTZ AUX)
    Blend: AUG-CC-PVTZ-JKFIT
	 Reference Energy          =    -380.7715188563429365 [Eh]
	 Singles Energy            =      -0.0000000000000000 [Eh]
	 Same-Spin Energy          =      -0.3641603345938310 [Eh]
	 Opposite-Spin Energy      =      -1.1701555899497409 [Eh]
	 Correlation Energy        =      -1.5343159245435718 [Eh]
	 Total Energy              =    -382.3058347808865278 [Eh]

	 ================> DF-SCS-MP2 Energies <==================
	-----------------------------------------------------------
	 SCS Same-Spin Scale       =       0.3333333333333333 [-]
	 SCS Opposite-Spin Scale   =       1.2000000000000000 [-]
	 SCS Same-Spin Energy      =      -0.1213867781979437 [Eh]
	 SCS Opposite-Spin Energy  =      -1.4041867079396890 [Eh]
	 SCS Correlation Energy    =      -1.5255734861376327 [Eh]
	 SCS Total Energy          =    -382.2970923424805960 [Eh]
	-----------------------------------------------------------

  Dipole Moment: [D]
     X:    -0.2292      Y:    -1.4570      Z:     1.6746     Total:     2.2315

*** Psi4 exiting successfully. Buy a developer a beer!
