                               Psi4 1.3.2 release

  ==> Input File <==

--------------------------------------------------------------------------
#psi4
#
memory 32 gb

molecule  {
0 1
  O        0.8013680    -0.3194430    -0.6593080
  O       -0.4380487    -0.7569338    -0.2596694
  O       -1.0728670     1.3987690    -0.0973370
  C        1.6031630    -0.2426310     0.5338170
  C        2.9657370     0.2196450     0.0595640
  C       -1.3789950     0.2279050    -0.0301100
  C       -2.7361800    -0.3473490     0.2635940
  H        1.1531750     0.4718980     1.2294250
  H        1.6470430    -1.2298650     1.0038120
  H        3.6380680     0.2976270     0.9176960
  H        3.3895360    -0.4934290    -0.6504970
  H        2.8952950     1.1995690    -0.4169390
  H       -3.2299570    -0.5922870    -0.6804890
  H       -2.6567000    -1.2579100     0.8585660
  H       -3.3255750     0.4009600     0.7925810
units angstrom
no_reorient  #important for SAPT in psi4, default
symmetry c1  #important for SAPT in psi4, default
}

set PROPERTIES_ORIGIN ["COM"]
properties('MP2/aug-cc-pvtz', properties = ['dipole'])
--------------------------------------------------------------------------

    Molecular point group: c1
  Charge       = 0
  Multiplicity = 1
  Basis Set: AUG-CC-PVTZ
    Blend: AUG-CC-PVTZ
  Basis Set: (AUG-CC-PVTZ AUX)
    Blend: AUG-CC-PVTZ-JKFIT

    Orbital Energies [Eh]
    ---------------------

    Doubly Occupied:

       1A    -20.649452     2A    -20.634109     3A    -20.551996
       4A    -11.392737     5A    -11.287603     6A    -11.256813
       7A    -11.224648     8A     -1.540761     9A     -1.394260
      10A     -1.251830    11A     -1.038498    12A     -1.004665
      13A     -0.858692    14A     -0.804678    15A     -0.715145
      16A     -0.698692    17A     -0.684382    18A     -0.642973
      19A     -0.615164    20A     -0.599901    21A     -0.586973
      22A     -0.550034    23A     -0.532137    24A     -0.529450
      25A     -0.516400    26A     -0.475009    27A     -0.464279
      28A     -0.445662

  @DF-RHF Final Energy:  -380.77272446413764

   => Energetics <=

    Nuclear Repulsion Energy =            318.1037105598289827
    One-Electron Energy =               -1151.8589801700436510
    Two-Electron Energy =                 452.9825451460770296
    Total Energy =                       -380.7727244641376387
  Basis Set: (AUG-CC-PVTZ AUX)
    Blend: AUG-CC-PVTZ-RI
    Molecular point group: c1

    Geometry (in Angstrom), charge = 0, multiplicity = 1:

       Center              X                  Y                   Z               Mass
    ------------   -----------------  -----------------  -----------------  -----------------
         O            0.824108581337    -0.340919970880    -0.628020049106    15.994914619570
         O           -0.415308118663    -0.778410770880    -0.228381449106    15.994914619570
         O           -1.050126418663     1.377292029120    -0.066049049106    15.994914619570
         C            1.625903581337    -0.264107970880     0.565104950894    12.000000000000
         C            2.988477581337     0.198168029120     0.090851950894    12.000000000000
         C           -1.356254418663     0.206428029120     0.001177950894    12.000000000000
         C           -2.713439418663    -0.368825970880     0.294881950894    12.000000000000
         H            1.175915581337     0.450421029120     1.260712950894     1.007825032230
         H            1.669783581337    -1.251341970880     1.035099950894     1.007825032230
         H            3.660808581337     0.276150029120     0.948983950894     1.007825032230
         H            3.412276581337    -0.514905970880    -0.619209049106     1.007825032230
         H            2.918035581337     1.178092029120    -0.385651049106     1.007825032230
         H           -3.207216418663    -0.613763970880    -0.649201049106     1.007825032230
         H           -2.633959418663    -1.279386970880     0.889853950894     1.007825032230
         H           -3.302834418663     0.379483029120     0.823868950894     1.007825032230

  Basis Set: AUG-CC-PVTZ
    Blend: AUG-CC-PVTZ
  Basis Set: (AUG-CC-PVTZ AUX)
    Blend: AUG-CC-PVTZ-JKFIT
	 Reference Energy          =    -380.7727244641376387 [Eh]
	 Singles Energy            =      -0.0000000000000000 [Eh]
	 Same-Spin Energy          =      -0.3631216982861188 [Eh]
	 Opposite-Spin Energy      =      -1.1659111006438729 [Eh]
	 Correlation Energy        =      -1.5290327989299919 [Eh]
	 Total Energy              =    -382.3017572630676568 [Eh]

	 ================> DF-SCS-MP2 Energies <==================
	-----------------------------------------------------------
	 SCS Same-Spin Scale       =       0.3333333333333333 [-]
	 SCS Opposite-Spin Scale   =       1.2000000000000000 [-]
	 SCS Same-Spin Energy      =      -0.1210405660953729 [Eh]
	 SCS Opposite-Spin Energy  =      -1.3990933207726475 [Eh]
	 SCS Correlation Energy    =      -1.5201338868680203 [Eh]
	 SCS Total Energy          =    -382.2928583510056342 [Eh]
	-----------------------------------------------------------

  Dipole Moment: [D]
     X:    -0.3709      Y:    -1.5981      Z:     1.6785     Total:     2.3471

*** Psi4 exiting successfully. Buy a developer a beer!
