                               Psi4 1.3.2 release

  ==> Input File <==

--------------------------------------------------------------------------
#psi4
#
memory 32 gb

molecule  {
0 1
  O        0.8013680    -0.3194430    -0.6593080
  O       -0.5076550    -0.8220740    -0.2452740
  O       -1.0728670     1.3987690    -0.0973370
  C        1.6031630    -0.2426310     0.5338170
  C        2.9657370     0.2196450     0.0595640
  C       -1.3601242     0.2413203     0.1255031
  C       -2.7361800    -0.3473490     0.2635940
  H        1.1531750     0.4718980     1.2294250
  H        1.6470430    -1.2298650     1.0038120
  H        3.6380680     0.2976270     0.9176960
  H        3.3895360    -0.4934290    -0.6504970
  H        2.8952950     1.1995690    -0.4169390
  H       -3.2299570    -0.5922870    -0.6804890
  H       -2.6567000    -1.2579100     0.8585660
  H       -3.3255750     0.4009600     0.7925810
units angstrom
no_reorient  #important for SAPT in psi4, default
symmetry c1  #important for SAPT in psi4, default
}

set PROPERTIES_ORIGIN ["COM"]
properties('MP2/aug-cc-pvtz', properties = ['dipole'])
--------------------------------------------------------------------------

    Molecular point group: c1
  Charge       = 0
  Multiplicity = 1
  Basis Set: AUG-CC-PVTZ
    Blend: AUG-CC-PVTZ
  Basis Set: (AUG-CC-PVTZ AUX)
    Blend: AUG-CC-PVTZ-JKFIT

    Orbital Energies [Eh]
    ---------------------

    Doubly Occupied:

       1A    -20.651470     2A    -20.636739     3A    -20.563181
       4A    -11.396968     5A    -11.289178     6A    -11.254747
       7A    -11.226366     8A     -1.498539     9A     -1.394391
      10A     -1.257937    11A     -1.034780    12A     -1.004127
      13A     -0.853297    14A     -0.791596    15A     -0.706549
      16A     -0.692049    17A     -0.668879    18A     -0.643837
      19A     -0.619363    20A     -0.595796    21A     -0.581511
      22A     -0.548613    23A     -0.533705    24A     -0.531675
      25A     -0.510441    26A     -0.476863    27A     -0.471777
      28A     -0.451489

  @DF-RHF Final Energy:  -380.75427689238171

   => Energetics <=

    Nuclear Repulsion Energy =            315.6263923598258430
    One-Electron Energy =               -1146.9896104201625349
    Two-Electron Energy =                 450.6089411679550381
    Total Energy =                       -380.7542768923817107
  Basis Set: (AUG-CC-PVTZ AUX)
    Blend: AUG-CC-PVTZ-RI
    Molecular point group: c1

    Geometry (in Angstrom), charge = 0, multiplicity = 1:

       Center              X                  Y                   Z               Mass
    ------------   -----------------  -----------------  -----------------  -----------------
         O            0.832632558887    -0.332453360369    -0.648180202272    15.994914619570
         O           -0.476390441113    -0.835084360369    -0.234146202272    15.994914619570
         O           -1.041602441113     1.385758639631    -0.086209202272    15.994914619570
         C            1.634427558887    -0.255641360369     0.544944797728    12.000000000000
         C            2.997001558887     0.206634639631     0.070691797728    12.000000000000
         C           -1.328859641113     0.228309939631     0.136630897728    12.000000000000
         C           -2.704915441113    -0.360359360369     0.274721797728    12.000000000000
         H            1.184439558887     0.458887639631     1.240552797728     1.007825032230
         H            1.678307558887    -1.242875360369     1.014939797728     1.007825032230
         H            3.669332558887     0.284616639631     0.928823797728     1.007825032230
         H            3.420800558887    -0.506439360369    -0.639369202272     1.007825032230
         H            2.926559558887     1.186558639631    -0.405811202272     1.007825032230
         H           -3.198692441113    -0.605297360369    -0.669361202272     1.007825032230
         H           -2.625435441113    -1.270920360369     0.869693797728     1.007825032230
         H           -3.294310441113     0.387949639631     0.803708797728     1.007825032230

  Basis Set: AUG-CC-PVTZ
    Blend: AUG-CC-PVTZ
  Basis Set: (AUG-CC-PVTZ AUX)
    Blend: AUG-CC-PVTZ-JKFIT
	 Reference Energy          =    -380.7542768923817107 [Eh]
	 Singles Energy            =      -0.0000000000000000 [Eh]
	 Same-Spin Energy          =      -0.3658160482390752 [Eh]
	 Opposite-Spin Energy      =      -1.1751431704916739 [Eh]
	 Correlation Energy        =      -1.5409592187307490 [Eh]
	 Total Energy              =    -382.2952361111124446 [Eh]

	 ================> DF-SCS-MP2 Energies <==================
	-----------------------------------------------------------
	 SCS Same-Spin Scale       =       0.3333333333333333 [-]
	 SCS Opposite-Spin Scale   =       1.2000000000000000 [-]
	 SCS Same-Spin Energy      =      -0.1219386827463584 [Eh]
	 SCS Opposite-Spin Energy  =      -1.4101718045900087 [Eh]
	 SCS Correlation Energy    =      -1.5321104873363671 [Eh]
	 SCS Total Energy          =    -382.2863873797180645 [Eh]
	-----------------------------------------------------------

  Dipole Moment: [D]
     X:    -0.3307      Y:    -1.3548      Z:     1.8373     Total:     2.3066

*** Psi4 exiting successfully. Buy a developer a beer!
