                               Psi4 1.3.2 release

  ==> Input File <==

--------------------------------------------------------------------------
#psi4
#
memory 32 gb

molecule  {
0 1
  O        0.8013680    -0.3194430    -0.6593080
  O       -0.5230382    -0.8194437    -0.2938619
  O       -1.0728670     1.3987690    -0.0973370
  C        1.6031630    -0.2426310     0.5338170
  C        2.9657370     0.2196450     0.0595640
  C       -1.3789950     0.2279050    -0.0301100
  C       -2.7361800    -0.3473490     0.2635940
  H        1.1531750     0.4718980     1.2294250
  H        1.6470430    -1.2298650     1.0038120
  H        3.6380680     0.2976270     0.9176960
  H        3.3895360    -0.4934290    -0.6504970
  H        2.8952950     1.1995690    -0.4169390
  H       -3.2299570    -0.5922870    -0.6804890
  H       -2.6567000    -1.2579100     0.8585660
  H       -3.3255750     0.4009600     0.7925810
units angstrom
no_reorient  #important for SAPT in psi4, default
symmetry c1  #important for SAPT in psi4, default
}

set PROPERTIES_ORIGIN ["COM"]
properties('MP2/aug-cc-pvtz', properties = ['dipole'])
--------------------------------------------------------------------------

    Molecular point group: c1
  Charge       = 0
  Multiplicity = 1
  Basis Set: AUG-CC-PVTZ
    Blend: AUG-CC-PVTZ
  Basis Set: (AUG-CC-PVTZ AUX)
    Blend: AUG-CC-PVTZ-JKFIT

    Orbital Energies [Eh]
    ---------------------

    Doubly Occupied:

       1A    -20.657357     2A    -20.639468     3A    -20.554883
       4A    -11.392752     5A    -11.290884     6A    -11.251776
       7A    -11.228055     8A     -1.507297     9A     -1.390493
      10A     -1.269115    11A     -1.035176    12A     -1.004136
      13A     -0.854789    14A     -0.796226    15A     -0.707135
      16A     -0.693970    17A     -0.675466    18A     -0.644853
      19A     -0.614964    20A     -0.598646    21A     -0.583237
      22A     -0.548048    23A     -0.536225    24A     -0.533162
      25A     -0.512833    26A     -0.479130    27A     -0.469282
      28A     -0.452453

  @DF-RHF Final Energy:  -380.76908239631871

   => Energetics <=

    Nuclear Repulsion Energy =            315.8895658067901309
    One-Electron Energy =               -1147.4736734153243560
    Two-Electron Energy =                 450.8150252122154598
    Total Energy =                       -380.7690823963187086
  Basis Set: (AUG-CC-PVTZ AUX)
    Blend: AUG-CC-PVTZ-RI
    Molecular point group: c1

    Geometry (in Angstrom), charge = 0, multiplicity = 1:

       Center              X                  Y                   Z               Mass
    ------------   -----------------  -----------------  -----------------  -----------------
         O            0.837173785524    -0.331310494330    -0.622763729276    15.994914619570
         O           -0.487232414476    -0.831311194330    -0.257317629276    15.994914619570
         O           -1.037061214476     1.386901505670    -0.060792729276    15.994914619570
         C            1.638968785524    -0.254498494330     0.570361270724    12.000000000000
         C            3.001542785524     0.207777505670     0.096108270724    12.000000000000
         C           -1.343189214476     0.216037505670     0.006434270724    12.000000000000
         C           -2.700374214476    -0.359216494330     0.300138270724    12.000000000000
         H            1.188980785524     0.460030505670     1.265969270724     1.007825032230
         H            1.682848785524    -1.241732494330     1.040356270724     1.007825032230
         H            3.673873785524     0.285759505670     0.954240270724     1.007825032230
         H            3.425341785524    -0.505296494330    -0.613952729276     1.007825032230
         H            2.931100785524     1.187701505670    -0.380394729276     1.007825032230
         H           -3.194151214476    -0.604154494330    -0.643944729276     1.007825032230
         H           -2.620894214476    -1.269777494330     0.895110270724     1.007825032230
         H           -3.289769214476     0.389092505670     0.829125270724     1.007825032230

  Basis Set: AUG-CC-PVTZ
    Blend: AUG-CC-PVTZ
  Basis Set: (AUG-CC-PVTZ AUX)
    Blend: AUG-CC-PVTZ-JKFIT
	 Reference Energy          =    -380.7690823963187086 [Eh]
	 Singles Energy            =      -0.0000000000000000 [Eh]
	 Same-Spin Energy          =      -0.3646097422859079 [Eh]
	 Opposite-Spin Energy      =      -1.1717944877655946 [Eh]
	 Correlation Energy        =      -1.5364042300515024 [Eh]
	 Total Energy              =    -382.3054866263702252 [Eh]

	 ================> DF-SCS-MP2 Energies <==================
	-----------------------------------------------------------
	 SCS Same-Spin Scale       =       0.3333333333333333 [-]
	 SCS Opposite-Spin Scale   =       1.2000000000000000 [-]
	 SCS Same-Spin Energy      =      -0.1215365807619693 [Eh]
	 SCS Opposite-Spin Energy  =      -1.4061533853187134 [Eh]
	 SCS Correlation Energy    =      -1.5276899660806826 [Eh]
	 SCS Total Energy          =    -382.2967723623993948 [Eh]
	-----------------------------------------------------------

  Dipole Moment: [D]
     X:    -0.2051      Y:    -1.5137      Z:     1.7189     Total:     2.2996

*** Psi4 exiting successfully. Buy a developer a beer!
