                               Psi4 1.3.2 release

  ==> Input File <==

--------------------------------------------------------------------------
#psi4
#
memory 32 gb

molecule  {
0 1
  O        0.8013680    -0.3194430    -0.6593080
  O       -0.5076550    -0.8220740    -0.2452740
  O       -1.0728670     1.3987690    -0.0973370
  C        1.6031630    -0.2426310     0.5338170
  C        2.9657370     0.2196450     0.0595640
  C       -1.3789950     0.2279050    -0.0301100
  C       -2.9167720    -0.4238944     0.3026753
  H        1.1531750     0.4718980     1.2294250
  H        1.6470430    -1.2298650     1.0038120
  H        3.6380680     0.2976270     0.9176960
  H        3.3895360    -0.4934290    -0.6504970
  H        2.8952950     1.1995690    -0.4169390
  H       -3.2299570    -0.5922870    -0.6804890
  H       -2.6567000    -1.2579100     0.8585660
  H       -3.3255750     0.4009600     0.7925810
units angstrom
no_reorient  #important for SAPT in psi4, default
symmetry c1  #important for SAPT in psi4, default
}

set PROPERTIES_ORIGIN ["COM"]
properties('MP2/aug-cc-pvtz', properties = ['dipole'])
--------------------------------------------------------------------------

    Molecular point group: c1
  Charge       = 0
  Multiplicity = 1
  Basis Set: AUG-CC-PVTZ
    Blend: AUG-CC-PVTZ
  Basis Set: (AUG-CC-PVTZ AUX)
    Blend: AUG-CC-PVTZ-JKFIT

    Orbital Energies [Eh]
    ---------------------

    Doubly Occupied:

       1A    -20.657526     2A    -20.639923     3A    -20.556891
       4A    -11.395653     5A    -11.289979     6A    -11.255240
       7A    -11.227199     8A     -1.505831     9A     -1.388898
      10A     -1.265126    11A     -1.024875    12A     -0.998464
      13A     -0.853941    14A     -0.794420    15A     -0.697098
      16A     -0.691148    17A     -0.672882    18A     -0.638096
      19A     -0.623862    20A     -0.614018    21A     -0.585052
      22A     -0.554028    23A     -0.539251    24A     -0.535017
      25A     -0.512721    26A     -0.481146    27A     -0.466011
      28A     -0.429897

  @DF-RHF Final Energy:  -380.74182233806096

   => Energetics <=

    Nuclear Repulsion Energy =            312.7859864409962256
    One-Electron Energy =               -1141.2672340283963877
    Two-Electron Energy =                 447.7394252493392059
    Total Energy =                       -380.7418223380609561
  Basis Set: (AUG-CC-PVTZ AUX)
    Blend: AUG-CC-PVTZ-RI
    Molecular point group: c1

    Geometry (in Angstrom), charge = 0, multiplicity = 1:

       Center              X                  Y                   Z               Mass
    ------------   -----------------  -----------------  -----------------  -----------------
         O            0.855637024982    -0.322078002793    -0.634740343602    15.994914619570
         O           -0.453385975018    -0.824709002793    -0.220706343602    15.994914619570
         O           -1.018597975018     1.396133997207    -0.072769343602    15.994914619570
         C            1.657432024982    -0.245266002793     0.558384656398    12.000000000000
         C            3.020006024982     0.217009997207     0.084131656398    12.000000000000
         C           -1.324725975018     0.225269997207    -0.005542343602    12.000000000000
         C           -2.862502975018    -0.426529402793     0.327242956398    12.000000000000
         H            1.207444024982     0.469262997207     1.253992656398     1.007825032230
         H            1.701312024982    -1.232500002793     1.028379656398     1.007825032230
         H            3.692337024982     0.294991997207     0.942263656398     1.007825032230
         H            3.443805024982    -0.496064002793    -0.625929343602     1.007825032230
         H            2.949564024982     1.196933997207    -0.392371343602     1.007825032230
         H           -3.175687975018    -0.594922002793    -0.655921343602     1.007825032230
         H           -2.602430975018    -1.260545002793     0.883133656398     1.007825032230
         H           -3.271305975018     0.398324997207     0.817148656398     1.007825032230

  Basis Set: AUG-CC-PVTZ
    Blend: AUG-CC-PVTZ
  Basis Set: (AUG-CC-PVTZ AUX)
    Blend: AUG-CC-PVTZ-JKFIT
	 Reference Energy          =    -380.7418223380609561 [Eh]
	 Singles Energy            =      -0.0000000000000000 [Eh]
	 Same-Spin Energy          =      -0.3648753632701203 [Eh]
	 Opposite-Spin Energy      =      -1.1735949569745165 [Eh]
	 Correlation Energy        =      -1.5384703202446368 [Eh]
	 Total Energy              =    -382.2802926583055978 [Eh]

	 ================> DF-SCS-MP2 Energies <==================
	-----------------------------------------------------------
	 SCS Same-Spin Scale       =       0.3333333333333333 [-]
	 SCS Opposite-Spin Scale   =       1.2000000000000000 [-]
	 SCS Same-Spin Energy      =      -0.1216251210900401 [Eh]
	 SCS Opposite-Spin Energy  =      -1.4083139483694198 [Eh]
	 SCS Correlation Energy    =      -1.5299390694594599 [Eh]
	 SCS Total Energy          =    -382.2717614075204438 [Eh]
	-----------------------------------------------------------

  Dipole Moment: [D]
     X:    -0.0327      Y:    -1.3991      Z:     1.6527     Total:     2.1656

*** Psi4 exiting successfully. Buy a developer a beer!
