                               Psi4 1.3.2 release

  ==> Input File <==

--------------------------------------------------------------------------
#psi4
#
memory 32 gb

molecule  {
0 1
  O        0.7831777    -0.2718817    -0.6559354
  O       -0.5076550    -0.8220740    -0.2452740
  O       -1.0728670     1.3987690    -0.0973370
  C        1.6031630    -0.2426310     0.5338170
  C        2.9657370     0.2196450     0.0595640
  C       -1.3789950     0.2279050    -0.0301100
  C       -2.7361800    -0.3473490     0.2635940
  H        1.1531750     0.4718980     1.2294250
  H        1.6470430    -1.2298650     1.0038120
  H        3.6380680     0.2976270     0.9176960
  H        3.3895360    -0.4934290    -0.6504970
  H        2.8952950     1.1995690    -0.4169390
  H       -3.2299570    -0.5922870    -0.6804890
  H       -2.6567000    -1.2579100     0.8585660
  H       -3.3255750     0.4009600     0.7925810
units angstrom
no_reorient  #important for SAPT in psi4, default
symmetry c1  #important for SAPT in psi4, default
}

set PROPERTIES_ORIGIN ["COM"]
properties('MP2/aug-cc-pvtz', properties = ['dipole'])
--------------------------------------------------------------------------

    Molecular point group: c1
  Charge       = 0
  Multiplicity = 1
  Basis Set: AUG-CC-PVTZ
    Blend: AUG-CC-PVTZ
  Basis Set: (AUG-CC-PVTZ AUX)
    Blend: AUG-CC-PVTZ-JKFIT

    Orbital Energies [Eh]
    ---------------------

    Doubly Occupied:

       1A    -20.657469     2A    -20.639180     3A    -20.554601
       4A    -11.392332     5A    -11.290581     6A    -11.251337
       7A    -11.227349     8A     -1.508260     9A     -1.389558
      10A     -1.266157    11A     -1.034218    12A     -1.004129
      13A     -0.853462    14A     -0.796849    15A     -0.707231
      16A     -0.692991    17A     -0.676025    18A     -0.642968
      19A     -0.615109    20A     -0.598465    21A     -0.582236
      22A     -0.547855    23A     -0.534218    24A     -0.531953
      25A     -0.513377    26A     -0.483254    27A     -0.465593
      28A     -0.453081

  @DF-RHF Final Energy:  -380.76814754128452

   => Energetics <=

    Nuclear Repulsion Energy =            316.3385797647274558
    One-Electron Energy =               -1148.3937799712384731
    Two-Electron Energy =                 451.2870526652264971
    Total Energy =                       -380.7681475412845202
  Basis Set: (AUG-CC-PVTZ AUX)
    Blend: AUG-CC-PVTZ-RI
    Molecular point group: c1

    Geometry (in Angstrom), charge = 0, multiplicity = 1:

       Center              X                  Y                   Z               Mass
    ------------   -----------------  -----------------  -----------------  -----------------
         O            0.819415013356    -0.290656314496    -0.627378875318    15.994914619570
         O           -0.471417686644    -0.840848614496    -0.216717475318    15.994914619570
         O           -1.036629686644     1.379994385504    -0.068780475318    15.994914619570
         C            1.639400313356    -0.261405614496     0.562373524682    12.000000000000
         C            3.001974313356     0.200870385504     0.088120524682    12.000000000000
         C           -1.342757686644     0.209130385504    -0.001553475318    12.000000000000
         C           -2.699942686644    -0.366123614496     0.292150524682    12.000000000000
         H            1.189412313356     0.453123385504     1.257981524682     1.007825032230
         H            1.683280313356    -1.248639614496     1.032368524682     1.007825032230
         H            3.674305313356     0.278852385504     0.946252524682     1.007825032230
         H            3.425773313356    -0.512203614496    -0.621940475318     1.007825032230
         H            2.931532313356     1.180794385504    -0.388382475318     1.007825032230
         H           -3.193719686644    -0.611061614496    -0.651932475318     1.007825032230
         H           -2.620462686644    -1.276684614496     0.887122524682     1.007825032230
         H           -3.289337686644     0.382185385504     0.821137524682     1.007825032230

  Basis Set: AUG-CC-PVTZ
    Blend: AUG-CC-PVTZ
  Basis Set: (AUG-CC-PVTZ AUX)
    Blend: AUG-CC-PVTZ-JKFIT
	 Reference Energy          =    -380.7681475412845202 [Eh]
	 Singles Energy            =      -0.0000000000000000 [Eh]
	 Same-Spin Energy          =      -0.3648462890241841 [Eh]
	 Opposite-Spin Energy      =      -1.1724011311170597 [Eh]
	 Correlation Energy        =      -1.5372474201412438 [Eh]
	 Total Energy              =    -382.3053949614257476 [Eh]

	 ================> DF-SCS-MP2 Energies <==================
	-----------------------------------------------------------
	 SCS Same-Spin Scale       =       0.3333333333333333 [-]
	 SCS Opposite-Spin Scale   =       1.2000000000000000 [-]
	 SCS Same-Spin Energy      =      -0.1216154296747280 [Eh]
	 SCS Opposite-Spin Energy  =      -1.4068813573404715 [Eh]
	 SCS Correlation Energy    =      -1.5284967870151995 [Eh]
	 SCS Total Energy          =    -382.2966443282996920 [Eh]
	-----------------------------------------------------------

  Dipole Moment: [D]
     X:    -0.2039      Y:    -1.5639      Z:     1.6747     Total:     2.3004

*** Psi4 exiting successfully. Buy a developer a beer!
