                               Psi4 1.3.2 release

  ==> Input File <==

--------------------------------------------------------------------------
#psi4
#
memory 32 gb

molecule  {
0 1
  O        0.8098664    -0.3434569    -0.6608054
  O       -0.5076550    -0.8220740    -0.2452740
  O       -1.0728670     1.3987690    -0.0973370
  C        1.6031630    -0.2426310     0.5338170
  C        2.9657370     0.2196450     0.0595640
  C       -1.3789950     0.2279050    -0.0301100
  C       -2.7361800    -0.3473490     0.2635940
  H        1.1531750     0.4718980     1.2294250
  H        1.6470430    -1.2298650     1.0038120
  H        3.6380680     0.2976270     0.9176960
  H        3.3895360    -0.4934290    -0.6504970
  H        2.8952950     1.1995690    -0.4169390
  H       -3.2299570    -0.5922870    -0.6804890
  H       -2.6567000    -1.2579100     0.8585660
  H       -3.3255750     0.4009600     0.7925810
units angstrom
no_reorient  #important for SAPT in psi4, default
symmetry c1  #important for SAPT in psi4, default
}

set PROPERTIES_ORIGIN ["COM"]
properties('MP2/aug-cc-pvtz', properties = ['dipole'])
--------------------------------------------------------------------------

    Molecular point group: c1
  Charge       = 0
  Multiplicity = 1
  Basis Set: AUG-CC-PVTZ
    Blend: AUG-CC-PVTZ
  Basis Set: (AUG-CC-PVTZ AUX)
    Blend: AUG-CC-PVTZ-JKFIT

    Orbital Energies [Eh]
    ---------------------

    Doubly Occupied:

       1A    -20.656243     2A    -20.641111     3A    -20.555512
       4A    -11.393577     5A    -11.290034     6A    -11.252233
       7A    -11.227315     8A     -1.507071     9A     -1.391606
      10A     -1.268662    11A     -1.034775    12A     -1.004412
      13A     -0.854283    14A     -0.796762    15A     -0.707381
      16A     -0.693730    17A     -0.675331    18A     -0.644619
      19A     -0.615178    20A     -0.598559    21A     -0.583490
      22A     -0.548197    23A     -0.536385    24A     -0.533401
      25A     -0.512214    26A     -0.480437    27A     -0.469164
      28A     -0.452439

  @DF-RHF Final Energy:  -380.76929259949765

   => Energetics <=

    Nuclear Repulsion Energy =            315.8803366973205016
    One-Electron Energy =               -1147.4510184493508405
    Two-Electron Energy =                 450.8013891525327494
    Total Energy =                       -380.7692925994976463
  Basis Set: (AUG-CC-PVTZ AUX)
    Blend: AUG-CC-PVTZ-RI
    Molecular point group: c1

    Geometry (in Angstrom), charge = 0, multiplicity = 1:

       Center              X                  Y                   Z               Mass
    ------------   -----------------  -----------------  -----------------  -----------------
         O            0.842000932248    -0.351228454085    -0.631500223492    15.994914619570
         O           -0.475520467752    -0.829845554085    -0.215968823492    15.994914619570
         O           -1.040732467752     1.390997445915    -0.068031823492    15.994914619570
         C            1.635297532248    -0.250402554085     0.563122176508    12.000000000000
         C            2.997871532248     0.211873445915     0.088869176508    12.000000000000
         C           -1.346860467752     0.220133445915    -0.000804823492    12.000000000000
         C           -2.704045467752    -0.355120554085     0.292899176508    12.000000000000
         H            1.185309532248     0.464126445915     1.258730176508     1.007825032230
         H            1.679177532248    -1.237636554085     1.033117176508     1.007825032230
         H            3.670202532248     0.289855445915     0.947001176508     1.007825032230
         H            3.421670532248    -0.501200554085    -0.621191823492     1.007825032230
         H            2.927429532248     1.191797445915    -0.387633823492     1.007825032230
         H           -3.197822467752    -0.600058554085    -0.651183823492     1.007825032230
         H           -2.624565467752    -1.265681554085     0.887871176508     1.007825032230
         H           -3.293440467752     0.393188445915     0.821886176508     1.007825032230

  Basis Set: AUG-CC-PVTZ
    Blend: AUG-CC-PVTZ
  Basis Set: (AUG-CC-PVTZ AUX)
    Blend: AUG-CC-PVTZ-JKFIT
	 Reference Energy          =    -380.7692925994976463 [Eh]
	 Singles Energy            =      -0.0000000000000000 [Eh]
	 Same-Spin Energy          =      -0.3646439736938992 [Eh]
	 Opposite-Spin Energy      =      -1.1719058246342364 [Eh]
	 Correlation Energy        =      -1.5365497983281355 [Eh]
	 Total Energy              =    -382.3058423978257565 [Eh]

	 ================> DF-SCS-MP2 Energies <==================
	-----------------------------------------------------------
	 SCS Same-Spin Scale       =       0.3333333333333333 [-]
	 SCS Opposite-Spin Scale   =       1.2000000000000000 [-]
	 SCS Same-Spin Energy      =      -0.1215479912312997 [Eh]
	 SCS Opposite-Spin Energy  =      -1.4062869895610837 [Eh]
	 SCS Correlation Energy    =      -1.5278349807923834 [Eh]
	 SCS Total Energy          =    -382.2971275802900095 [Eh]
	-----------------------------------------------------------

  Dipole Moment: [D]
     X:    -0.2526      Y:    -1.4790      Z:     1.6824     Total:     2.2543

*** Psi4 exiting successfully. Buy a developer a beer!
