                               Psi4 1.3.2 release

  ==> Input File <==

--------------------------------------------------------------------------
#psi4
#
memory 32 gb

molecule  {
0 1
  O        0.8013680    -0.3194430    -0.6593080
  O       -0.5076550    -0.8220740    -0.2452740
  O       -1.0728670     1.3987690    -0.0973370
  C        1.6031630    -0.2426310     0.5338170
  C        2.9657370     0.2196450     0.0595640
  C       -1.3789950     0.2279050    -0.0301100
  C       -2.6458840    -0.3090763     0.2440533
  H        1.1531750     0.4718980     1.2294250
  H        1.6470430    -1.2298650     1.0038120
  H        3.6380680     0.2976270     0.9176960
  H        3.3895360    -0.4934290    -0.6504970
  H        2.8952950     1.1995690    -0.4169390
  H       -3.2299570    -0.5922870    -0.6804890
  H       -2.6567000    -1.2579100     0.8585660
  H       -3.3255750     0.4009600     0.7925810
units angstrom
no_reorient  #important for SAPT in psi4, default
symmetry c1  #important for SAPT in psi4, default
}

set PROPERTIES_ORIGIN ["COM"]
properties('MP2/aug-cc-pvtz', properties = ['dipole'])
--------------------------------------------------------------------------

    Molecular point group: c1
  Charge       = 0
  Multiplicity = 1
  Basis Set: AUG-CC-PVTZ
    Blend: AUG-CC-PVTZ
  Basis Set: (AUG-CC-PVTZ AUX)
    Blend: AUG-CC-PVTZ-JKFIT

    Orbital Energies [Eh]
    ---------------------

    Doubly Occupied:

       1A    -20.655392     2A    -20.639762     3A    -20.553419
       4A    -11.388472     5A    -11.289690     6A    -11.254744
       7A    -11.226934     8A     -1.507937     9A     -1.391729
      10A     -1.269389    11A     -1.046172    12A     -1.007337
      13A     -0.853419    14A     -0.797311    15A     -0.715795
      16A     -0.694333    17A     -0.677306    18A     -0.649213
      19A     -0.617909    20A     -0.598581    21A     -0.567842
      22A     -0.544321    23A     -0.533423    24A     -0.523034
      25A     -0.510788    26A     -0.480653    27A     -0.468626
      28A     -0.456670

  @DF-RHF Final Energy:  -380.75704967535370

   => Energetics <=

    Nuclear Repulsion Energy =            317.8356879288107848
    One-Electron Energy =               -1151.3450731950479167
    Two-Electron Energy =                 452.7523355908834333
    Total Energy =                       -380.7570496753536986
  Basis Set: (AUG-CC-PVTZ AUX)
    Blend: AUG-CC-PVTZ-RI
    Molecular point group: c1

    Geometry (in Angstrom), charge = 0, multiplicity = 1:

       Center              X                  Y                   Z               Mass
    ------------   -----------------  -----------------  -----------------  -----------------
         O            0.824394939684    -0.335320216823    -0.627979344501    15.994914619570
         O           -0.484628060316    -0.837951216823    -0.213945344501    15.994914619570
         O           -1.049840060316     1.382891783177    -0.066008344501    15.994914619570
         C            1.626189939684    -0.258508216823     0.565145655499    12.000000000000
         C            2.988763939684     0.203767783177     0.090892655499    12.000000000000
         C           -1.355968060316     0.212027783177     0.001218655499    12.000000000000
         C           -2.622857060316    -0.324953516823     0.275381955499    12.000000000000
         H            1.176201939684     0.456020783177     1.260753655499     1.007825032230
         H            1.670069939684    -1.245742216823     1.035140655499     1.007825032230
         H            3.661094939684     0.281749783177     0.949024655499     1.007825032230
         H            3.412562939684    -0.509306216823    -0.619168344501     1.007825032230
         H            2.918321939684     1.183691783177    -0.385610344501     1.007825032230
         H           -3.206930060316    -0.608164216823    -0.649160344501     1.007825032230
         H           -2.633673060316    -1.273787216823     0.889894655499     1.007825032230
         H           -3.302548060316     0.385082783177     0.823909655499     1.007825032230

  Basis Set: AUG-CC-PVTZ
    Blend: AUG-CC-PVTZ
  Basis Set: (AUG-CC-PVTZ AUX)
    Blend: AUG-CC-PVTZ-JKFIT
	 Reference Energy          =    -380.7570496753536986 [Eh]
	 Singles Energy            =      -0.0000000000000000 [Eh]
	 Same-Spin Energy          =      -0.3657903241207696 [Eh]
	 Opposite-Spin Energy      =      -1.1732933549530000 [Eh]
	 Correlation Energy        =      -1.5390836790737696 [Eh]
	 Total Energy              =    -382.2961333544274680 [Eh]

	 ================> DF-SCS-MP2 Energies <==================
	-----------------------------------------------------------
	 SCS Same-Spin Scale       =       0.3333333333333333 [-]
	 SCS Opposite-Spin Scale   =       1.2000000000000000 [-]
	 SCS Same-Spin Energy      =      -0.1219301080402565 [Eh]
	 SCS Opposite-Spin Energy  =      -1.4079520259436000 [Eh]
	 SCS Correlation Energy    =      -1.5298821339838566 [Eh]
	 SCS Total Energy          =    -382.2869318093375455 [Eh]
	-----------------------------------------------------------

  Dipole Moment: [D]
     X:    -0.3899      Y:    -1.5699      Z:     1.6959     Total:     2.3437

*** Psi4 exiting successfully. Buy a developer a beer!
