                               Psi4 1.3.2 release

  ==> Input File <==

--------------------------------------------------------------------------
#psi4
#
memory 32 gb

molecule  {
0 1
  O        0.7421030    -0.1788272    -0.6476939
  O       -0.5076550    -0.8220740    -0.2452740
  O       -1.0728670     1.3987690    -0.0973370
  C        1.6031630    -0.2426310     0.5338170
  C        2.9657370     0.2196450     0.0595640
  C       -1.3789950     0.2279050    -0.0301100
  C       -2.7361800    -0.3473490     0.2635940
  H        1.1531750     0.4718980     1.2294250
  H        1.6470430    -1.2298650     1.0038120
  H        3.6380680     0.2976270     0.9176960
  H        3.3895360    -0.4934290    -0.6504970
  H        2.8952950     1.1995690    -0.4169390
  H       -3.2299570    -0.5922870    -0.6804890
  H       -2.6567000    -1.2579100     0.8585660
  H       -3.3255750     0.4009600     0.7925810
units angstrom
no_reorient  #important for SAPT in psi4, default
symmetry c1  #important for SAPT in psi4, default
}

set PROPERTIES_ORIGIN ["COM"]
properties('MP2/aug-cc-pvtz', properties = ['dipole'])
--------------------------------------------------------------------------

    Molecular point group: c1
  Charge       = 0
  Multiplicity = 1
  Basis Set: AUG-CC-PVTZ
    Blend: AUG-CC-PVTZ
  Basis Set: (AUG-CC-PVTZ AUX)
    Blend: AUG-CC-PVTZ-JKFIT

    Orbital Energies [Eh]
    ---------------------

    Doubly Occupied:

       1A    -20.658284     2A    -20.636445     3A    -20.552900
       4A    -11.390448     5A    -11.292063     6A    -11.249864
       7A    -11.227650     8A     -1.509395     9A     -1.386164
      10A     -1.260799    11A     -1.033427    12A     -1.003991
      13A     -0.852580    14A     -0.796434    15A     -0.706525
      16A     -0.691576    17A     -0.676700    18A     -0.640326
      19A     -0.613930    20A     -0.597463    21A     -0.580408
      22A     -0.547579    23A     -0.532678    24A     -0.528268
      25A     -0.515651    26A     -0.486131    27A     -0.460090
      28A     -0.453465

  @DF-RHF Final Energy:  -380.76266503100186

   => Energetics <=

    Nuclear Repulsion Energy =            316.8770699350687323
    One-Electron Energy =               -1149.5170014990476375
    Two-Electron Energy =                 451.8772665329771030
    Total Energy =                       -380.7626650310018590
  Basis Set: (AUG-CC-PVTZ AUX)
    Blend: AUG-CC-PVTZ-RI
    Molecular point group: c1

    Geometry (in Angstrom), charge = 0, multiplicity = 1:

       Center              X                  Y                   Z               Mass
    ------------   -----------------  -----------------  -----------------  -----------------
         O            0.784654615034    -0.211906829151    -0.620404318650    15.994914619570
         O           -0.465103384966    -0.855153629151    -0.217984418650    15.994914619570
         O           -1.030315384966     1.365689370849    -0.070047418650    15.994914619570
         C            1.645714615034    -0.275710629151     0.561106581350    12.000000000000
         C            3.008288615034     0.186565370849     0.086853581350    12.000000000000
         C           -1.336443384966     0.194825370849    -0.002820418650    12.000000000000
         C           -2.693628384966    -0.380428629151     0.290883581350    12.000000000000
         H            1.195726615034     0.438818370849     1.256714581350     1.007825032230
         H            1.689594615034    -1.262944629151     1.031101581350     1.007825032230
         H            3.680619615034     0.264547370849     0.944985581350     1.007825032230
         H            3.432087615034    -0.526508629151    -0.623207418650     1.007825032230
         H            2.937846615034     1.166489370849    -0.389649418650     1.007825032230
         H           -3.187405384966    -0.625366629151    -0.653199418650     1.007825032230
         H           -2.614148384966    -1.290989629151     0.885855581350     1.007825032230
         H           -3.283023384966     0.367880370849     0.819870581350     1.007825032230

  Basis Set: AUG-CC-PVTZ
    Blend: AUG-CC-PVTZ
  Basis Set: (AUG-CC-PVTZ AUX)
    Blend: AUG-CC-PVTZ-JKFIT
	 Reference Energy          =    -380.7626650310018590 [Eh]
	 Singles Energy            =      -0.0000000000000000 [Eh]
	 Same-Spin Energy          =      -0.3652560796509697 [Eh]
	 Opposite-Spin Energy      =      -1.1734533145751069 [Eh]
	 Correlation Energy        =      -1.5387093942260766 [Eh]
	 Total Energy              =    -382.3013744252279480 [Eh]

	 ================> DF-SCS-MP2 Energies <==================
	-----------------------------------------------------------
	 SCS Same-Spin Scale       =       0.3333333333333333 [-]
	 SCS Opposite-Spin Scale   =       1.2000000000000000 [-]
	 SCS Same-Spin Energy      =      -0.1217520265503232 [Eh]
	 SCS Opposite-Spin Energy  =      -1.4081439774901283 [Eh]
	 SCS Correlation Energy    =      -1.5298960040404515 [Eh]
	 SCS Total Energy          =    -382.2925610350422971 [Eh]
	-----------------------------------------------------------

  Dipole Moment: [D]
     X:    -0.1229      Y:    -1.6711      Z:     1.6645     Total:     2.3619

*** Psi4 exiting successfully. Buy a developer a beer!
