                               Psi4 1.3.2 release

  ==> Input File <==

--------------------------------------------------------------------------
#psi4
#
memory 32 gb

molecule  {
0 1
  O        0.8013680    -0.3194430    -0.6593080
  O       -0.4993641    -0.8231597    -0.2211656
  O       -1.0728670     1.3987690    -0.0973370
  C        1.6031630    -0.2426310     0.5338170
  C        2.9657370     0.2196450     0.0595640
  C       -1.3789950     0.2279050    -0.0301100
  C       -2.7361800    -0.3473490     0.2635940
  H        1.1531750     0.4718980     1.2294250
  H        1.6470430    -1.2298650     1.0038120
  H        3.6380680     0.2976270     0.9176960
  H        3.3895360    -0.4934290    -0.6504970
  H        2.8952950     1.1995690    -0.4169390
  H       -3.2299570    -0.5922870    -0.6804890
  H       -2.6567000    -1.2579100     0.8585660
  H       -3.3255750     0.4009600     0.7925810
units angstrom
no_reorient  #important for SAPT in psi4, default
symmetry c1  #important for SAPT in psi4, default
}

set PROPERTIES_ORIGIN ["COM"]
properties('MP2/aug-cc-pvtz', properties = ['dipole'])
--------------------------------------------------------------------------

    Molecular point group: c1
  Charge       = 0
  Multiplicity = 1
  Basis Set: AUG-CC-PVTZ
    Blend: AUG-CC-PVTZ
  Basis Set: (AUG-CC-PVTZ AUX)
    Blend: AUG-CC-PVTZ-JKFIT

    Orbital Energies [Eh]
    ---------------------

    Doubly Occupied:

       1A    -20.656268     2A    -20.640828     3A    -20.555603
       4A    -11.393508     5A    -11.289760     6A    -11.252123
       7A    -11.226875     8A     -1.507392     9A     -1.391310
      10A     -1.267078    11A     -1.034285    12A     -1.004392
      13A     -0.853582    14A     -0.796969    15A     -0.707474
      16A     -0.693218    17A     -0.675497    18A     -0.643696
      19A     -0.615354    20A     -0.598587    21A     -0.583031
      22A     -0.548071    23A     -0.535291    24A     -0.532885
      25A     -0.512301    26A     -0.482518    27A     -0.467383
      28A     -0.452807

  @DF-RHF Final Energy:  -380.76889814504716

   => Energetics <=

    Nuclear Repulsion Energy =            316.0976776577544456
    One-Electron Energy =               -1147.8969809670682025
    Two-Electron Energy =                 451.0304051642665399
    Total Energy =                       -380.7688981450471601
  Basis Set: (AUG-CC-PVTZ AUX)
    Blend: AUG-CC-PVTZ-RI
    Molecular point group: c1

    Geometry (in Angstrom), charge = 0, multiplicity = 1:

       Center              X                  Y                   Z               Mass
    ------------   -----------------  -----------------  -----------------  -----------------
         O            0.833534430657    -0.330739243778    -0.633939133334    15.994914619570
         O           -0.467197669343    -0.834455943778    -0.195796733334    15.994914619570
         O           -1.040700569343     1.387472756222    -0.071968133334    15.994914619570
         C            1.635329430657    -0.253927243778     0.559185866666    12.000000000000
         C            2.997903430657     0.208348756222     0.084932866666    12.000000000000
         C           -1.346828569343     0.216608756222    -0.004741133334    12.000000000000
         C           -2.704013569343    -0.358645243778     0.288962866666    12.000000000000
         H            1.185341430657     0.460601756222     1.254793866666     1.007825032230
         H            1.679209430657    -1.241161243778     1.029180866666     1.007825032230
         H            3.670234430657     0.286330756222     0.943064866666     1.007825032230
         H            3.421702430657    -0.504725243778    -0.625128133334     1.007825032230
         H            2.927461430657     1.188272756222    -0.391570133334     1.007825032230
         H           -3.197790569343    -0.603583243778    -0.655120133334     1.007825032230
         H           -2.624533569343    -1.269206243778     0.883934866666     1.007825032230
         H           -3.293408569343     0.389663756222     0.817949866666     1.007825032230

  Basis Set: AUG-CC-PVTZ
    Blend: AUG-CC-PVTZ
  Basis Set: (AUG-CC-PVTZ AUX)
    Blend: AUG-CC-PVTZ-JKFIT
	 Reference Energy          =    -380.7688981450471601 [Eh]
	 Singles Energy            =      -0.0000000000000000 [Eh]
	 Same-Spin Energy          =      -0.3647633156772130 [Eh]
	 Opposite-Spin Energy      =      -1.1722197931179494 [Eh]
	 Correlation Energy        =      -1.5369831087951624 [Eh]
	 Total Energy              =    -382.3058812538423012 [Eh]

	 ================> DF-SCS-MP2 Energies <==================
	-----------------------------------------------------------
	 SCS Same-Spin Scale       =       0.3333333333333333 [-]
	 SCS Opposite-Spin Scale   =       1.2000000000000000 [-]
	 SCS Same-Spin Energy      =      -0.1215877718924043 [Eh]
	 SCS Opposite-Spin Energy  =      -1.4066637517415392 [Eh]
	 SCS Correlation Energy    =      -1.5282515236339436 [Eh]
	 SCS Total Energy          =    -382.2971496686811292 [Eh]
	-----------------------------------------------------------

  Dipole Moment: [D]
     X:    -0.2595      Y:    -1.5014      Z:     1.6606     Total:     2.2536

*** Psi4 exiting successfully. Buy a developer a beer!
