                               Psi4 1.3.2 release

  ==> Input File <==

--------------------------------------------------------------------------
#psi4
#
memory 32 gb

molecule  {
0 1
  O        0.8013680    -0.3194430    -0.6593080
  O       -0.5810700    -0.8821216    -0.2279523
  O       -1.0728670     1.3987690    -0.0973370
  C        1.6031630    -0.2426310     0.5338170
  C        2.9657370     0.2196450     0.0595640
  C       -1.3789950     0.2279050    -0.0301100
  C       -2.7361800    -0.3473490     0.2635940
  H        1.1531750     0.4718980     1.2294250
  H        1.6470430    -1.2298650     1.0038120
  H        3.6380680     0.2976270     0.9176960
  H        3.3895360    -0.4934290    -0.6504970
  H        2.8952950     1.1995690    -0.4169390
  H       -3.2299570    -0.5922870    -0.6804890
  H       -2.6567000    -1.2579100     0.8585660
  H       -3.3255750     0.4009600     0.7925810
units angstrom
no_reorient  #important for SAPT in psi4, default
symmetry c1  #important for SAPT in psi4, default
}

set PROPERTIES_ORIGIN ["COM"]
properties('MP2/aug-cc-pvtz', properties = ['dipole'])
--------------------------------------------------------------------------

    Molecular point group: c1
  Charge       = 0
  Multiplicity = 1
  Basis Set: AUG-CC-PVTZ
    Blend: AUG-CC-PVTZ
  Basis Set: (AUG-CC-PVTZ AUX)
    Blend: AUG-CC-PVTZ-JKFIT

    Orbital Energies [Eh]
    ---------------------

    Doubly Occupied:

       1A    -20.661927     2A    -20.647321     3A    -20.557877
       4A    -11.393754     5A    -11.292784     6A    -11.247042
       7A    -11.230141     8A     -1.482863     9A     -1.387270
      10A     -1.283146    11A     -1.031129    12A     -1.004228
      13A     -0.851856    14A     -0.790049    15A     -0.702040
      16A     -0.688016    17A     -0.669241    18A     -0.645785
      19A     -0.617068    20A     -0.596595    21A     -0.579209
      22A     -0.547067    23A     -0.540040    24A     -0.536431
      25A     -0.503648    26A     -0.487994    27A     -0.470723
      28A     -0.453187

  @DF-RHF Final Energy:  -380.75352737103520

   => Energetics <=

    Nuclear Repulsion Energy =            314.1749514634705065
    One-Electron Energy =               -1144.0600961715208541
    Two-Electron Energy =                 449.1316173370151432
    Total Energy =                       -380.7535273710352044
  Basis Set: (AUG-CC-PVTZ AUX)
    Blend: AUG-CC-PVTZ-RI
    Molecular point group: c1

    Geometry (in Angstrom), charge = 0, multiplicity = 1:

       Center              X                  Y                   Z               Mass
    ------------   -----------------  -----------------  -----------------  -----------------
         O            0.846094855967    -0.321675191598    -0.632895832441    15.994914619570
         O           -0.536343144033    -0.884353791598    -0.201540132441    15.994914619570
         O           -1.028140144033     1.396536808402    -0.070924832441    15.994914619570
         C            1.647889855967    -0.244863191598     0.560229167559    12.000000000000
         C            3.010463855967     0.217412808402     0.085976167559    12.000000000000
         C           -1.334268144033     0.225672808402    -0.003697832441    12.000000000000
         C           -2.691453144033    -0.349581191598     0.290006167559    12.000000000000
         H            1.197901855967     0.469665808402     1.255837167559     1.007825032230
         H            1.691769855967    -1.232097191598     1.030224167559     1.007825032230
         H            3.682794855967     0.295394808402     0.944108167559     1.007825032230
         H            3.434262855967    -0.495661191598    -0.624084832441     1.007825032230
         H            2.940021855967     1.197336808402    -0.390526832441     1.007825032230
         H           -3.185230144033    -0.594519191598    -0.654076832441     1.007825032230
         H           -2.611973144033    -1.260142191598     0.884978167559     1.007825032230
         H           -3.280848144033     0.398727808402     0.818993167559     1.007825032230

  Basis Set: AUG-CC-PVTZ
    Blend: AUG-CC-PVTZ
  Basis Set: (AUG-CC-PVTZ AUX)
    Blend: AUG-CC-PVTZ-JKFIT
	 Reference Energy          =    -380.7535273710352044 [Eh]
	 Singles Energy            =      -0.0000000000000000 [Eh]
	 Same-Spin Energy          =      -0.3668415507779503 [Eh]
	 Opposite-Spin Energy      =      -1.1795012834690979 [Eh]
	 Correlation Energy        =      -1.5463428342470482 [Eh]
	 Total Energy              =    -382.2998702052822750 [Eh]

	 ================> DF-SCS-MP2 Energies <==================
	-----------------------------------------------------------
	 SCS Same-Spin Scale       =       0.3333333333333333 [-]
	 SCS Opposite-Spin Scale   =       1.2000000000000000 [-]
	 SCS Same-Spin Energy      =      -0.1222805169259834 [Eh]
	 SCS Opposite-Spin Energy  =      -1.4154015401629174 [Eh]
	 SCS Correlation Energy    =      -1.5376820570889009 [Eh]
	 SCS Total Energy          =    -382.2912094281240911 [Eh]
	-----------------------------------------------------------

  Dipole Moment: [D]
     X:    -0.1184      Y:    -1.4313      Z:     1.6795     Total:     2.2098

*** Psi4 exiting successfully. Buy a developer a beer!
