                               Psi4 1.3.2 release

  ==> Input File <==

--------------------------------------------------------------------------
#psi4
#
memory 32 gb

molecule  {
0 1
  O        0.8013680    -0.3194430    -0.6593080
  O       -0.5257336    -0.8375716    -0.2415085
  O       -1.0728670     1.3987690    -0.0973370
  C        1.6031630    -0.2426310     0.5338170
  C        2.9657370     0.2196450     0.0595640
  C       -1.3789950     0.2279050    -0.0301100
  C       -2.7361800    -0.3473490     0.2635940
  H        1.1531750     0.4718980     1.2294250
  H        1.6470430    -1.2298650     1.0038120
  H        3.6380680     0.2976270     0.9176960
  H        3.3895360    -0.4934290    -0.6504970
  H        2.8952950     1.1995690    -0.4169390
  H       -3.2299570    -0.5922870    -0.6804890
  H       -2.6567000    -1.2579100     0.8585660
  H       -3.3255750     0.4009600     0.7925810
units angstrom
no_reorient  #important for SAPT in psi4, default
symmetry c1  #important for SAPT in psi4, default
}

set PROPERTIES_ORIGIN ["COM"]
properties('MP2/aug-cc-pvtz', properties = ['dipole'])
--------------------------------------------------------------------------

    Molecular point group: c1
  Charge       = 0
  Multiplicity = 1
  Basis Set: AUG-CC-PVTZ
    Blend: AUG-CC-PVTZ
  Basis Set: (AUG-CC-PVTZ AUX)
    Blend: AUG-CC-PVTZ-JKFIT

    Orbital Energies [Eh]
    ---------------------

    Doubly Occupied:

       1A    -20.658203     2A    -20.642150     3A    -20.555951
       4A    -11.393312     5A    -11.290814     6A    -11.250727
       7A    -11.228006     8A     -1.500590     9A     -1.390078
      10A     -1.271871    11A     -1.033678    12A     -1.004278
      13A     -0.853259    14A     -0.795004    15A     -0.705852
      16A     -0.692134    17A     -0.673770    18A     -0.644493
      19A     -0.615556    20A     -0.598132    21A     -0.582091
      22A     -0.547730    23A     -0.536659    24A     -0.533908
      25A     -0.510719    26A     -0.483208    27A     -0.468599
      28A     -0.453403

  @DF-RHF Final Energy:  -380.76624136162093

   => Energetics <=

    Nuclear Repulsion Energy =            315.5528546405848829
    One-Electron Energy =               -1146.8098458502443009
    Two-Electron Energy =                 450.4907498480384902
    Total Energy =                       -380.7662413616209278
  Basis Set: (AUG-CC-PVTZ AUX)
    Blend: AUG-CC-PVTZ-RI
    Molecular point group: c1

    Geometry (in Angstrom), charge = 0, multiplicity = 1:

       Center              X                  Y                   Z               Mass
    ------------   -----------------  -----------------  -----------------  -----------------
         O            0.837588142020    -0.328523741672    -0.630811874764    15.994914619570
         O           -0.489513457980    -0.846652341672    -0.213012374764    15.994914619570
         O           -1.036646857980     1.389688258328    -0.068840874764    15.994914619570
         C            1.639383142020    -0.251711741672     0.562313125236    12.000000000000
         C            3.001957142020     0.210564258328     0.088060125236    12.000000000000
         C           -1.342774857980     0.218824258328    -0.001613874764    12.000000000000
         C           -2.699959857980    -0.356429741672     0.292090125236    12.000000000000
         H            1.189395142020     0.462817258328     1.257921125236     1.007825032230
         H            1.683263142020    -1.238945741672     1.032308125236     1.007825032230
         H            3.674288142020     0.288546258328     0.946192125236     1.007825032230
         H            3.425756142020    -0.502509741672    -0.622000874764     1.007825032230
         H            2.931515142020     1.190488258328    -0.388442874764     1.007825032230
         H           -3.193736857980    -0.601367741672    -0.651992874764     1.007825032230
         H           -2.620479857980    -1.266990741672     0.887062125236     1.007825032230
         H           -3.289354857980     0.391879258328     0.821077125236     1.007825032230

  Basis Set: AUG-CC-PVTZ
    Blend: AUG-CC-PVTZ
  Basis Set: (AUG-CC-PVTZ AUX)
    Blend: AUG-CC-PVTZ-JKFIT
	 Reference Energy          =    -380.7662413616209278 [Eh]
	 Singles Energy            =      -0.0000000000000000 [Eh]
	 Same-Spin Energy          =      -0.3651892657284067 [Eh]
	 Opposite-Spin Energy      =      -1.1737937888039607 [Eh]
	 Correlation Energy        =      -1.5389830545323673 [Eh]
	 Total Energy              =    -382.3052244161532940 [Eh]

	 ================> DF-SCS-MP2 Energies <==================
	-----------------------------------------------------------
	 SCS Same-Spin Scale       =       0.3333333333333333 [-]
	 SCS Opposite-Spin Scale   =       1.2000000000000000 [-]
	 SCS Same-Spin Energy      =      -0.1217297552428022 [Eh]
	 SCS Opposite-Spin Energy  =      -1.4085525465647528 [Eh]
	 SCS Correlation Energy    =      -1.5302823018075551 [Eh]
	 SCS Total Energy          =    -382.2965236634285020 [Eh]
	-----------------------------------------------------------

  Dipole Moment: [D]
     X:    -0.2051      Y:    -1.4873      Z:     1.6799     Total:     2.2531

*** Psi4 exiting successfully. Buy a developer a beer!
