                               Psi4 1.3.2 release

  ==> Input File <==

--------------------------------------------------------------------------
#psi4
#
memory 32 gb

molecule  {
0 1
  O        0.7818370    -0.3270079    -0.6454314
  O       -0.5076550    -0.8220740    -0.2452740
  O       -1.0728670     1.3987690    -0.0973370
  C        1.6031630    -0.2426310     0.5338170
  C        2.9657370     0.2196450     0.0595640
  C       -1.3789950     0.2279050    -0.0301100
  C       -2.7361800    -0.3473490     0.2635940
  H        1.1531750     0.4718980     1.2294250
  H        1.6470430    -1.2298650     1.0038120
  H        3.6380680     0.2976270     0.9176960
  H        3.3895360    -0.4934290    -0.6504970
  H        2.8952950     1.1995690    -0.4169390
  H       -3.2299570    -0.5922870    -0.6804890
  H       -2.6567000    -1.2579100     0.8585660
  H       -3.3255750     0.4009600     0.7925810
units angstrom
no_reorient  #important for SAPT in psi4, default
symmetry c1  #important for SAPT in psi4, default
}

set PROPERTIES_ORIGIN ["COM"]
properties('MP2/aug-cc-pvtz', properties = ['dipole'])
--------------------------------------------------------------------------

    Molecular point group: c1
  Charge       = 0
  Multiplicity = 1
  Basis Set: AUG-CC-PVTZ
    Blend: AUG-CC-PVTZ
  Basis Set: (AUG-CC-PVTZ AUX)
    Blend: AUG-CC-PVTZ-JKFIT

    Orbital Energies [Eh]
    ---------------------

    Doubly Occupied:

       1A    -20.657511     2A    -20.636770     3A    -20.555603
       4A    -11.393191     5A    -11.289646     6A    -11.251926
       7A    -11.227505     8A     -1.516187     9A     -1.392026
      10A     -1.264556    11A     -1.035636    12A     -1.003799
      13A     -0.855192    14A     -0.798992    15A     -0.709049
      16A     -0.695891    17A     -0.678231    18A     -0.643409
      19A     -0.614406    20A     -0.599981    21A     -0.583333
      22A     -0.548614    23A     -0.535255    24A     -0.531751
      25A     -0.514833    26A     -0.479578    27A     -0.467505
      28A     -0.451532

  @DF-RHF Final Energy:  -380.77142522741855

   => Energetics <=

    Nuclear Repulsion Energy =            316.5525690642346035
    One-Electron Energy =               -1148.7841777669386829
    Two-Electron Energy =                 451.4601834752855325
    Total Energy =                       -380.7714252274185469
  Basis Set: (AUG-CC-PVTZ AUX)
    Blend: AUG-CC-PVTZ-RI
    Molecular point group: c1

    Geometry (in Angstrom), charge = 0, multiplicity = 1:

       Center              X                  Y                   Z               Mass
    ------------   -----------------  -----------------  -----------------  -----------------
         O            0.818280415513    -0.337308114022    -0.618489626608    15.994914619570
         O           -0.471211584487    -0.832374214022    -0.218332226608    15.994914619570
         O           -1.036423584487     1.388468785978    -0.070395226608    15.994914619570
         C            1.639606415513    -0.252931214022     0.560758773392    12.000000000000
         C            3.002180415513     0.209344785978     0.086505773392    12.000000000000
         C           -1.342551584487     0.217604785978    -0.003168226608    12.000000000000
         C           -2.699736584487    -0.357649214022     0.290535773392    12.000000000000
         H            1.189618415513     0.461597785978     1.256366773392     1.007825032230
         H            1.683486415513    -1.240165214022     1.030753773392     1.007825032230
         H            3.674511415513     0.287326785978     0.944637773392     1.007825032230
         H            3.425979415513    -0.503729214022    -0.623555226608     1.007825032230
         H            2.931738415513     1.189268785978    -0.389997226608     1.007825032230
         H           -3.193513584487    -0.602587214022    -0.653547226608     1.007825032230
         H           -2.620256584487    -1.268210214022     0.885507773392     1.007825032230
         H           -3.289131584487     0.390659785978     0.819522773392     1.007825032230

  Basis Set: AUG-CC-PVTZ
    Blend: AUG-CC-PVTZ
  Basis Set: (AUG-CC-PVTZ AUX)
    Blend: AUG-CC-PVTZ-JKFIT
	 Reference Energy          =    -380.7714252274185469 [Eh]
	 Singles Energy            =      -0.0000000000000000 [Eh]
	 Same-Spin Energy          =      -0.3642724936214802 [Eh]
	 Opposite-Spin Energy      =      -1.1703844338795224 [Eh]
	 Correlation Energy        =      -1.5346569275010027 [Eh]
	 Total Energy              =    -382.3060821549195225 [Eh]

	 ================> DF-SCS-MP2 Energies <==================
	-----------------------------------------------------------
	 SCS Same-Spin Scale       =       0.3333333333333333 [-]
	 SCS Opposite-Spin Scale   =       1.2000000000000000 [-]
	 SCS Same-Spin Energy      =      -0.1214241645404934 [Eh]
	 SCS Opposite-Spin Energy  =      -1.4044613206554268 [Eh]
	 SCS Correlation Energy    =      -1.5258854851959203 [Eh]
	 SCS Total Energy          =    -382.2973107126144896 [Eh]
	-----------------------------------------------------------

  Dipole Moment: [D]
     X:    -0.2094      Y:    -1.5058      Z:     1.6654     Total:     2.2549

*** Psi4 exiting successfully. Buy a developer a beer!
