                               Psi4 1.3.2 release

  ==> Input File <==

--------------------------------------------------------------------------
#psi4
#
memory 32 gb

molecule  {
0 1
  O        0.8013680    -0.3194430    -0.6593080
  O       -0.4906770    -0.8240919    -0.1971906
  O       -1.0728670     1.3987690    -0.0973370
  C        1.6031630    -0.2426310     0.5338170
  C        2.9657370     0.2196450     0.0595640
  C       -1.3789950     0.2279050    -0.0301100
  C       -2.7361800    -0.3473490     0.2635940
  H        1.1531750     0.4718980     1.2294250
  H        1.6470430    -1.2298650     1.0038120
  H        3.6380680     0.2976270     0.9176960
  H        3.3895360    -0.4934290    -0.6504970
  H        2.8952950     1.1995690    -0.4169390
  H       -3.2299570    -0.5922870    -0.6804890
  H       -2.6567000    -1.2579100     0.8585660
  H       -3.3255750     0.4009600     0.7925810
units angstrom
no_reorient  #important for SAPT in psi4, default
symmetry c1  #important for SAPT in psi4, default
}

set PROPERTIES_ORIGIN ["COM"]
properties('MP2/aug-cc-pvtz', properties = ['dipole'])
--------------------------------------------------------------------------

    Molecular point group: c1
  Charge       = 0
  Multiplicity = 1
  Basis Set: AUG-CC-PVTZ
    Blend: AUG-CC-PVTZ
  Basis Set: (AUG-CC-PVTZ AUX)
    Blend: AUG-CC-PVTZ-JKFIT

    Orbital Energies [Eh]
    ---------------------

    Doubly Occupied:

       1A    -20.655749     2A    -20.641077     3A    -20.556083
       4A    -11.393913     5A    -11.289330     6A    -11.252345
       7A    -11.226400     8A     -1.507138     9A     -1.391709
      10A     -1.265962    11A     -1.033965    12A     -1.004493
      13A     -0.853157    14A     -0.796995    15A     -0.707572
      16A     -0.692866    17A     -0.675326    18A     -0.643251
      19A     -0.615497    20A     -0.598580    21A     -0.582997
      22A     -0.548072    23A     -0.534907    24A     -0.532804
      25A     -0.511970    26A     -0.483578    27A     -0.466713
      28A     -0.452930

  @DF-RHF Final Energy:  -380.76839455274114

   => Energetics <=

    Nuclear Repulsion Energy =            316.1461657079026395
    One-Electron Energy =               -1147.9983632378598486
    Two-Electron Energy =                 451.0838029772161235
    Total Energy =                       -380.7683945527411424
  Basis Set: (AUG-CC-PVTZ AUX)
    Blend: AUG-CC-PVTZ-RI
    Molecular point group: c1

    Geometry (in Angstrom), charge = 0, multiplicity = 1:

       Center              X                  Y                   Z               Mass
    ------------   -----------------  -----------------  -----------------  -----------------
         O            0.832198986452    -0.330595939213    -0.637624744738    15.994914619570
         O           -0.459846013548    -0.835244839213    -0.175507344738    15.994914619570
         O           -1.042036013548     1.387616060787    -0.075653744738    15.994914619570
         C            1.633993986452    -0.253783939213     0.555500255262    12.000000000000
         C            2.996567986452     0.208492060787     0.081247255262    12.000000000000
         C           -1.348164013548     0.216752060787    -0.008426744738    12.000000000000
         C           -2.705349013548    -0.358501939213     0.285277255262    12.000000000000
         H            1.184005986452     0.460745060787     1.251108255262     1.007825032230
         H            1.677873986452    -1.241017939213     1.025495255262     1.007825032230
         H            3.668898986452     0.286474060787     0.939379255262     1.007825032230
         H            3.420366986452    -0.504581939213    -0.628813744738     1.007825032230
         H            2.926125986452     1.188416060787    -0.395255744738     1.007825032230
         H           -3.199126013548    -0.603439939213    -0.658805744738     1.007825032230
         H           -2.625869013548    -1.269062939213     0.880249255262     1.007825032230
         H           -3.294744013548     0.389807060787     0.814264255262     1.007825032230

  Basis Set: AUG-CC-PVTZ
    Blend: AUG-CC-PVTZ
  Basis Set: (AUG-CC-PVTZ AUX)
    Blend: AUG-CC-PVTZ-JKFIT
	 Reference Energy          =    -380.7683945527411424 [Eh]
	 Singles Energy            =      -0.0000000000000000 [Eh]
	 Same-Spin Energy          =      -0.3648340752597418 [Eh]
	 Opposite-Spin Energy      =      -1.1724291892890861 [Eh]
	 Correlation Energy        =      -1.5372632645488280 [Eh]
	 Total Energy              =    -382.3056578172899549 [Eh]

	 ================> DF-SCS-MP2 Energies <==================
	-----------------------------------------------------------
	 SCS Same-Spin Scale       =       0.3333333333333333 [-]
	 SCS Opposite-Spin Scale   =       1.2000000000000000 [-]
	 SCS Same-Spin Energy      =      -0.1216113584199139 [Eh]
	 SCS Opposite-Spin Energy  =      -1.4069150271469033 [Eh]
	 SCS Correlation Energy    =      -1.5285263855668172 [Eh]
	 SCS Total Energy          =    -382.2969209383079487 [Eh]
	-----------------------------------------------------------

  Dipole Moment: [D]
     X:    -0.2855      Y:    -1.4931      Z:     1.6415     Total:     2.2372

*** Psi4 exiting successfully. Buy a developer a beer!
