                               Psi4 1.3.2 release

  ==> Input File <==

--------------------------------------------------------------------------
#psi4
#
memory 32 gb

molecule  {
0 1
  O        0.8818739    -0.2889727    -0.7111396
  O       -0.5076550    -0.8220740    -0.2452740
  O       -1.0728670     1.3987690    -0.0973370
  C        1.6031630    -0.2426310     0.5338170
  C        2.9657370     0.2196450     0.0595640
  C       -1.3789950     0.2279050    -0.0301100
  C       -2.7361800    -0.3473490     0.2635940
  H        1.1531750     0.4718980     1.2294250
  H        1.6470430    -1.2298650     1.0038120
  H        3.6380680     0.2976270     0.9176960
  H        3.3895360    -0.4934290    -0.6504970
  H        2.8952950     1.1995690    -0.4169390
  H       -3.2299570    -0.5922870    -0.6804890
  H       -2.6567000    -1.2579100     0.8585660
  H       -3.3255750     0.4009600     0.7925810
units angstrom
no_reorient  #important for SAPT in psi4, default
symmetry c1  #important for SAPT in psi4, default
}

set PROPERTIES_ORIGIN ["COM"]
properties('MP2/aug-cc-pvtz', properties = ['dipole'])
--------------------------------------------------------------------------

    Molecular point group: c1
  Charge       = 0
  Multiplicity = 1
  Basis Set: AUG-CC-PVTZ
    Blend: AUG-CC-PVTZ
  Basis Set: (AUG-CC-PVTZ AUX)
    Blend: AUG-CC-PVTZ-JKFIT

    Orbital Energies [Eh]
    ---------------------

    Doubly Occupied:

       1A    -20.655425     2A    -20.652347     3A    -20.553424
       4A    -11.392294     5A    -11.292992     6A    -11.251557
       7A    -11.227125     8A     -1.479036     9A     -1.386319
      10A     -1.280916    11A     -1.030782    12A     -1.006126
      13A     -0.852175    14A     -0.788014    15A     -0.702197
      16A     -0.684191    17A     -0.666802    18A     -0.646999
      19A     -0.619737    20A     -0.593070    21A     -0.581551
      22A     -0.546437    23A     -0.539568    24A     -0.537860
      25A     -0.499186    26A     -0.486787    27A     -0.471526
      28A     -0.453317

  @DF-RHF Final Energy:  -380.75364008044096

   => Energetics <=

    Nuclear Repulsion Energy =            314.1133167292755388
    One-Electron Energy =               -1143.9783902265039615
    Two-Electron Energy =                 449.1114334167874631
    Total Energy =                       -380.7536400804409595
  Basis Set: (AUG-CC-PVTZ AUX)
    Blend: AUG-CC-PVTZ-RI
    Molecular point group: c1

    Geometry (in Angstrom), charge = 0, multiplicity = 1:

       Center              X                  Y                   Z               Mass
    ------------   -----------------  -----------------  -----------------  -----------------
         O            0.902938915536    -0.305119961649    -0.674096684117    15.994914619570
         O           -0.486589984464    -0.838221261649    -0.208231084117    15.994914619570
         O           -1.051801984464     1.382621738351    -0.060294084117    15.994914619570
         C            1.624228015536    -0.258778261649     0.570859915883    12.000000000000
         C            2.986802015536     0.203497738351     0.096606915883    12.000000000000
         C           -1.357929984464     0.211757738351     0.006932915883    12.000000000000
         C           -2.715114984464    -0.363496261649     0.300636915883    12.000000000000
         H            1.174240015536     0.455750738351     1.266467915883     1.007825032230
         H            1.668108015536    -1.246012261649     1.040854915883     1.007825032230
         H            3.659133015536     0.281479738351     0.954738915883     1.007825032230
         H            3.410601015536    -0.509576261649    -0.613454084117     1.007825032230
         H            2.916360015536     1.183421738351    -0.379896084117     1.007825032230
         H           -3.208891984464    -0.608434261649    -0.643446084117     1.007825032230
         H           -2.635634984464    -1.274057261649     0.895608915883     1.007825032230
         H           -3.304509984464     0.384812738351     0.829623915883     1.007825032230

  Basis Set: AUG-CC-PVTZ
    Blend: AUG-CC-PVTZ
  Basis Set: (AUG-CC-PVTZ AUX)
    Blend: AUG-CC-PVTZ-JKFIT
	 Reference Energy          =    -380.7536400804409595 [Eh]
	 Singles Energy            =      -0.0000000000000000 [Eh]
	 Same-Spin Energy          =      -0.3666608021550302 [Eh]
	 Opposite-Spin Energy      =      -1.1791891878556491 [Eh]
	 Correlation Energy        =      -1.5458499900106792 [Eh]
	 Total Energy              =    -382.2994900704516112 [Eh]

	 ================> DF-SCS-MP2 Energies <==================
	-----------------------------------------------------------
	 SCS Same-Spin Scale       =       0.3333333333333333 [-]
	 SCS Opposite-Spin Scale   =       1.2000000000000000 [-]
	 SCS Same-Spin Energy      =      -0.1222202673850100 [Eh]
	 SCS Opposite-Spin Energy  =      -1.4150270254267789 [Eh]
	 SCS Correlation Energy    =      -1.5372472928117891 [Eh]
	 SCS Total Energy          =    -382.2908873732527582 [Eh]
	-----------------------------------------------------------

  Dipole Moment: [D]
     X:    -0.3720      Y:    -1.5197      Z:     1.7380     Total:     2.3385

*** Psi4 exiting successfully. Buy a developer a beer!
