                               Psi4 1.3.2 release

  ==> Input File <==

--------------------------------------------------------------------------
#psi4
#
memory 32 gb

molecule  {
0 1
  O        0.8013680    -0.3194430    -0.6593080
  O       -0.5076550    -0.8220740    -0.2452740
  O       -1.0728670     1.3987690    -0.0973370
  C        1.6031630    -0.2426310     0.5338170
  C        2.9657370     0.2196450     0.0595640
  C       -1.3886046     0.2220234    -0.0813493
  C       -2.7361800    -0.3473490     0.2635940
  H        1.1531750     0.4718980     1.2294250
  H        1.6470430    -1.2298650     1.0038120
  H        3.6380680     0.2976270     0.9176960
  H        3.3895360    -0.4934290    -0.6504970
  H        2.8952950     1.1995690    -0.4169390
  H       -3.2299570    -0.5922870    -0.6804890
  H       -2.6567000    -1.2579100     0.8585660
  H       -3.3255750     0.4009600     0.7925810
units angstrom
no_reorient  #important for SAPT in psi4, default
symmetry c1  #important for SAPT in psi4, default
}

set PROPERTIES_ORIGIN ["COM"]
properties('MP2/aug-cc-pvtz', properties = ['dipole'])
--------------------------------------------------------------------------

    Molecular point group: c1
  Charge       = 0
  Multiplicity = 1
  Basis Set: AUG-CC-PVTZ
    Blend: AUG-CC-PVTZ
  Basis Set: (AUG-CC-PVTZ AUX)
    Blend: AUG-CC-PVTZ-JKFIT

    Orbital Energies [Eh]
    ---------------------

    Doubly Occupied:

       1A    -20.658042     2A    -20.641223     3A    -20.553697
       4A    -11.393719     5A    -11.290220     6A    -11.251930
       7A    -11.227422     8A     -1.509009     9A     -1.386487
      10A     -1.269526    11A     -1.034716    12A     -1.004408
      13A     -0.853899    14A     -0.798190    15A     -0.707182
      16A     -0.693091    17A     -0.676655    18A     -0.643922
      19A     -0.613211    20A     -0.599139    21A     -0.583414
      22A     -0.547435    23A     -0.536005    24A     -0.532547
      25A     -0.512697    26A     -0.481724    27A     -0.465893
      28A     -0.452316

  @DF-RHF Final Energy:  -380.76783290904643

   => Energetics <=

    Nuclear Repulsion Energy =            315.9600160688097503
    One-Electron Energy =               -1147.6202518695395156
    Two-Electron Energy =                 450.8924028916833322
    Total Energy =                       -380.7678329090464331
  Basis Set: (AUG-CC-PVTZ AUX)
    Blend: AUG-CC-PVTZ-RI
    Molecular point group: c1

    Geometry (in Angstrom), charge = 0, multiplicity = 1:

       Center              X                  Y                   Z               Mass
    ------------   -----------------  -----------------  -----------------  -----------------
         O            0.835917263585    -0.330227808127    -0.624323477999    15.994914619570
         O           -0.473105736415    -0.832858808127    -0.210289477999    15.994914619570
         O           -1.038317736415     1.387984191873    -0.062352477999    15.994914619570
         C            1.637712263585    -0.253415808127     0.568801522001    12.000000000000
         C            3.000286263585     0.208860191873     0.094548522001    12.000000000000
         C           -1.354055336415     0.211238591873    -0.046364777999    12.000000000000
         C           -2.701630736415    -0.358133808127     0.298578522001    12.000000000000
         H            1.187724263585     0.461113191873     1.264409522001     1.007825032230
         H            1.681592263585    -1.240649808127     1.038796522001     1.007825032230
         H            3.672617263585     0.286842191873     0.952680522001     1.007825032230
         H            3.424085263585    -0.504213808127    -0.615512477999     1.007825032230
         H            2.929844263585     1.188784191873    -0.381954477999     1.007825032230
         H           -3.195407736415    -0.603071808127    -0.645504477999     1.007825032230
         H           -2.622150736415    -1.268694808127     0.893550522001     1.007825032230
         H           -3.291025736415     0.390175191873     0.827565522001     1.007825032230

  Basis Set: AUG-CC-PVTZ
    Blend: AUG-CC-PVTZ
  Basis Set: (AUG-CC-PVTZ AUX)
    Blend: AUG-CC-PVTZ-JKFIT
	 Reference Energy          =    -380.7678329090464331 [Eh]
	 Singles Energy            =      -0.0000000000000000 [Eh]
	 Same-Spin Energy          =      -0.3647671130825636 [Eh]
	 Opposite-Spin Energy      =      -1.1721473284009680 [Eh]
	 Correlation Energy        =      -1.5369144414835316 [Eh]
	 Total Energy              =    -382.3047473505299649 [Eh]

	 ================> DF-SCS-MP2 Energies <==================
	-----------------------------------------------------------
	 SCS Same-Spin Scale       =       0.3333333333333333 [-]
	 SCS Opposite-Spin Scale   =       1.2000000000000000 [-]
	 SCS Same-Spin Energy      =      -0.1215890376941879 [Eh]
	 SCS Opposite-Spin Energy  =      -1.4065767940811615 [Eh]
	 SCS Correlation Energy    =      -1.5281658317753495 [Eh]
	 SCS Total Energy          =    -382.2959987408218012 [Eh]
	-----------------------------------------------------------

  Dipole Moment: [D]
     X:    -0.2265      Y:    -1.5519      Z:     1.6301     Total:     2.2621

*** Psi4 exiting successfully. Buy a developer a beer!
