                               Psi4 1.3.2 release

  ==> Input File <==

--------------------------------------------------------------------------
#psi4
#
memory 32 gb

molecule  {
0 1
  O        0.8013680    -0.3194430    -0.6593080
  O       -0.4721248    -0.8254950    -0.1496702
  O       -1.0728670     1.3987690    -0.0973370
  C        1.6031630    -0.2426310     0.5338170
  C        2.9657370     0.2196450     0.0595640
  C       -1.3789950     0.2279050    -0.0301100
  C       -2.7361800    -0.3473490     0.2635940
  H        1.1531750     0.4718980     1.2294250
  H        1.6470430    -1.2298650     1.0038120
  H        3.6380680     0.2976270     0.9176960
  H        3.3895360    -0.4934290    -0.6504970
  H        2.8952950     1.1995690    -0.4169390
  H       -3.2299570    -0.5922870    -0.6804890
  H       -2.6567000    -1.2579100     0.8585660
  H       -3.3255750     0.4009600     0.7925810
units angstrom
no_reorient  #important for SAPT in psi4, default
symmetry c1  #important for SAPT in psi4, default
}

set PROPERTIES_ORIGIN ["COM"]
properties('MP2/aug-cc-pvtz', properties = ['dipole'])
--------------------------------------------------------------------------

    Molecular point group: c1
  Charge       = 0
  Multiplicity = 1
  Basis Set: AUG-CC-PVTZ
    Blend: AUG-CC-PVTZ
  Basis Set: (AUG-CC-PVTZ AUX)
    Blend: AUG-CC-PVTZ-JKFIT

    Orbital Energies [Eh]
    ---------------------

    Doubly Occupied:

       1A    -20.654484     2A    -20.641270     3A    -20.557391
       4A    -11.394944     5A    -11.288393     6A    -11.252946
       7A    -11.225324     8A     -1.506249     9A     -1.392695
      10A     -1.263084    11A     -1.033319    12A     -1.004702
      13A     -0.852325    14A     -0.796690    15A     -0.707770
      16A     -0.691991    17A     -0.674725    18A     -0.642293
      19A     -0.615806    20A     -0.598569    21A     -0.582981
      22A     -0.548076    23A     -0.534026    24A     -0.532645
      25A     -0.511148    26A     -0.485493    27A     -0.465356
      28A     -0.453158

  @DF-RHF Final Energy:  -380.76667930702246

   => Energetics <=

    Nuclear Repulsion Energy =            316.2136527014774288
    One-Electron Energy =               -1148.1449588077844055
    Two-Electron Energy =                 451.1646267992844628
    Total Energy =                       -380.7666793070224571
  Basis Set: (AUG-CC-PVTZ AUX)
    Blend: AUG-CC-PVTZ-RI
    Molecular point group: c1

    Geometry (in Angstrom), charge = 0, multiplicity = 1:

       Center              X                  Y                   Z               Mass
    ------------   -----------------  -----------------  -----------------  -----------------
         O            0.829347007312    -0.330380244474    -0.644929926309    15.994914619570
         O           -0.444145792688    -0.836432244474    -0.135292126309    15.994914619570
         O           -1.044887992688     1.387831755526    -0.082958926309    15.994914619570
         C            1.631142007312    -0.253568244474     0.548195073691    12.000000000000
         C            2.993716007312     0.208707755526     0.073942073691    12.000000000000
         C           -1.351015992688     0.216967755526    -0.015731926309    12.000000000000
         C           -2.708200992688    -0.358286244474     0.277972073691    12.000000000000
         H            1.181154007312     0.460960755526     1.243803073691     1.007825032230
         H            1.675022007312    -1.240802244474     1.018190073691     1.007825032230
         H            3.666047007312     0.286689755526     0.932074073691     1.007825032230
         H            3.417515007312    -0.504366244474    -0.636118926309     1.007825032230
         H            2.923274007312     1.188631755526    -0.402560926309     1.007825032230
         H           -3.201977992688    -0.603224244474    -0.666110926309     1.007825032230
         H           -2.628720992688    -1.268847244474     0.872944073691     1.007825032230
         H           -3.297595992688     0.390022755526     0.806959073691     1.007825032230

  Basis Set: AUG-CC-PVTZ
    Blend: AUG-CC-PVTZ
  Basis Set: (AUG-CC-PVTZ AUX)
    Blend: AUG-CC-PVTZ-JKFIT
	 Reference Energy          =    -380.7666793070224571 [Eh]
	 Singles Energy            =      -0.0000000000000000 [Eh]
	 Same-Spin Energy          =      -0.3650075412677544 [Eh]
	 Opposite-Spin Energy      =      -1.1729517806585896 [Eh]
	 Correlation Energy        =      -1.5379593219263441 [Eh]
	 Total Energy              =    -382.3046386289487941 [Eh]

	 ================> DF-SCS-MP2 Energies <==================
	-----------------------------------------------------------
	 SCS Same-Spin Scale       =       0.3333333333333333 [-]
	 SCS Opposite-Spin Scale   =       1.2000000000000000 [-]
	 SCS Same-Spin Energy      =      -0.1216691804225848 [Eh]
	 SCS Opposite-Spin Energy  =      -1.4075421367903076 [Eh]
	 SCS Correlation Energy    =      -1.5292113172128925 [Eh]
	 SCS Total Energy          =    -382.2958906242353692 [Eh]
	-----------------------------------------------------------

  Dipole Moment: [D]
     X:    -0.3497      Y:    -1.4704      Z:     1.6035     Total:     2.2036

*** Psi4 exiting successfully. Buy a developer a beer!
