                               Psi4 1.3.2 release

  ==> Input File <==

--------------------------------------------------------------------------
#psi4
#
memory 32 gb

molecule  {
0 1
  O        0.8013680    -0.3194430    -0.6593080
  O       -0.5815064    -0.8820988    -0.2298304
  O       -1.0728670     1.3987690    -0.0973370
  C        1.6031630    -0.2426310     0.5338170
  C        2.9657370     0.2196450     0.0595640
  C       -1.3789950     0.2279050    -0.0301100
  C       -2.7361800    -0.3473490     0.2635940
  H        1.1531750     0.4718980     1.2294250
  H        1.6470430    -1.2298650     1.0038120
  H        3.6380680     0.2976270     0.9176960
  H        3.3895360    -0.4934290    -0.6504970
  H        2.8952950     1.1995690    -0.4169390
  H       -3.2299570    -0.5922870    -0.6804890
  H       -2.6567000    -1.2579100     0.8585660
  H       -3.3255750     0.4009600     0.7925810
units angstrom
no_reorient  #important for SAPT in psi4, default
symmetry c1  #important for SAPT in psi4, default
}

set PROPERTIES_ORIGIN ["COM"]
properties('MP2/aug-cc-pvtz', properties = ['dipole'])
--------------------------------------------------------------------------

    Molecular point group: c1
  Charge       = 0
  Multiplicity = 1
  Basis Set: AUG-CC-PVTZ
    Blend: AUG-CC-PVTZ
  Basis Set: (AUG-CC-PVTZ AUX)
    Blend: AUG-CC-PVTZ-JKFIT

    Orbital Energies [Eh]
    ---------------------

    Doubly Occupied:

       1A    -20.661943     2A    -20.647260     3A    -20.557884
       4A    -11.393755     5A    -11.292799     6A    -11.247046
       7A    -11.230160     8A     -1.482867     9A     -1.387270
      10A     -1.283133    11A     -1.031151    12A     -1.004219
      13A     -0.851868    14A     -0.790039    15A     -0.702035
      16A     -0.688039    17A     -0.669228    18A     -0.645803
      19A     -0.617067    20A     -0.596594    21A     -0.579222
      22A     -0.547066    23A     -0.540035    24A     -0.536432
      25A     -0.503671    26A     -0.487934    27A     -0.470745
      28A     -0.453185

  @DF-RHF Final Energy:  -380.75354148173221

   => Energetics <=

    Nuclear Repulsion Energy =            314.1697096310409165
    One-Electron Energy =               -1144.0495995437509009
    Two-Electron Energy =                 449.1263484309778278
    Total Energy =                       -380.7535414817322135
  Basis Set: (AUG-CC-PVTZ AUX)
    Blend: AUG-CC-PVTZ-RI
    Molecular point group: c1

    Geometry (in Angstrom), charge = 0, multiplicity = 1:

       Center              X                  Y                   Z               Mass
    ------------   -----------------  -----------------  -----------------  -----------------
         O            0.846161942549    -0.321678696579    -0.632607117247    15.994914619570
         O           -0.536712457451    -0.884334496579    -0.203129517247    15.994914619570
         O           -1.028073057451     1.396533303421    -0.070636117247    15.994914619570
         C            1.647956942549    -0.244866696579     0.560517882753    12.000000000000
         C            3.010530942549     0.217409303421     0.086264882753    12.000000000000
         C           -1.334201057451     0.225669303421    -0.003409117247    12.000000000000
         C           -2.691386057451    -0.349584696579     0.290294882753    12.000000000000
         H            1.197968942549     0.469662303421     1.256125882753     1.007825032230
         H            1.691836942549    -1.232100696579     1.030512882753     1.007825032230
         H            3.682861942549     0.295391303421     0.944396882753     1.007825032230
         H            3.434329942549    -0.495664696579    -0.623796117247     1.007825032230
         H            2.940088942549     1.197333303421    -0.390238117247     1.007825032230
         H           -3.185163057451    -0.594522696579    -0.653788117247     1.007825032230
         H           -2.611906057451    -1.260145696579     0.885266882753     1.007825032230
         H           -3.280781057451     0.398724303421     0.819281882753     1.007825032230

  Basis Set: AUG-CC-PVTZ
    Blend: AUG-CC-PVTZ
  Basis Set: (AUG-CC-PVTZ AUX)
    Blend: AUG-CC-PVTZ-JKFIT
	 Reference Energy          =    -380.7535414817322135 [Eh]
	 Singles Energy            =      -0.0000000000000000 [Eh]
	 Same-Spin Energy          =      -0.3668370890205631 [Eh]
	 Opposite-Spin Energy      =      -1.1794868916743964 [Eh]
	 Correlation Energy        =      -1.5463239806949596 [Eh]
	 Total Energy              =    -382.2998654624271921 [Eh]

	 ================> DF-SCS-MP2 Energies <==================
	-----------------------------------------------------------
	 SCS Same-Spin Scale       =       0.3333333333333333 [-]
	 SCS Opposite-Spin Scale   =       1.2000000000000000 [-]
	 SCS Same-Spin Energy      =      -0.1222790296735210 [Eh]
	 SCS Opposite-Spin Energy  =      -1.4153842700092756 [Eh]
	 SCS Correlation Energy    =      -1.5376632996827966 [Eh]
	 SCS Total Energy          =    -382.2912047814149901 [Eh]
	-----------------------------------------------------------

  Dipole Moment: [D]
     X:    -0.1176      Y:    -1.4312      Z:     1.6809     Total:     2.2108

*** Psi4 exiting successfully. Buy a developer a beer!
