                               Psi4 1.3.2 release

  ==> Input File <==

--------------------------------------------------------------------------
#psi4
#
memory 32 gb

molecule  {
0 1
  O        0.8013680    -0.3194430    -0.6593080
  O       -0.5971881    -0.8564524    -0.2169554
  O       -1.0728670     1.3987690    -0.0973370
  C        1.6031630    -0.2426310     0.5338170
  C        2.9657370     0.2196450     0.0595640
  C       -1.3789950     0.2279050    -0.0301100
  C       -2.7361800    -0.3473490     0.2635940
  H        1.1531750     0.4718980     1.2294250
  H        1.6470430    -1.2298650     1.0038120
  H        3.6380680     0.2976270     0.9176960
  H        3.3895360    -0.4934290    -0.6504970
  H        2.8952950     1.1995690    -0.4169390
  H       -3.2299570    -0.5922870    -0.6804890
  H       -2.6567000    -1.2579100     0.8585660
  H       -3.3255750     0.4009600     0.7925810
units angstrom
no_reorient  #important for SAPT in psi4, default
symmetry c1  #important for SAPT in psi4, default
}

set PROPERTIES_ORIGIN ["COM"]
properties('MP2/aug-cc-pvtz', properties = ['dipole'])
--------------------------------------------------------------------------

    Molecular point group: c1
  Charge       = 0
  Multiplicity = 1
  Basis Set: AUG-CC-PVTZ
    Blend: AUG-CC-PVTZ
  Basis Set: (AUG-CC-PVTZ AUX)
    Blend: AUG-CC-PVTZ-JKFIT

    Orbital Energies [Eh]
    ---------------------

    Doubly Occupied:

       1A    -20.663189     2A    -20.651382     3A    -20.552063
       4A    -11.389299     5A    -11.294443     6A    -11.245236
       7A    -11.231455     8A     -1.489690     9A     -1.383724
      10A     -1.292350    11A     -1.031535    12A     -1.003943
      13A     -0.853415    14A     -0.793003    15A     -0.702486
      16A     -0.688956    17A     -0.673298    18A     -0.648145
      19A     -0.616793    20A     -0.594901    21A     -0.578886
      22A     -0.548227    23A     -0.542574    24A     -0.538286
      25A     -0.502822    26A     -0.486701    27A     -0.471452
      28A     -0.451282

  @DF-RHF Final Energy:  -380.75430771996065

   => Energetics <=

    Nuclear Repulsion Energy =            314.7774036168925704
    One-Electron Energy =               -1145.2243455623829504
    Two-Electron Energy =                 449.6926342255297300
    Total Energy =                       -380.7543077199606500
  Basis Set: (AUG-CC-PVTZ AUX)
    Blend: AUG-CC-PVTZ-RI
    Molecular point group: c1

    Geometry (in Angstrom), charge = 0, multiplicity = 1:

       Center              X                  Y                   Z               Mass
    ------------   -----------------  -----------------  -----------------  -----------------
         O            0.848572647548    -0.325621247750    -0.634586355905    15.994914619570
         O           -0.549983452452    -0.862630647750    -0.192233755905    15.994914619570
         O           -1.025662352452     1.392590752250    -0.072615355905    15.994914619570
         C            1.650367647548    -0.248809247750     0.558538644095    12.000000000000
         C            3.012941647548     0.213466752250     0.084285644095    12.000000000000
         C           -1.331790352452     0.221726752250    -0.005388355905    12.000000000000
         C           -2.688975352452    -0.353527247750     0.288315644095    12.000000000000
         H            1.200379647548     0.465719752250     1.254146644095     1.007825032230
         H            1.694247647548    -1.236043247750     1.028533644095     1.007825032230
         H            3.685272647548     0.291448752250     0.942417644095     1.007825032230
         H            3.436740647548    -0.499607247750    -0.625775355905     1.007825032230
         H            2.942499647548     1.193390752250    -0.392217355905     1.007825032230
         H           -3.182752352452    -0.598465247750    -0.655767355905     1.007825032230
         H           -2.609495352452    -1.264088247750     0.883287644095     1.007825032230
         H           -3.278370352452     0.394781752250     0.817302644095     1.007825032230

  Basis Set: AUG-CC-PVTZ
    Blend: AUG-CC-PVTZ
  Basis Set: (AUG-CC-PVTZ AUX)
    Blend: AUG-CC-PVTZ-JKFIT
	 Reference Energy          =    -380.7543077199606500 [Eh]
	 Singles Energy            =      -0.0000000000000000 [Eh]
	 Same-Spin Energy          =      -0.3666266611445470 [Eh]
	 Opposite-Spin Energy      =      -1.1787254183010003 [Eh]
	 Correlation Energy        =      -1.5453520794455473 [Eh]
	 Total Energy              =    -382.2996597994061858 [Eh]

	 ================> DF-SCS-MP2 Energies <==================
	-----------------------------------------------------------
	 SCS Same-Spin Scale       =       0.3333333333333333 [-]
	 SCS Opposite-Spin Scale   =       1.2000000000000000 [-]
	 SCS Same-Spin Energy      =      -0.1222088870481823 [Eh]
	 SCS Opposite-Spin Energy  =      -1.4144705019612003 [Eh]
	 SCS Correlation Energy    =      -1.5366793890093826 [Eh]
	 SCS Total Energy          =    -382.2909871089700573 [Eh]
	-----------------------------------------------------------

  Dipole Moment: [D]
     X:    -0.0223      Y:    -1.5404      Z:     1.6683     Total:     2.2708

*** Psi4 exiting successfully. Buy a developer a beer!
