                               Psi4 1.3.2 release

  ==> Input File <==

--------------------------------------------------------------------------
#psi4
#
memory 32 gb

molecule  {
0 1
  O        0.8013680    -0.3194430    -0.6593080
  O       -0.5076550    -0.8220740    -0.2452740
  O       -1.0728670     1.3987690    -0.0973370
  C        1.6031630    -0.2426310     0.5338170
  C        2.9657370     0.2196450     0.0595640
  C       -1.3835938     0.2250514    -0.0557783
  C       -2.7361800    -0.3473490     0.2635940
  H        1.1531750     0.4718980     1.2294250
  H        1.6470430    -1.2298650     1.0038120
  H        3.6380680     0.2976270     0.9176960
  H        3.3895360    -0.4934290    -0.6504970
  H        2.8952950     1.1995690    -0.4169390
  H       -3.2299570    -0.5922870    -0.6804890
  H       -2.6567000    -1.2579100     0.8585660
  H       -3.3255750     0.4009600     0.7925810
units angstrom
no_reorient  #important for SAPT in psi4, default
symmetry c1  #important for SAPT in psi4, default
}

set PROPERTIES_ORIGIN ["COM"]
properties('MP2/aug-cc-pvtz', properties = ['dipole'])
--------------------------------------------------------------------------

    Molecular point group: c1
  Charge       = 0
  Multiplicity = 1
  Basis Set: AUG-CC-PVTZ
    Blend: AUG-CC-PVTZ
  Basis Set: (AUG-CC-PVTZ AUX)
    Blend: AUG-CC-PVTZ-JKFIT

    Orbital Energies [Eh]
    ---------------------

    Doubly Occupied:

       1A    -20.657404     2A    -20.640884     3A    -20.554399
       4A    -11.393336     5A    -11.290208     6A    -11.251885
       7A    -11.227379     8A     -1.508357     9A     -1.388930
      10A     -1.268874    11A     -1.034647    12A     -1.004347
      13A     -0.853971    14A     -0.797543    15A     -0.707306
      16A     -0.693352    17A     -0.676195    18A     -0.644034
      19A     -0.614245    20A     -0.598898    21A     -0.583266
      22A     -0.547773    23A     -0.535835    24A     -0.532814
      25A     -0.512666    26A     -0.481642    27A     -0.467033
      28A     -0.452544

  @DF-RHF Final Energy:  -380.76890827778254

   => Energetics <=

    Nuclear Repulsion Energy =            316.0130150301089316
    One-Electron Energy =               -1147.7243091994569113
    Two-Electron Energy =                 450.9423858915654364
    Total Energy =                       -380.7689082777825433
  Basis Set: (AUG-CC-PVTZ AUX)
    Blend: AUG-CC-PVTZ-RI
    Molecular point group: c1

    Geometry (in Angstrom), charge = 0, multiplicity = 1:

       Center              X                  Y                   Z               Mass
    ------------   -----------------  -----------------  -----------------  -----------------
         O            0.835339357436    -0.330577033764    -0.627272635448    15.994914619570
         O           -0.473683642564    -0.833208033764    -0.213238635448    15.994914619570
         O           -1.038895642564     1.387634966236    -0.065301635448    15.994914619570
         C            1.637134357436    -0.253765033764     0.565852364552    12.000000000000
         C            2.999708357436     0.208510966236     0.091599364552    12.000000000000
         C           -1.349622442564     0.213917366236    -0.023742935448    12.000000000000
         C           -2.702208642564    -0.358483033764     0.295629364552    12.000000000000
         H            1.187146357436     0.460763966236     1.261460364552     1.007825032230
         H            1.681014357436    -1.240999033764     1.035847364552     1.007825032230
         H            3.672039357436     0.286492966236     0.949731364552     1.007825032230
         H            3.423507357436    -0.504563033764    -0.618461635448     1.007825032230
         H            2.929266357436     1.188434966236    -0.384903635448     1.007825032230
         H           -3.195985642564    -0.603421033764    -0.648453635448     1.007825032230
         H           -2.622728642564    -1.269044033764     0.890601364552     1.007825032230
         H           -3.291603642564     0.389825966236     0.824616364552     1.007825032230

  Basis Set: AUG-CC-PVTZ
    Blend: AUG-CC-PVTZ
  Basis Set: (AUG-CC-PVTZ AUX)
    Blend: AUG-CC-PVTZ-JKFIT
	 Reference Energy          =    -380.7689082777825433 [Eh]
	 Singles Energy            =      -0.0000000000000000 [Eh]
	 Same-Spin Energy          =      -0.3647075589285648 [Eh]
	 Opposite-Spin Energy      =      -1.1720242681966970 [Eh]
	 Correlation Energy        =      -1.5367318271252619 [Eh]
	 Total Energy              =    -382.3056401049078090 [Eh]

	 ================> DF-SCS-MP2 Energies <==================
	-----------------------------------------------------------
	 SCS Same-Spin Scale       =       0.3333333333333333 [-]
	 SCS Opposite-Spin Scale   =       1.2000000000000000 [-]
	 SCS Same-Spin Energy      =      -0.1215691863095216 [Eh]
	 SCS Opposite-Spin Energy  =      -1.4064291218360363 [Eh]
	 SCS Correlation Energy    =      -1.5279983081455579 [Eh]
	 SCS Total Energy          =    -382.2969065859281272 [Eh]
	-----------------------------------------------------------

  Dipole Moment: [D]
     X:    -0.2307      Y:    -1.5303      Z:     1.6546     Total:     2.2656

*** Psi4 exiting successfully. Buy a developer a beer!
