                               Psi4 1.3.2 release

  ==> Input File <==

--------------------------------------------------------------------------
#psi4
#
memory 32 gb

molecule  {
0 1
  O        0.8286838    -0.1723939    -0.6776166
  O       -0.5076550    -0.8220740    -0.2452740
  O       -1.0728670     1.3987690    -0.0973370
  C        1.6031630    -0.2426310     0.5338170
  C        2.9657370     0.2196450     0.0595640
  C       -1.3789950     0.2279050    -0.0301100
  C       -2.7361800    -0.3473490     0.2635940
  H        1.1531750     0.4718980     1.2294250
  H        1.6470430    -1.2298650     1.0038120
  H        3.6380680     0.2976270     0.9176960
  H        3.3895360    -0.4934290    -0.6504970
  H        2.8952950     1.1995690    -0.4169390
  H       -3.2299570    -0.5922870    -0.6804890
  H       -2.6567000    -1.2579100     0.8585660
  H       -3.3255750     0.4009600     0.7925810
units angstrom
no_reorient  #important for SAPT in psi4, default
symmetry c1  #important for SAPT in psi4, default
}

set PROPERTIES_ORIGIN ["COM"]
properties('MP2/aug-cc-pvtz', properties = ['dipole'])
--------------------------------------------------------------------------

    Molecular point group: c1
  Charge       = 0
  Multiplicity = 1
  Basis Set: AUG-CC-PVTZ
    Blend: AUG-CC-PVTZ
  Basis Set: (AUG-CC-PVTZ AUX)
    Blend: AUG-CC-PVTZ-JKFIT

    Orbital Energies [Eh]
    ---------------------

    Doubly Occupied:

       1A    -20.655737     2A    -20.650142     3A    -20.552448
       4A    -11.391049     5A    -11.292001     6A    -11.250505
       7A    -11.226971     8A     -1.485027     9A     -1.384312
      10A     -1.278823    11A     -1.030602    12A     -1.005120
      13A     -0.851574    14A     -0.789380    15A     -0.703553
      16A     -0.685248    17A     -0.669529    18A     -0.644361
      19A     -0.618631    20A     -0.594349    21A     -0.580302
      22A     -0.546165    23A     -0.537101    24A     -0.535883
      25A     -0.502385    26A     -0.488414    27A     -0.466609
      28A     -0.453211

  @DF-RHF Final Energy:  -380.75330406475877

   => Energetics <=

    Nuclear Repulsion Energy =            315.3113439102623943
    One-Electron Energy =               -1146.3904315973959456
    Two-Electron Energy =                 450.3257836223747859
    Total Energy =                       -380.7533040647587654
  Basis Set: (AUG-CC-PVTZ AUX)
    Blend: AUG-CC-PVTZ-RI
    Molecular point group: c1

    Geometry (in Angstrom), charge = 0, multiplicity = 1:

       Center              X                  Y                   Z               Mass
    ------------   -----------------  -----------------  -----------------  -----------------
         O            0.857925584635    -0.206462502826    -0.645727083536    15.994914619570
         O           -0.478413215365    -0.856142602826    -0.213384483536    15.994914619570
         O           -1.043625215365     1.364700397174    -0.065447483536    15.994914619570
         C            1.632404784635    -0.276699602826     0.565706516464    12.000000000000
         C            2.994978784635     0.185576397174     0.091453516464    12.000000000000
         C           -1.349753215365     0.193836397174     0.001779516464    12.000000000000
         C           -2.706938215365    -0.381417602826     0.295483516464    12.000000000000
         H            1.182416784635     0.437829397174     1.261314516464     1.007825032230
         H            1.676284784635    -1.263933602826     1.035701516464     1.007825032230
         H            3.667309784635     0.263558397174     0.949585516464     1.007825032230
         H            3.418777784635    -0.527497602826    -0.618607483536     1.007825032230
         H            2.924536784635     1.165500397174    -0.385049483536     1.007825032230
         H           -3.200715215365    -0.626355602826    -0.648599483536     1.007825032230
         H           -2.627458215365    -1.291978602826     0.890455516464     1.007825032230
         H           -3.296333215365     0.366891397174     0.824470516464     1.007825032230

  Basis Set: AUG-CC-PVTZ
    Blend: AUG-CC-PVTZ
  Basis Set: (AUG-CC-PVTZ AUX)
    Blend: AUG-CC-PVTZ-JKFIT
	 Reference Energy          =    -380.7533040647587654 [Eh]
	 Singles Energy            =      -0.0000000000000000 [Eh]
	 Same-Spin Energy          =      -0.3667754205700114 [Eh]
	 Opposite-Spin Energy      =      -1.1789241499533882 [Eh]
	 Correlation Energy        =      -1.5456995705233996 [Eh]
	 Total Energy              =    -382.2990036352821903 [Eh]

	 ================> DF-SCS-MP2 Energies <==================
	-----------------------------------------------------------
	 SCS Same-Spin Scale       =       0.3333333333333333 [-]
	 SCS Opposite-Spin Scale   =       1.2000000000000000 [-]
	 SCS Same-Spin Energy      =      -0.1222584735233371 [Eh]
	 SCS Opposite-Spin Energy  =      -1.4147089799440657 [Eh]
	 SCS Correlation Energy    =      -1.5369674534674029 [Eh]
	 SCS Total Energy          =    -382.2902715182261772 [Eh]
	-----------------------------------------------------------

  Dipole Moment: [D]
     X:    -0.2850      Y:    -1.6547      Z:     1.6866     Total:     2.3798

*** Psi4 exiting successfully. Buy a developer a beer!
