                               Psi4 1.3.2 release

  ==> Input File <==

--------------------------------------------------------------------------
#psi4
#
memory 32 gb

molecule  {
0 1
  O        0.8211433    -0.3118547    -0.6728212
  O       -0.5076550    -0.8220740    -0.2452740
  O       -1.0728670     1.3987690    -0.0973370
  C        1.6031630    -0.2426310     0.5338170
  C        2.9657370     0.2196450     0.0595640
  C       -1.3789950     0.2279050    -0.0301100
  C       -2.7361800    -0.3473490     0.2635940
  H        1.1531750     0.4718980     1.2294250
  H        1.6470430    -1.2298650     1.0038120
  H        3.6380680     0.2976270     0.9176960
  H        3.3895360    -0.4934290    -0.6504970
  H        2.8952950     1.1995690    -0.4169390
  H       -3.2299570    -0.5922870    -0.6804890
  H       -2.6567000    -1.2579100     0.8585660
  H       -3.3255750     0.4009600     0.7925810
units angstrom
no_reorient  #important for SAPT in psi4, default
symmetry c1  #important for SAPT in psi4, default
}

set PROPERTIES_ORIGIN ["COM"]
properties('MP2/aug-cc-pvtz', properties = ['dipole'])
--------------------------------------------------------------------------

    Molecular point group: c1
  Charge       = 0
  Multiplicity = 1
  Basis Set: AUG-CC-PVTZ
    Blend: AUG-CC-PVTZ
  Basis Set: (AUG-CC-PVTZ AUX)
    Blend: AUG-CC-PVTZ-JKFIT

    Orbital Energies [Eh]
    ---------------------

    Doubly Occupied:

       1A    -20.655801     2A    -20.644195     3A    -20.554844
       4A    -11.393081     5A    -11.290755     6A    -11.251933
       7A    -11.227171     8A     -1.499488     9A     -1.389865
      10A     -1.271334    11A     -1.033595    12A     -1.004778
      13A     -0.853135    14A     -0.794635    15A     -0.705883
      16A     -0.691111    17A     -0.673124    18A     -0.644833
      19A     -0.616159    20A     -0.597206    21A     -0.582781
      22A     -0.547599    23A     -0.536123    24A     -0.534434
      25A     -0.509753    26A     -0.482967    27A     -0.468804
      28A     -0.453376

  @DF-RHF Final Energy:  -380.76620198965605

   => Energetics <=

    Nuclear Repulsion Energy =            315.5381107080282845
    One-Electron Energy =               -1146.7911005253797612
    Two-Electron Energy =                 450.4867878276954229
    Total Energy =                       -380.7662019896560537
  Basis Set: (AUG-CC-PVTZ AUX)
    Blend: AUG-CC-PVTZ-RI
    Molecular point group: c1

    Geometry (in Angstrom), charge = 0, multiplicity = 1:

       Center              X                  Y                   Z               Mass
    ------------   -----------------  -----------------  -----------------  -----------------
         O            0.851544265147    -0.324484374156    -0.641668867308    15.994914619570
         O           -0.477254034853    -0.834703674156    -0.214121667308    15.994914619570
         O           -1.042466034853     1.386139325844    -0.066184667308    15.994914619570
         C            1.633563965147    -0.255260674156     0.564969332692    12.000000000000
         C            2.996137965147     0.207015325844     0.090716332692    12.000000000000
         C           -1.348594034853     0.215275325844     0.001042332692    12.000000000000
         C           -2.705779034853    -0.359978674156     0.294746332692    12.000000000000
         H            1.183575965147     0.459268325844     1.260577332692     1.007825032230
         H            1.677443965147    -1.242494674156     1.034964332692     1.007825032230
         H            3.668468965147     0.284997325844     0.948848332692     1.007825032230
         H            3.419936965147    -0.506058674156    -0.619344667308     1.007825032230
         H            2.925695965147     1.186939325844    -0.385786667308     1.007825032230
         H           -3.199556034853    -0.604916674156    -0.649336667308     1.007825032230
         H           -2.626299034853    -1.270539674156     0.889718332692     1.007825032230
         H           -3.295174034853     0.388330325844     0.823733332692     1.007825032230

  Basis Set: AUG-CC-PVTZ
    Blend: AUG-CC-PVTZ
  Basis Set: (AUG-CC-PVTZ AUX)
    Blend: AUG-CC-PVTZ-JKFIT
	 Reference Energy          =    -380.7662019896560537 [Eh]
	 Singles Energy            =      -0.0000000000000000 [Eh]
	 Same-Spin Energy          =      -0.3651597016848409 [Eh]
	 Opposite-Spin Energy      =      -1.1737635690237498 [Eh]
	 Correlation Energy        =      -1.5389232707085907 [Eh]
	 Total Energy              =    -382.3051252603646617 [Eh]

	 ================> DF-SCS-MP2 Energies <==================
	-----------------------------------------------------------
	 SCS Same-Spin Scale       =       0.3333333333333333 [-]
	 SCS Opposite-Spin Scale   =       1.2000000000000000 [-]
	 SCS Same-Spin Energy      =      -0.1217199005616136 [Eh]
	 SCS Opposite-Spin Energy  =      -1.4085162828284996 [Eh]
	 SCS Correlation Energy    =      -1.5302361833901132 [Eh]
	 SCS Total Energy          =    -382.2964381730461696 [Eh]
	-----------------------------------------------------------

  Dipole Moment: [D]
     X:    -0.2672      Y:    -1.5099      Z:     1.6941     Total:     2.2850

*** Psi4 exiting successfully. Buy a developer a beer!
