                               Psi4 1.3.2 release

  ==> Input File <==

--------------------------------------------------------------------------
#psi4
#
memory 32 gb

molecule  {
0 1
  O        0.9234698    -0.2736436    -0.7347956
  O       -0.5076550    -0.8220740    -0.2452740
  O       -1.0728670     1.3987690    -0.0973370
  C        1.6031630    -0.2426310     0.5338170
  C        2.9657370     0.2196450     0.0595640
  C       -1.3789950     0.2279050    -0.0301100
  C       -2.7361800    -0.3473490     0.2635940
  H        1.1531750     0.4718980     1.2294250
  H        1.6470430    -1.2298650     1.0038120
  H        3.6380680     0.2976270     0.9176960
  H        3.3895360    -0.4934290    -0.6504970
  H        2.8952950     1.1995690    -0.4169390
  H       -3.2299570    -0.5922870    -0.6804890
  H       -2.6567000    -1.2579100     0.8585660
  H       -3.3255750     0.4009600     0.7925810
units angstrom
no_reorient  #important for SAPT in psi4, default
symmetry c1  #important for SAPT in psi4, default
}

set PROPERTIES_ORIGIN ["COM"]
properties('MP2/aug-cc-pvtz', properties = ['dipole'])
--------------------------------------------------------------------------

    Molecular point group: c1
  Charge       = 0
  Multiplicity = 1
  Basis Set: AUG-CC-PVTZ
    Blend: AUG-CC-PVTZ
  Basis Set: (AUG-CC-PVTZ AUX)
    Blend: AUG-CC-PVTZ-JKFIT

    Orbital Energies [Eh]
    ---------------------

    Doubly Occupied:

       1A    -20.662979     2A    -20.649363     3A    -20.552268
       4A    -11.391366     5A    -11.294873     6A    -11.251033
       7A    -11.227448     8A     -1.468011     9A     -1.383940
      10A     -1.286743    11A     -1.029045    12A     -1.006954
      13A     -0.852630    14A     -0.783666    15A     -0.700250
      16A     -0.680110    17A     -0.663349    18A     -0.648325
      19A     -0.622632    20A     -0.590410    21A     -0.580464
      22A     -0.545721    23A     -0.543050    24A     -0.539228
      25A     -0.491234    26A     -0.489317    27A     -0.472610
      28A     -0.452152

  @DF-RHF Final Energy:  -380.74285027681509

   => Energetics <=

    Nuclear Repulsion Energy =            313.2283706783158550
    One-Electron Energy =               -1142.2241012500821853
    Two-Electron Energy =                 448.2528802949512396
    Total Energy =                       -380.7428502768150906
  Basis Set: (AUG-CC-PVTZ AUX)
    Blend: AUG-CC-PVTZ-RI
    Molecular point group: c1

    Geometry (in Angstrom), charge = 0, multiplicity = 1:

       Center              X                  Y                   Z               Mass
    ------------   -----------------  -----------------  -----------------  -----------------
         O            0.938140391203    -0.292147362411    -0.694116111713    15.994914619570
         O           -0.492984408797    -0.840577762411    -0.204594511713    15.994914619570
         O           -1.058196408797     1.380265237589    -0.056657511713    15.994914619570
         C            1.617833591203    -0.261134762411     0.574496488287    12.000000000000
         C            2.980407591203     0.201141237589     0.100243488287    12.000000000000
         C           -1.364324408797     0.209401237589     0.010569488287    12.000000000000
         C           -2.721509408797    -0.365852762411     0.304273488287    12.000000000000
         H            1.167845591203     0.453394237589     1.270104488287     1.007825032230
         H            1.661713591203    -1.248368762411     1.044491488287     1.007825032230
         H            3.652738591203     0.279123237589     0.958375488287     1.007825032230
         H            3.404206591203    -0.511932762411    -0.609817511713     1.007825032230
         H            2.909965591203     1.181065237589    -0.376259511713     1.007825032230
         H           -3.215286408797    -0.610790762411    -0.639809511713     1.007825032230
         H           -2.642029408797    -1.276413762411     0.899245488287     1.007825032230
         H           -3.310904408797     0.382456237589     0.833260488287     1.007825032230

  Basis Set: AUG-CC-PVTZ
    Blend: AUG-CC-PVTZ
  Basis Set: (AUG-CC-PVTZ AUX)
    Blend: AUG-CC-PVTZ-JKFIT
	 Reference Energy          =    -380.7428502768150906 [Eh]
	 Singles Energy            =      -0.0000000000000000 [Eh]
	 Same-Spin Energy          =      -0.3677417550482036 [Eh]
	 Opposite-Spin Energy      =      -1.1829433332107206 [Eh]
	 Correlation Energy        =      -1.5506850882589243 [Eh]
	 Total Energy              =    -382.2935353650740353 [Eh]

	 ================> DF-SCS-MP2 Energies <==================
	-----------------------------------------------------------
	 SCS Same-Spin Scale       =       0.3333333333333333 [-]
	 SCS Opposite-Spin Scale   =       1.2000000000000000 [-]
	 SCS Same-Spin Energy      =      -0.1225805850160678 [Eh]
	 SCS Opposite-Spin Energy  =      -1.4195319998528648 [Eh]
	 SCS Correlation Energy    =      -1.5421125848689328 [Eh]
	 SCS Total Energy          =    -382.2849628616840505 [Eh]
	-----------------------------------------------------------

  Dipole Moment: [D]
     X:    -0.4608      Y:    -1.5291      Z:     1.7700     Total:     2.3840

*** Psi4 exiting successfully. Buy a developer a beer!
