                               Psi4 1.3.2 release

  ==> Input File <==

--------------------------------------------------------------------------
#psi4
#
memory 32 gb

molecule  {
0 1
  O        0.7247684    -0.3495390    -0.6016636
  O       -0.5076550    -0.8220740    -0.2452740
  O       -1.0728670     1.3987690    -0.0973370
  C        1.6031630    -0.2426310     0.5338170
  C        2.9657370     0.2196450     0.0595640
  C       -1.3789950     0.2279050    -0.0301100
  C       -2.7361800    -0.3473490     0.2635940
  H        1.1531750     0.4718980     1.2294250
  H        1.6470430    -1.2298650     1.0038120
  H        3.6380680     0.2976270     0.9176960
  H        3.3895360    -0.4934290    -0.6504970
  H        2.8952950     1.1995690    -0.4169390
  H       -3.2299570    -0.5922870    -0.6804890
  H       -2.6567000    -1.2579100     0.8585660
  H       -3.3255750     0.4009600     0.7925810
units angstrom
no_reorient  #important for SAPT in psi4, default
symmetry c1  #important for SAPT in psi4, default
}

set PROPERTIES_ORIGIN ["COM"]
properties('MP2/aug-cc-pvtz', properties = ['dipole'])
--------------------------------------------------------------------------

    Molecular point group: c1
  Charge       = 0
  Multiplicity = 1
  Basis Set: AUG-CC-PVTZ
    Blend: AUG-CC-PVTZ
  Basis Set: (AUG-CC-PVTZ AUX)
    Blend: AUG-CC-PVTZ-JKFIT

    Orbital Energies [Eh]
    ---------------------

    Doubly Occupied:

       1A    -20.659337     2A    -20.625746     3A    -20.556467
       4A    -11.392678     5A    -11.288567     6A    -11.251534
       7A    -11.228405     8A     -1.546493     9A     -1.394778
      10A     -1.254068    11A     -1.039011    12A     -1.002184
      13A     -0.860991    14A     -0.805172    15A     -0.715724
      16A     -0.702159    17A     -0.687550    18A     -0.641434
      19A     -0.612719    20A     -0.603936    21A     -0.583765
      22A     -0.550944    23A     -0.535219    24A     -0.530005
      25A     -0.517620    26A     -0.471767    27A     -0.467255
      28A     -0.445361

  @DF-RHF Final Energy:  -380.77300167908857

   => Energetics <=

    Nuclear Repulsion Energy =            318.1692561408692086
    One-Electron Energy =               -1151.9427404644366106
    Two-Electron Energy =                 453.0004826444787795
    Total Energy =                       -380.7730016790885657
  Basis Set: (AUG-CC-PVTZ AUX)
    Blend: AUG-CC-PVTZ-RI
    Molecular point group: c1

    Geometry (in Angstrom), charge = 0, multiplicity = 1:

       Center              X                  Y                   Z               Mass
    ------------   -----------------  -----------------  -----------------  -----------------
         O            0.769984815845    -0.356375569430    -0.581450131209    15.994914619570
         O           -0.462438584155    -0.828910569430    -0.225060531209    15.994914619570
         O           -1.027650584155     1.391932430570    -0.077123531209    15.994914619570
         C            1.648379415845    -0.249467569430     0.554030468791    12.000000000000
         C            3.010953415845     0.212808430570     0.079777468791    12.000000000000
         C           -1.333778584155     0.221068430570    -0.009896531209    12.000000000000
         C           -2.690963584155    -0.354185569430     0.283807468791    12.000000000000
         H            1.198391415845     0.465061430570     1.249638468791     1.007825032230
         H            1.692259415845    -1.236701569430     1.024025468791     1.007825032230
         H            3.683284415845     0.290790430570     0.937909468791     1.007825032230
         H            3.434752415845    -0.500265569430    -0.630283531209     1.007825032230
         H            2.940511415845     1.192732430570    -0.396725531209     1.007825032230
         H           -3.184740584155    -0.599123569430    -0.660275531209     1.007825032230
         H           -2.611483584155    -1.264746569430     0.878779468791     1.007825032230
         H           -3.280358584155     0.394123430570     0.812794468791     1.007825032230

  Basis Set: AUG-CC-PVTZ
    Blend: AUG-CC-PVTZ
  Basis Set: (AUG-CC-PVTZ AUX)
    Blend: AUG-CC-PVTZ-JKFIT
	 Reference Energy          =    -380.7730016790885657 [Eh]
	 Singles Energy            =      -0.0000000000000000 [Eh]
	 Same-Spin Energy          =      -0.3631802291773938 [Eh]
	 Opposite-Spin Energy      =      -1.1658440581693295 [Eh]
	 Correlation Energy        =      -1.5290242873467232 [Eh]
	 Total Energy              =    -382.3020259664352807 [Eh]

	 ================> DF-SCS-MP2 Energies <==================
	-----------------------------------------------------------
	 SCS Same-Spin Scale       =       0.3333333333333333 [-]
	 SCS Opposite-Spin Scale   =       1.2000000000000000 [-]
	 SCS Same-Spin Energy      =      -0.1210600763924646 [Eh]
	 SCS Opposite-Spin Energy  =      -1.3990128698031954 [Eh]
	 SCS Correlation Energy    =      -1.5200729461956599 [Eh]
	 SCS Total Energy          =    -382.2930746252842482 [Eh]
	-----------------------------------------------------------

  Dipole Moment: [D]
     X:    -0.1281      Y:    -1.5033      Z:     1.6192     Total:     2.2132

*** Psi4 exiting successfully. Buy a developer a beer!
