                               Psi4 1.3.2 release

  ==> Input File <==

--------------------------------------------------------------------------
#psi4
#
memory 32 gb

molecule  {
0 1
  O        0.8013680    -0.3194430    -0.6593080
  O       -0.5076550    -0.8220740    -0.2452740
  O       -1.0728670     1.3987690    -0.0973370
  C        1.7145577    -0.2319594     0.6995799
  C        2.9657370     0.2196450     0.0595640
  C       -1.3789950     0.2279050    -0.0301100
  C       -2.7361800    -0.3473490     0.2635940
  H        1.1531750     0.4718980     1.2294250
  H        1.6470430    -1.2298650     1.0038120
  H        3.6380680     0.2976270     0.9176960
  H        3.3895360    -0.4934290    -0.6504970
  H        2.8952950     1.1995690    -0.4169390
  H       -3.2299570    -0.5922870    -0.6804890
  H       -2.6567000    -1.2579100     0.8585660
  H       -3.3255750     0.4009600     0.7925810
units angstrom
no_reorient  #important for SAPT in psi4, default
symmetry c1  #important for SAPT in psi4, default
}

set PROPERTIES_ORIGIN ["COM"]
properties('MP2/aug-cc-pvtz', properties = ['dipole'])
--------------------------------------------------------------------------

    Molecular point group: c1
  Charge       = 0
  Multiplicity = 1
  Basis Set: AUG-CC-PVTZ
    Blend: AUG-CC-PVTZ
  Basis Set: (AUG-CC-PVTZ AUX)
    Blend: AUG-CC-PVTZ-JKFIT

    Orbital Energies [Eh]
    ---------------------

    Doubly Occupied:

       1A    -20.638775     2A    -20.616590     3A    -20.546326
       4A    -11.382982     5A    -11.302690     6A    -11.245078
       7A    -11.235173     8A     -1.479894     9A     -1.375381
      10A     -1.223212    11A     -1.048040    12A     -1.004955
      13A     -0.866641    14A     -0.779897    15A     -0.698677
      16A     -0.674516    17A     -0.662315    18A     -0.656346
      19A     -0.602525    20A     -0.590932    21A     -0.578177
      22A     -0.565980    23A     -0.538286    24A     -0.523045
      25A     -0.505022    26A     -0.476382    27A     -0.448586
      28A     -0.445241

  @DF-RHF Final Energy:  -380.73906557030119

   => Energetics <=

    Nuclear Repulsion Energy =            313.1257129494389346
    One-Electron Energy =               -1142.3062246816571133
    Two-Electron Energy =                 448.4414461619169856
    Total Energy =                       -380.7390655703011930
  Basis Set: (AUG-CC-PVTZ AUX)
    Blend: AUG-CC-PVTZ-RI
    Molecular point group: c1

    Geometry (in Angstrom), charge = 0, multiplicity = 1:

       Center              X                  Y                   Z               Mass
    ------------   -----------------  -----------------  -----------------  -----------------
         O            0.821961582041    -0.332136923652    -0.649350800148    15.994914619570
         O           -0.487061417959    -0.834767923652    -0.235316800148    15.994914619570
         O           -1.052273417959     1.386075076348    -0.087379800148    15.994914619570
         C            1.735151282041    -0.244653323652     0.709537099852    12.000000000000
         C            2.986330582041     0.206951076348     0.069521199852    12.000000000000
         C           -1.358401417959     0.215211076348    -0.020152800148    12.000000000000
         C           -2.715586417959    -0.360042923652     0.273551199852    12.000000000000
         H            1.173768582041     0.459204076348     1.239382199852     1.007825032230
         H            1.667636582041    -1.242558923652     1.013769199852     1.007825032230
         H            3.658661582041     0.284933076348     0.927653199852     1.007825032230
         H            3.410129582041    -0.506122923652    -0.640539800148     1.007825032230
         H            2.915888582041     1.186875076348    -0.406981800148     1.007825032230
         H           -3.209363417959    -0.604980923652    -0.670531800148     1.007825032230
         H           -2.636106417959    -1.270603923652     0.868523199852     1.007825032230
         H           -3.304981417959     0.388266076348     0.802538199852     1.007825032230

  Basis Set: AUG-CC-PVTZ
    Blend: AUG-CC-PVTZ
  Basis Set: (AUG-CC-PVTZ AUX)
    Blend: AUG-CC-PVTZ-JKFIT
	 Reference Energy          =    -380.7390655703011930 [Eh]
	 Singles Energy            =      -0.0000000000000000 [Eh]
	 Same-Spin Energy          =      -0.3657708821048967 [Eh]
	 Opposite-Spin Energy      =      -1.1757684181758468 [Eh]
	 Correlation Energy        =      -1.5415393002807436 [Eh]
	 Total Energy              =    -382.2806048705819535 [Eh]

	 ================> DF-SCS-MP2 Energies <==================
	-----------------------------------------------------------
	 SCS Same-Spin Scale       =       0.3333333333333333 [-]
	 SCS Opposite-Spin Scale   =       1.2000000000000000 [-]
	 SCS Same-Spin Energy      =      -0.1219236273682989 [Eh]
	 SCS Opposite-Spin Energy  =      -1.4109221018110161 [Eh]
	 SCS Correlation Energy    =      -1.5328457291793149 [Eh]
	 SCS Total Energy          =    -382.2719112994805073 [Eh]
	-----------------------------------------------------------

  Dipole Moment: [D]
     X:     0.2828      Y:    -1.5092      Z:     2.0306     Total:     2.5458

*** Psi4 exiting successfully. Buy a developer a beer!
