                               Psi4 1.3.2 release

  ==> Input File <==

--------------------------------------------------------------------------
#psi4
#
memory 32 gb

molecule  {
0 1
  O        0.8013680    -0.3194430    -0.6593080
  O       -0.5076550    -0.8220740    -0.2452740
  O       -1.0728670     1.3987690    -0.0973370
  C        1.6031630    -0.2426310     0.5338170
  C        2.9657370     0.2196450     0.0595640
  C       -1.4127355     0.2081871    -0.1825052
  C       -2.7361800    -0.3473490     0.2635940
  H        1.1531750     0.4718980     1.2294250
  H        1.6470430    -1.2298650     1.0038120
  H        3.6380680     0.2976270     0.9176960
  H        3.3895360    -0.4934290    -0.6504970
  H        2.8952950     1.1995690    -0.4169390
  H       -3.2299570    -0.5922870    -0.6804890
  H       -2.6567000    -1.2579100     0.8585660
  H       -3.3255750     0.4009600     0.7925810
units angstrom
no_reorient  #important for SAPT in psi4, default
symmetry c1  #important for SAPT in psi4, default
}

set PROPERTIES_ORIGIN ["COM"]
properties('MP2/aug-cc-pvtz', properties = ['dipole'])
--------------------------------------------------------------------------

    Molecular point group: c1
  Charge       = 0
  Multiplicity = 1
  Basis Set: AUG-CC-PVTZ
    Blend: AUG-CC-PVTZ
  Basis Set: (AUG-CC-PVTZ AUX)
    Blend: AUG-CC-PVTZ-JKFIT

    Orbital Energies [Eh]
    ---------------------

    Doubly Occupied:

       1A    -20.660010     2A    -20.641849     3A    -20.552366
       4A    -11.397404     5A    -11.289936     6A    -11.253173
       7A    -11.227342     8A     -1.509590     9A     -1.373194
      10A     -1.269527    11A     -1.035170    12A     -1.004754
      13A     -0.853204    14A     -0.800016    15A     -0.706084
      16A     -0.691346    17A     -0.676861    18A     -0.643209
      19A     -0.609040    20A     -0.599097    21A     -0.583421
      22A     -0.545758    23A     -0.536364    24A     -0.530518
      25A     -0.512036    26A     -0.480706    27A     -0.459875
      28A     -0.450686

  @DF-RHF Final Energy:  -380.75520940366437

   => Energetics <=

    Nuclear Repulsion Energy =            315.4846341790562292
    One-Electron Energy =               -1146.6946167395831253
    Two-Electron Energy =                 450.4547731568625295
    Total Energy =                       -380.7552094036643666
  Basis Set: (AUG-CC-PVTZ AUX)
    Blend: AUG-CC-PVTZ-RI
    Molecular point group: c1

    Geometry (in Angstrom), charge = 0, multiplicity = 1:

       Center              X                  Y                   Z               Mass
    ------------   -----------------  -----------------  -----------------  -----------------
         O            0.838700331259    -0.328632038418    -0.612656954357    15.994914619570
         O           -0.470322668741    -0.831263038418    -0.198622954357    15.994914619570
         O           -1.035534668741     1.389579961582    -0.050685954357    15.994914619570
         C            1.640495331259    -0.251820038418     0.580468045643    12.000000000000
         C            3.003069331259     0.210455961582     0.106215045643    12.000000000000
         C           -1.375403168741     0.198998061582    -0.135854154357    12.000000000000
         C           -2.698847668741    -0.356538038418     0.310245045643    12.000000000000
         H            1.190507331259     0.462708961582     1.276076045643     1.007825032230
         H            1.684375331259    -1.239054038418     1.050463045643     1.007825032230
         H            3.675400331259     0.288437961582     0.964347045643     1.007825032230
         H            3.426868331259    -0.502618038418    -0.603845954357     1.007825032230
         H            2.932627331259     1.190379961582    -0.370287954357     1.007825032230
         H           -3.192624668741    -0.601476038418    -0.633837954357     1.007825032230
         H           -2.619367668741    -1.267099038418     0.905217045643     1.007825032230
         H           -3.288242668741     0.391770961582     0.839232045643     1.007825032230

  Basis Set: AUG-CC-PVTZ
    Blend: AUG-CC-PVTZ
  Basis Set: (AUG-CC-PVTZ AUX)
    Blend: AUG-CC-PVTZ-JKFIT
	 Reference Energy          =    -380.7552094036643666 [Eh]
	 Singles Energy            =      -0.0000000000000000 [Eh]
	 Same-Spin Energy          =      -0.3655471420414823 [Eh]
	 Opposite-Spin Energy      =      -1.1741012195264191 [Eh]
	 Correlation Energy        =      -1.5396483615679015 [Eh]
	 Total Energy              =    -382.2948577652322797 [Eh]

	 ================> DF-SCS-MP2 Energies <==================
	-----------------------------------------------------------
	 SCS Same-Spin Scale       =       0.3333333333333333 [-]
	 SCS Opposite-Spin Scale   =       1.2000000000000000 [-]
	 SCS Same-Spin Energy      =      -0.1218490473471608 [Eh]
	 SCS Opposite-Spin Energy  =      -1.4089214634317029 [Eh]
	 SCS Correlation Energy    =      -1.5307705107788636 [Eh]
	 SCS Total Energy          =    -382.2859799144432031 [Eh]
	-----------------------------------------------------------

  Dipole Moment: [D]
     X:    -0.2344      Y:    -1.6246      Z:     1.5417     Total:     2.2519

*** Psi4 exiting successfully. Buy a developer a beer!
