                               Psi4 1.3.2 release

  ==> Input File <==

--------------------------------------------------------------------------
#psi4
#
memory 32 gb

molecule  {
0 1
  O        0.8013680    -0.3194430    -0.6593080
  O       -0.6867212    -0.8908308    -0.1886367
  O       -1.0728670     1.3987690    -0.0973370
  C        1.6031630    -0.2426310     0.5338170
  C        2.9657370     0.2196450     0.0595640
  C       -1.3789950     0.2279050    -0.0301100
  C       -2.7361800    -0.3473490     0.2635940
  H        1.1531750     0.4718980     1.2294250
  H        1.6470430    -1.2298650     1.0038120
  H        3.6380680     0.2976270     0.9176960
  H        3.3895360    -0.4934290    -0.6504970
  H        2.8952950     1.1995690    -0.4169390
  H       -3.2299570    -0.5922870    -0.6804890
  H       -2.6567000    -1.2579100     0.8585660
  H       -3.3255750     0.4009600     0.7925810
units angstrom
no_reorient  #important for SAPT in psi4, default
symmetry c1  #important for SAPT in psi4, default
}

set PROPERTIES_ORIGIN ["COM"]
properties('MP2/aug-cc-pvtz', properties = ['dipole'])
--------------------------------------------------------------------------

    Molecular point group: c1
  Charge       = 0
  Multiplicity = 1
  Basis Set: AUG-CC-PVTZ
    Blend: AUG-CC-PVTZ
  Basis Set: (AUG-CC-PVTZ AUX)
    Blend: AUG-CC-PVTZ-JKFIT

    Orbital Energies [Eh]
    ---------------------

    Doubly Occupied:

       1A    -20.667510     2A    -20.660543     3A    -20.550089
       4A    -11.386429     5A    -11.298121     6A    -11.239222
       7A    -11.235262     8A     -1.480060     9A     -1.377903
      10A     -1.312120    11A     -1.029815    12A     -1.002224
      13A     -0.853996    14A     -0.790152    15A     -0.698997
      16A     -0.685618    17A     -0.672855    18A     -0.652126
      19A     -0.619852    20A     -0.593176    21A     -0.575777
      22A     -0.549007    23A     -0.548373    24A     -0.542263
      25A     -0.491780    26A     -0.488056    27A     -0.475373
      28A     -0.443763

  @DF-RHF Final Energy:  -380.72976425978777

   => Energetics <=

    Nuclear Repulsion Energy =            313.6520498006593698
    One-Electron Energy =               -1142.9227062531515458
    Two-Electron Energy =                 448.5408921927044048
    Total Energy =                       -380.7297642597877712
  Basis Set: (AUG-CC-PVTZ AUX)
    Blend: AUG-CC-PVTZ-RI
    Molecular point group: c1

    Geometry (in Angstrom), charge = 0, multiplicity = 1:

       Center              X                  Y                   Z               Mass
    ------------   -----------------  -----------------  -----------------  -----------------
         O            0.862336326980    -0.320336350019    -0.638939712471    15.994914619570
         O           -0.625752873020    -0.891724150019    -0.168268412471    15.994914619570
         O           -1.011898673020     1.397875649981    -0.076968712471    15.994914619570
         C            1.664131326980    -0.243524350019     0.554185287529    12.000000000000
         C            3.026705326980     0.218751649981     0.079932287529    12.000000000000
         C           -1.318026673020     0.227011649981    -0.009741712471    12.000000000000
         C           -2.675211673020    -0.348242350019     0.283962287529    12.000000000000
         H            1.214143326980     0.471004649981     1.249793287529     1.007825032230
         H            1.708011326980    -1.230758350019     1.024180287529     1.007825032230
         H            3.699036326980     0.296733649981     0.938064287529     1.007825032230
         H            3.450504326980    -0.494322350019    -0.630128712471     1.007825032230
         H            2.956263326980     1.198675649981    -0.396570712471     1.007825032230
         H           -3.168988673020    -0.593180350019    -0.660120712471     1.007825032230
         H           -2.595731673020    -1.258803350019     0.878934287529     1.007825032230
         H           -3.264606673020     0.400066649981     0.812949287529     1.007825032230

  Basis Set: AUG-CC-PVTZ
    Blend: AUG-CC-PVTZ
  Basis Set: (AUG-CC-PVTZ AUX)
    Blend: AUG-CC-PVTZ-JKFIT
	 Reference Energy          =    -380.7297642597877712 [Eh]
	 Singles Energy            =      -0.0000000000000000 [Eh]
	 Same-Spin Energy          =      -0.3691862039248808 [Eh]
	 Opposite-Spin Energy      =      -1.1867083070029745 [Eh]
	 Correlation Energy        =      -1.5558945109278552 [Eh]
	 Total Energy              =    -382.2856587707155995 [Eh]

	 ================> DF-SCS-MP2 Energies <==================
	-----------------------------------------------------------
	 SCS Same-Spin Scale       =       0.3333333333333333 [-]
	 SCS Opposite-Spin Scale   =       1.2000000000000000 [-]
	 SCS Same-Spin Energy      =      -0.1230620679749602 [Eh]
	 SCS Opposite-Spin Energy  =      -1.4240499684035692 [Eh]
	 SCS Correlation Energy    =      -1.5471120363785296 [Eh]
	 SCS Total Energy          =    -382.2768762961662787 [Eh]
	-----------------------------------------------------------

  Dipole Moment: [D]
     X:     0.0437      Y:    -1.5591      Z:     1.6724     Total:     2.2868

*** Psi4 exiting successfully. Buy a developer a beer!
