                               Psi4 1.3.2 release

  ==> Input File <==

--------------------------------------------------------------------------
#psi4
#
memory 32 gb

molecule  {
0 1
  O        0.8013680    -0.3194430    -0.6593080
  O       -0.4049443    -0.7225436    -0.2664518
  O       -1.0728670     1.3987690    -0.0973370
  C        1.6031630    -0.2426310     0.5338170
  C        2.9657370     0.2196450     0.0595640
  C       -1.3789950     0.2279050    -0.0301100
  C       -2.7361800    -0.3473490     0.2635940
  H        1.1531750     0.4718980     1.2294250
  H        1.6470430    -1.2298650     1.0038120
  H        3.6380680     0.2976270     0.9176960
  H        3.3895360    -0.4934290    -0.6504970
  H        2.8952950     1.1995690    -0.4169390
  H       -3.2299570    -0.5922870    -0.6804890
  H       -2.6567000    -1.2579100     0.8585660
  H       -3.3255750     0.4009600     0.7925810
units angstrom
no_reorient  #important for SAPT in psi4, default
symmetry c1  #important for SAPT in psi4, default
}

set PROPERTIES_ORIGIN ["COM"]
properties('MP2/aug-cc-pvtz', properties = ['dipole'])
--------------------------------------------------------------------------

    Molecular point group: c1
  Charge       = 0
  Multiplicity = 1
  Basis Set: AUG-CC-PVTZ
    Blend: AUG-CC-PVTZ
  Basis Set: (AUG-CC-PVTZ AUX)
    Blend: AUG-CC-PVTZ-JKFIT

    Orbital Energies [Eh]
    ---------------------

    Doubly Occupied:

       1A    -20.645070     2A    -20.631184     3A    -20.550093
       4A    -11.392605     5A    -11.286336     6A    -11.259197
       7A    -11.223392     8A     -1.560923     9A     -1.395705
      10A     -1.243519    11A     -1.040531    12A     -1.005154
      13A     -0.862174    14A     -0.808739    15A     -0.720288
      16A     -0.700915    17A     -0.689718    18A     -0.642620
      19A     -0.615944    20A     -0.600334    21A     -0.588693
      22A     -0.551197    23A     -0.530639    24A     -0.528358
      25A     -0.516033    26A     -0.473859    27A     -0.459352
      28A     -0.439773

  @DF-RHF Final Energy:  -380.76856249159704

   => Energetics <=

    Nuclear Repulsion Energy =            319.2044149115462233
    One-Electron Energy =               -1154.0212655866096156
    Two-Electron Energy =                 454.0482881834663544
    Total Energy =                       -380.7685624915970379
  Basis Set: (AUG-CC-PVTZ AUX)
    Blend: AUG-CC-PVTZ-RI
    Molecular point group: c1

    Geometry (in Angstrom), charge = 0, multiplicity = 1:

       Center              X                  Y                   Z               Mass
    ------------   -----------------  -----------------  -----------------  -----------------
         O            0.819019532154    -0.346206682592    -0.626977409241    15.994914619570
         O           -0.387292767846    -0.749307282592    -0.234121209241    15.994914619570
         O           -1.055215467846     1.372005317408    -0.065006409241    15.994914619570
         C            1.620814532154    -0.269394682592     0.566147590759    12.000000000000
         C            2.983388532154     0.192881317408     0.091894590759    12.000000000000
         C           -1.361343467846     0.201141317408     0.002220590759    12.000000000000
         C           -2.718528467846    -0.374112682592     0.295924590759    12.000000000000
         H            1.170826532154     0.445134317408     1.261755590759     1.007825032230
         H            1.664694532154    -1.256628682592     1.036142590759     1.007825032230
         H            3.655719532154     0.270863317408     0.950026590759     1.007825032230
         H            3.407187532154    -0.520192682592    -0.618166409241     1.007825032230
         H            2.912946532154     1.172805317408    -0.384608409241     1.007825032230
         H           -3.212305467846    -0.619050682592    -0.648158409241     1.007825032230
         H           -2.639048467846    -1.284673682592     0.890896590759     1.007825032230
         H           -3.307923467846     0.374196317408     0.824911590759     1.007825032230

  Basis Set: AUG-CC-PVTZ
    Blend: AUG-CC-PVTZ
  Basis Set: (AUG-CC-PVTZ AUX)
    Blend: AUG-CC-PVTZ-JKFIT
	 Reference Energy          =    -380.7685624915970379 [Eh]
	 Singles Energy            =      -0.0000000000000000 [Eh]
	 Same-Spin Energy          =      -0.3625813705657895 [Eh]
	 Opposite-Spin Energy      =      -1.1634307892748108 [Eh]
	 Correlation Energy        =      -1.5260121598406005 [Eh]
	 Total Energy              =    -382.2945746514376424 [Eh]

	 ================> DF-SCS-MP2 Energies <==================
	-----------------------------------------------------------
	 SCS Same-Spin Scale       =       0.3333333333333333 [-]
	 SCS Opposite-Spin Scale   =       1.2000000000000000 [-]
	 SCS Same-Spin Energy      =      -0.1208604568552632 [Eh]
	 SCS Opposite-Spin Energy  =      -1.3961169471297730 [Eh]
	 SCS Correlation Energy    =      -1.5169774039850361 [Eh]
	 SCS Total Energy          =    -382.2855398955820760 [Eh]
	-----------------------------------------------------------

  Dipole Moment: [D]
     X:    -0.4363      Y:    -1.6497      Z:     1.6763     Total:     2.3920

*** Psi4 exiting successfully. Buy a developer a beer!
