                               Psi4 1.3.2 release

  ==> Input File <==

--------------------------------------------------------------------------
#psi4
#
memory 32 gb

molecule  {
0 1
  O        0.7976627    -0.3439128    -0.6549781
  O       -0.5076550    -0.8220740    -0.2452740
  O       -1.0728670     1.3987690    -0.0973370
  C        1.6031630    -0.2426310     0.5338170
  C        2.9657370     0.2196450     0.0595640
  C       -1.3789950     0.2279050    -0.0301100
  C       -2.7361800    -0.3473490     0.2635940
  H        1.1531750     0.4718980     1.2294250
  H        1.6470430    -1.2298650     1.0038120
  H        3.6380680     0.2976270     0.9176960
  H        3.3895360    -0.4934290    -0.6504970
  H        2.8952950     1.1995690    -0.4169390
  H       -3.2299570    -0.5922870    -0.6804890
  H       -2.6567000    -1.2579100     0.8585660
  H       -3.3255750     0.4009600     0.7925810
units angstrom
no_reorient  #important for SAPT in psi4, default
symmetry c1  #important for SAPT in psi4, default
}

set PROPERTIES_ORIGIN ["COM"]
properties('MP2/aug-cc-pvtz', properties = ['dipole'])
--------------------------------------------------------------------------

    Molecular point group: c1
  Charge       = 0
  Multiplicity = 1
  Basis Set: AUG-CC-PVTZ
    Blend: AUG-CC-PVTZ
  Basis Set: (AUG-CC-PVTZ AUX)
    Blend: AUG-CC-PVTZ-JKFIT

    Orbital Energies [Eh]
    ---------------------

    Doubly Occupied:

       1A    -20.656654     2A    -20.639082     3A    -20.555628
       4A    -11.393488     5A    -11.289945     6A    -11.252152
       7A    -11.227434     8A     -1.511473     9A     -1.391974
      10A     -1.266330    11A     -1.035283    12A     -1.004197
      13A     -0.854815    14A     -0.797822    15A     -0.708114
      16A     -0.694803    17A     -0.676688    18A     -0.644090
      19A     -0.614643    20A     -0.599208    21A     -0.583536
      22A     -0.548471    23A     -0.535973    24A     -0.532485
      25A     -0.513710    26A     -0.479615    27A     -0.468782
      28A     -0.451927

  @DF-RHF Final Energy:  -380.77053620451471

   => Energetics <=

    Nuclear Repulsion Energy =            316.1446124175080854
    One-Electron Energy =               -1147.9736532817294119
    Two-Electron Energy =                 451.0585046597065570
    Total Energy =                       -380.7705362045147126
  Basis Set: (AUG-CC-PVTZ AUX)
    Blend: AUG-CC-PVTZ-RI
    Molecular point group: c1

    Geometry (in Angstrom), charge = 0, multiplicity = 1:

       Center              X                  Y                   Z               Mass
    ------------   -----------------  -----------------  -----------------  -----------------
         O            0.831673273786    -0.351614269821    -0.626568738438    15.994914619570
         O           -0.473644426214    -0.829775469821    -0.216864638438    15.994914619570
         O           -1.038856426214     1.391067530179    -0.068927638438    15.994914619570
         C            1.637173573786    -0.250332469821     0.562226361562    12.000000000000
         C            2.999747573786     0.211943530179     0.087973361562    12.000000000000
         C           -1.344984426214     0.220203530179    -0.001700638438    12.000000000000
         C           -2.702169426214    -0.355050469821     0.292003361562    12.000000000000
         H            1.187185573786     0.464196530179     1.257834361562     1.007825032230
         H            1.681053573786    -1.237566469821     1.032221361562     1.007825032230
         H            3.672078573786     0.289925530179     0.946105361562     1.007825032230
         H            3.423546573786    -0.501130469821    -0.622087638438     1.007825032230
         H            2.929305573786     1.191867530179    -0.388529638438     1.007825032230
         H           -3.195946426214    -0.599988469821    -0.652079638438     1.007825032230
         H           -2.622689426214    -1.265611469821     0.886975361562     1.007825032230
         H           -3.291564426214     0.393258530179     0.820990361562     1.007825032230

  Basis Set: AUG-CC-PVTZ
    Blend: AUG-CC-PVTZ
  Basis Set: (AUG-CC-PVTZ AUX)
    Blend: AUG-CC-PVTZ-JKFIT
	 Reference Energy          =    -380.7705362045147126 [Eh]
	 Singles Energy            =      -0.0000000000000000 [Eh]
	 Same-Spin Energy          =      -0.3644214284045632 [Eh]
	 Opposite-Spin Energy      =      -1.1710727415229334 [Eh]
	 Correlation Energy        =      -1.5354941699274964 [Eh]
	 Total Energy              =    -382.3060303744422299 [Eh]

	 ================> DF-SCS-MP2 Energies <==================
	-----------------------------------------------------------
	 SCS Same-Spin Scale       =       0.3333333333333333 [-]
	 SCS Opposite-Spin Scale   =       1.2000000000000000 [-]
	 SCS Same-Spin Energy      =      -0.1214738094681877 [Eh]
	 SCS Opposite-Spin Energy  =      -1.4052872898275199 [Eh]
	 SCS Correlation Energy    =      -1.5267610992957077 [Eh]
	 SCS Total Energy          =    -382.2972973038104101 [Eh]
	-----------------------------------------------------------

  Dipole Moment: [D]
     X:    -0.2331      Y:    -1.4824      Z:     1.6774     Total:     2.2507

*** Psi4 exiting successfully. Buy a developer a beer!
