                               Psi4 1.3.2 release

  ==> Input File <==

--------------------------------------------------------------------------
#psi4
#
memory 32 gb

molecule  {
0 1
  O        0.8013680    -0.3194430    -0.6593080
  O       -0.5076550    -0.8220740    -0.2452740
  O       -1.0728670     1.3987690    -0.0973370
  C        1.6031630    -0.2426310     0.5338170
  C        2.9657370     0.2196450     0.0595640
  C       -1.4042513     0.1313060    -0.0245636
  C       -2.7361800    -0.3473490     0.2635940
  H        1.1531750     0.4718980     1.2294250
  H        1.6470430    -1.2298650     1.0038120
  H        3.6380680     0.2976270     0.9176960
  H        3.3895360    -0.4934290    -0.6504970
  H        2.8952950     1.1995690    -0.4169390
  H       -3.2299570    -0.5922870    -0.6804890
  H       -2.6567000    -1.2579100     0.8585660
  H       -3.3255750     0.4009600     0.7925810
units angstrom
no_reorient  #important for SAPT in psi4, default
symmetry c1  #important for SAPT in psi4, default
}

set PROPERTIES_ORIGIN ["COM"]
properties('MP2/aug-cc-pvtz', properties = ['dipole'])
--------------------------------------------------------------------------

    Molecular point group: c1
  Charge       = 0
  Multiplicity = 1
  Basis Set: AUG-CC-PVTZ
    Blend: AUG-CC-PVTZ
  Basis Set: (AUG-CC-PVTZ AUX)
    Blend: AUG-CC-PVTZ-JKFIT

    Orbital Energies [Eh]
    ---------------------

    Doubly Occupied:

       1A    -20.668402     2A    -20.653490     3A    -20.534384
       4A    -11.397981     5A    -11.294472     6A    -11.253624
       7A    -11.230486     8A     -1.523198     9A     -1.336614
      10A     -1.273384    11A     -1.049740    12A     -1.014593
      13A     -0.859727    14A     -0.808611    15A     -0.711297
      16A     -0.691269    17A     -0.681379    18A     -0.647593
      19A     -0.618534    20A     -0.598004    21A     -0.570640
      22A     -0.552816    23A     -0.538986    24A     -0.532783
      25A     -0.516043    26A     -0.477329    27A     -0.443309
      28A     -0.442766

  @DF-RHF Final Energy:  -380.74654106085433

   => Energetics <=

    Nuclear Repulsion Energy =            315.7289143658206285
    One-Electron Energy =               -1147.1080035020836476
    Two-Electron Energy =                 450.6325480754086925
    Total Energy =                       -380.7465410608543266
  Basis Set: (AUG-CC-PVTZ AUX)
    Blend: AUG-CC-PVTZ-RI
    Molecular point group: c1

    Geometry (in Angstrom), charge = 0, multiplicity = 1:

       Center              X                  Y                   Z               Mass
    ------------   -----------------  -----------------  -----------------  -----------------
         O            0.837721830550    -0.319765178742    -0.630872692741    15.994914619570
         O           -0.471301169450    -0.822396178742    -0.216838692741    15.994914619570
         O           -1.036513169450     1.398446821258    -0.068901692741    15.994914619570
         C            1.639516830550    -0.242953178742     0.562252307259    12.000000000000
         C            3.002090830550     0.219322821258     0.087999307259    12.000000000000
         C           -1.367897469450     0.130983821258     0.003871707259    12.000000000000
         C           -2.699826169450    -0.347671178742     0.292029307259    12.000000000000
         H            1.189528830550     0.471575821258     1.257860307259     1.007825032230
         H            1.683396830550    -1.230187178742     1.032247307259     1.007825032230
         H            3.674421830550     0.297304821258     0.946131307259     1.007825032230
         H            3.425889830550    -0.493751178742    -0.622061692741     1.007825032230
         H            2.931648830550     1.199246821258    -0.388503692741     1.007825032230
         H           -3.193603169450    -0.592609178742    -0.652053692741     1.007825032230
         H           -2.620346169450    -1.258232178742     0.887001307259     1.007825032230
         H           -3.289221169450     0.400637821258     0.821016307259     1.007825032230

  Basis Set: AUG-CC-PVTZ
    Blend: AUG-CC-PVTZ
  Basis Set: (AUG-CC-PVTZ AUX)
    Blend: AUG-CC-PVTZ-JKFIT
	 Reference Energy          =    -380.7465410608543266 [Eh]
	 Singles Energy            =      -0.0000000000000000 [Eh]
	 Same-Spin Energy          =      -0.3665280489021959 [Eh]
	 Opposite-Spin Energy      =      -1.1749972113468856 [Eh]
	 Correlation Energy        =      -1.5415252602490814 [Eh]
	 Total Energy              =    -382.2880663211034289 [Eh]

	 ================> DF-SCS-MP2 Energies <==================
	-----------------------------------------------------------
	 SCS Same-Spin Scale       =       0.3333333333333333 [-]
	 SCS Opposite-Spin Scale   =       1.2000000000000000 [-]
	 SCS Same-Spin Energy      =      -0.1221760163007320 [Eh]
	 SCS Opposite-Spin Energy  =      -1.4099966536162627 [Eh]
	 SCS Correlation Energy    =      -1.5321726699169946 [Eh]
	 SCS Total Energy          =    -382.2787137307713010 [Eh]
	-----------------------------------------------------------

  Dipole Moment: [D]
     X:    -0.1095      Y:    -2.1257      Z:     1.6920     Total:     2.7191

*** Psi4 exiting successfully. Buy a developer a beer!
