                               Psi4 1.3.2 release

  ==> Input File <==

--------------------------------------------------------------------------
#psi4
#
memory 32 gb

molecule  {
0 1
  O        0.8013680    -0.3194430    -0.6593080
  O       -0.5076550    -0.8220740    -0.2452740
  O       -1.0728670     1.3987690    -0.0973370
  C        1.6031630    -0.2426310     0.5338170
  C        2.9657370     0.2196450     0.0595640
  C       -1.3284825     0.4211029    -0.0412028
  C       -2.7361800    -0.3473490     0.2635940
  H        1.1531750     0.4718980     1.2294250
  H        1.6470430    -1.2298650     1.0038120
  H        3.6380680     0.2976270     0.9176960
  H        3.3895360    -0.4934290    -0.6504970
  H        2.8952950     1.1995690    -0.4169390
  H       -3.2299570    -0.5922870    -0.6804890
  H       -2.6567000    -1.2579100     0.8585660
  H       -3.3255750     0.4009600     0.7925810
units angstrom
no_reorient  #important for SAPT in psi4, default
symmetry c1  #important for SAPT in psi4, default
}

set PROPERTIES_ORIGIN ["COM"]
properties('MP2/aug-cc-pvtz', properties = ['dipole'])
--------------------------------------------------------------------------

    Molecular point group: c1
  Charge       = 0
  Multiplicity = 1
  Basis Set: AUG-CC-PVTZ
    Blend: AUG-CC-PVTZ
  Basis Set: (AUG-CC-PVTZ AUX)
    Blend: AUG-CC-PVTZ-JKFIT

    Orbital Energies [Eh]
    ---------------------

    Doubly Occupied:

       1A    -20.624409     2A    -20.613409     3A    -20.596075
       4A    -11.377462     5A    -11.280915     6A    -11.247525
       7A    -11.220733     8A     -1.585708     9A     -1.453706
      10A     -1.224942    11A     -1.012522    12A     -0.979383
      13A     -0.842959    14A     -0.785319    15A     -0.747775
      16A     -0.707078    17A     -0.698635    18A     -0.655873
      19A     -0.628775    20A     -0.607629    21A     -0.569493
      22A     -0.567828    23A     -0.538518    24A     -0.531638
      25A     -0.503802    26A     -0.478207    27A     -0.466437
      28A     -0.418146

  @DF-RHF Final Energy:  -380.68601693165272

   => Energetics <=

    Nuclear Repulsion Energy =            317.5428896729298458
    One-Electron Energy =               -1150.5280142482945394
    Two-Electron Energy =                 452.2991076437119773
    Total Energy =                       -380.6860169316527163
  Basis Set: (AUG-CC-PVTZ AUX)
    Blend: AUG-CC-PVTZ-RI
    Molecular point group: c1

    Geometry (in Angstrom), charge = 0, multiplicity = 1:

       Center              X                  Y                   Z               Mass
    ------------   -----------------  -----------------  -----------------  -----------------
         O            0.828983254782    -0.353188067423    -0.628953658654    15.994914619570
         O           -0.480039745218    -0.855819067423    -0.214919658654    15.994914619570
         O           -1.045251745218     1.365023932577    -0.066982658654    15.994914619570
         C            1.630778254782    -0.276376067423     0.564171341346    12.000000000000
         C            2.993352254782     0.185899932577     0.089918341346    12.000000000000
         C           -1.300867245218     0.387357832577    -0.010848458654    12.000000000000
         C           -2.708564745218    -0.381094067423     0.293948341346    12.000000000000
         H            1.180790254782     0.438152932577     1.259779341346     1.007825032230
         H            1.674658254782    -1.263610067423     1.034166341346     1.007825032230
         H            3.665683254782     0.263881932577     0.948050341346     1.007825032230
         H            3.417151254782    -0.527174067423    -0.620142658654     1.007825032230
         H            2.922910254782     1.165823932577    -0.386584658654     1.007825032230
         H           -3.202341745218    -0.626032067423    -0.650134658654     1.007825032230
         H           -2.629084745218    -1.291655067423     0.888920341346     1.007825032230
         H           -3.297959745218     0.367214932577     0.822935341346     1.007825032230

  Basis Set: AUG-CC-PVTZ
    Blend: AUG-CC-PVTZ
  Basis Set: (AUG-CC-PVTZ AUX)
    Blend: AUG-CC-PVTZ-JKFIT
	 Reference Energy          =    -380.6860169316527163 [Eh]
	 Singles Energy            =      -0.0000000000000000 [Eh]
	 Same-Spin Energy          =      -0.3619921926456872 [Eh]
	 Opposite-Spin Energy      =      -1.1673920491871712 [Eh]
	 Correlation Energy        =      -1.5293842418328585 [Eh]
	 Total Energy              =    -382.2154011734855885 [Eh]

	 ================> DF-SCS-MP2 Energies <==================
	-----------------------------------------------------------
	 SCS Same-Spin Scale       =       0.3333333333333333 [-]
	 SCS Opposite-Spin Scale   =       1.2000000000000000 [-]
	 SCS Same-Spin Energy      =      -0.1206640642152290 [Eh]
	 SCS Opposite-Spin Energy  =      -1.4008704590246055 [Eh]
	 SCS Correlation Energy    =      -1.5215345232398345 [Eh]
	 SCS Total Energy          =    -382.2075514548925526 [Eh]
	-----------------------------------------------------------

  Dipole Moment: [D]
     X:    -0.4301      Y:     0.0072      Z:     1.6317     Total:     1.6874

*** Psi4 exiting successfully. Buy a developer a beer!
