                               Psi4 1.3.2 release

  ==> Input File <==

--------------------------------------------------------------------------
#psi4
#
memory 32 gb

molecule  {
0 1
  O        0.8013680    -0.3194430    -0.6593080
  O       -0.5076550    -0.8220740    -0.2452740
  O       -1.0728670     1.3987690    -0.0973370
  C        1.6031630    -0.2426310     0.5338170
  C        2.9657370     0.2196450     0.0595640
  C       -1.3789950     0.2279050    -0.0301100
  C       -2.8264760    -0.3856217     0.2831347
  H        1.1531750     0.4718980     1.2294250
  H        1.6470430    -1.2298650     1.0038120
  H        3.6380680     0.2976270     0.9176960
  H        3.3895360    -0.4934290    -0.6504970
  H        2.8952950     1.1995690    -0.4169390
  H       -3.2299570    -0.5922870    -0.6804890
  H       -2.6567000    -1.2579100     0.8585660
  H       -3.3255750     0.4009600     0.7925810
units angstrom
no_reorient  #important for SAPT in psi4, default
symmetry c1  #important for SAPT in psi4, default
}

set PROPERTIES_ORIGIN ["COM"]
properties('MP2/aug-cc-pvtz', properties = ['dipole'])
--------------------------------------------------------------------------

    Molecular point group: c1
  Charge       = 0
  Multiplicity = 1
  Basis Set: AUG-CC-PVTZ
    Blend: AUG-CC-PVTZ
  Basis Set: (AUG-CC-PVTZ AUX)
    Blend: AUG-CC-PVTZ-JKFIT

    Orbital Energies [Eh]
    ---------------------

    Doubly Occupied:

       1A    -20.657343     2A    -20.640454     3A    -20.556286
       4A    -11.395338     5A    -11.290213     6A    -11.252007
       7A    -11.227363     8A     -1.506762     9A     -1.389981
      10A     -1.266544    11A     -1.028345    12A     -1.000999
      13A     -0.854127    14A     -0.795718    15A     -0.701156
      16A     -0.692429    17A     -0.674143    18A     -0.640018
      19A     -0.617478    20A     -0.601351    21A     -0.591629
      22A     -0.551993    23A     -0.538493    24A     -0.535014
      25A     -0.512990    26A     -0.481453    27A     -0.466967
      28A     -0.443680

  @DF-RHF Final Energy:  -380.76171234579004

   => Energetics <=

    Nuclear Repulsion Energy =            314.3688984283946866
    One-Electron Energy =               -1144.4406740508889015
    Two-Electron Energy =                 449.3100632767041702
    Total Energy =                       -380.7617123457900448
  Basis Set: (AUG-CC-PVTZ AUX)
    Blend: AUG-CC-PVTZ-RI
    Molecular point group: c1

    Geometry (in Angstrom), charge = 0, multiplicity = 1:

       Center              X                  Y                   Z               Mass
    ------------   -----------------  -----------------  -----------------  -----------------
         O            0.845222996549    -0.326492074137    -0.632486684924    15.994914619570
         O           -0.463800003451    -0.829123074137    -0.218452684924    15.994914619570
         O           -1.029012003451     1.391719925863    -0.070515684924    15.994914619570
         C            1.647017996549    -0.249680074137     0.560638315076    12.000000000000
         C            3.009591996549     0.212595925863     0.086385315076    12.000000000000
         C           -1.335140003451     0.220855925863    -0.003288684924    12.000000000000
         C           -2.782621003451    -0.392670774137     0.309956015076    12.000000000000
         H            1.197029996549     0.464848925863     1.256246315076     1.007825032230
         H            1.690897996549    -1.236914074137     1.030633315076     1.007825032230
         H            3.681922996549     0.290577925863     0.944517315076     1.007825032230
         H            3.433390996549    -0.500478074137    -0.623675684924     1.007825032230
         H            2.939149996549     1.192519925863    -0.390117684924     1.007825032230
         H           -3.186102003451    -0.599336074137    -0.653667684924     1.007825032230
         H           -2.612845003451    -1.264959074137     0.885387315076     1.007825032230
         H           -3.281720003451     0.393910925863     0.819402315076     1.007825032230

  Basis Set: AUG-CC-PVTZ
    Blend: AUG-CC-PVTZ
  Basis Set: (AUG-CC-PVTZ AUX)
    Blend: AUG-CC-PVTZ-JKFIT
	 Reference Energy          =    -380.7617123457900448 [Eh]
	 Singles Energy            =      -0.0000000000000000 [Eh]
	 Same-Spin Energy          =      -0.3644505641037760 [Eh]
	 Opposite-Spin Energy      =      -1.1722063789388191 [Eh]
	 Correlation Energy        =      -1.5366569430425949 [Eh]
	 Total Energy              =    -382.2983692888326459 [Eh]

	 ================> DF-SCS-MP2 Energies <==================
	-----------------------------------------------------------
	 SCS Same-Spin Scale       =       0.3333333333333333 [-]
	 SCS Opposite-Spin Scale   =       1.2000000000000000 [-]
	 SCS Same-Spin Energy      =      -0.1214835213679253 [Eh]
	 SCS Opposite-Spin Energy  =      -1.4066476547265829 [Eh]
	 SCS Correlation Energy    =      -1.5281311760945082 [Eh]
	 SCS Total Energy          =    -382.2898435218845634 [Eh]
	-----------------------------------------------------------

  Dipole Moment: [D]
     X:    -0.1283      Y:    -1.4540      Z:     1.6665     Total:     2.2154

*** Psi4 exiting successfully. Buy a developer a beer!
