                               Psi4 1.3.2 release

  ==> Input File <==

--------------------------------------------------------------------------
#psi4
#
memory 32 gb

molecule  {
0 1
  O        0.8013680    -0.3194430    -0.6593080
  O       -0.5076550    -0.8220740    -0.2452740
  O       -1.0728670     1.3987690    -0.0973370
  C        1.6031630    -0.2426310     0.5338170
  C        2.9657370     0.2196450     0.0595640
  C       -1.3710389     0.2330857     0.0214871
  C       -2.7361800    -0.3473490     0.2635940
  H        1.1531750     0.4718980     1.2294250
  H        1.6470430    -1.2298650     1.0038120
  H        3.6380680     0.2976270     0.9176960
  H        3.3895360    -0.4934290    -0.6504970
  H        2.8952950     1.1995690    -0.4169390
  H       -3.2299570    -0.5922870    -0.6804890
  H       -2.6567000    -1.2579100     0.8585660
  H       -3.3255750     0.4009600     0.7925810
units angstrom
no_reorient  #important for SAPT in psi4, default
symmetry c1  #important for SAPT in psi4, default
}

set PROPERTIES_ORIGIN ["COM"]
properties('MP2/aug-cc-pvtz', properties = ['dipole'])
--------------------------------------------------------------------------

    Molecular point group: c1
  Charge       = 0
  Multiplicity = 1
  Basis Set: AUG-CC-PVTZ
    Blend: AUG-CC-PVTZ
  Basis Set: (AUG-CC-PVTZ AUX)
    Blend: AUG-CC-PVTZ-JKFIT

    Orbital Energies [Eh]
    ---------------------

    Doubly Occupied:

       1A    -20.655160     2A    -20.639464     3A    -20.557340
       4A    -11.393552     5A    -11.289968     6A    -11.252439
       7A    -11.227094     8A     -1.505232     9A     -1.393812
      10A     -1.265475    11A     -1.034555    12A     -1.004227
      13A     -0.853933    14A     -0.795228    15A     -0.707334
      16A     -0.693516    17A     -0.673892    18A     -0.644165
      19A     -0.616936    20A     -0.597853    21A     -0.582642
      22A     -0.548507    23A     -0.535150    24A     -0.532954
      25A     -0.512129    26A     -0.480488    27A     -0.469693
      28A     -0.452682

  @DF-RHF Final Energy:  -380.76732945070455

   => Energetics <=

    Nuclear Repulsion Energy =            316.0089896895540846
    One-Electron Energy =               -1147.7217980156724479
    Two-Electron Energy =                 450.9454788754138690
    Total Energy =                       -380.7673294507045512
  Basis Set: (AUG-CC-PVTZ AUX)
    Blend: AUG-CC-PVTZ-RI
    Molecular point group: c1

    Geometry (in Angstrom), charge = 0, multiplicity = 1:

       Center              X                  Y                   Z               Mass
    ------------   -----------------  -----------------  -----------------  -----------------
         O            0.833891374296    -0.331503646555    -0.636183817256    15.994914619570
         O           -0.475131625704    -0.834134646555    -0.222149817256    15.994914619570
         O           -1.040343625704     1.386708353445    -0.074212817256    15.994914619570
         C            1.635686374296    -0.254691646555     0.556941182744    12.000000000000
         C            2.998260374296     0.207584353445     0.082688182744    12.000000000000
         C           -1.338515525704     0.221025053445     0.044611282744    12.000000000000
         C           -2.703656625704    -0.359409646555     0.286718182744    12.000000000000
         H            1.185698374296     0.459837353445     1.252549182744     1.007825032230
         H            1.679566374296    -1.241925646555     1.026936182744     1.007825032230
         H            3.670591374296     0.285566353445     0.940820182744     1.007825032230
         H            3.422059374296    -0.505489646555    -0.627372817256     1.007825032230
         H            2.927818374296     1.187508353445    -0.393814817256     1.007825032230
         H           -3.197433625704    -0.604347646555    -0.657364817256     1.007825032230
         H           -2.624176625704    -1.269970646555     0.881690182744     1.007825032230
         H           -3.293051625704     0.388899353445     0.815705182744     1.007825032230

  Basis Set: AUG-CC-PVTZ
    Blend: AUG-CC-PVTZ
  Basis Set: (AUG-CC-PVTZ AUX)
    Blend: AUG-CC-PVTZ-JKFIT
	 Reference Energy          =    -380.7673294507045512 [Eh]
	 Singles Energy            =      -0.0000000000000000 [Eh]
	 Same-Spin Energy          =      -0.3648565039005841 [Eh]
	 Opposite-Spin Energy      =      -1.1725102100033440 [Eh]
	 Correlation Energy        =      -1.5373667139039280 [Eh]
	 Total Energy              =    -382.3046961646084583 [Eh]

	 ================> DF-SCS-MP2 Energies <==================
	-----------------------------------------------------------
	 SCS Same-Spin Scale       =       0.3333333333333333 [-]
	 SCS Opposite-Spin Scale   =       1.2000000000000000 [-]
	 SCS Same-Spin Energy      =      -0.1216188346335280 [Eh]
	 SCS Opposite-Spin Energy  =      -1.4070122520040127 [Eh]
	 SCS Correlation Energy    =      -1.5286310866375408 [Eh]
	 SCS Total Energy          =    -382.2959605373420686 [Eh]
	-----------------------------------------------------------

  Dipole Moment: [D]
     X:    -0.2588      Y:    -1.4595      Z:     1.7317     Total:     2.2795

*** Psi4 exiting successfully. Buy a developer a beer!
