                               Psi4 1.3.2 release

  ==> Input File <==

--------------------------------------------------------------------------
#psi4
#
memory 32 gb

molecule  {
0 1
  O        0.8013680    -0.3194430    -0.6593080
  O       -0.4722995    -0.7901240    -0.2526072
  O       -1.0728670     1.3987690    -0.0973370
  C        1.6031630    -0.2426310     0.5338170
  C        2.9657370     0.2196450     0.0595640
  C       -1.3789950     0.2279050    -0.0301100
  C       -2.7361800    -0.3473490     0.2635940
  H        1.1531750     0.4718980     1.2294250
  H        1.6470430    -1.2298650     1.0038120
  H        3.6380680     0.2976270     0.9176960
  H        3.3895360    -0.4934290    -0.6504970
  H        2.8952950     1.1995690    -0.4169390
  H       -3.2299570    -0.5922870    -0.6804890
  H       -2.6567000    -1.2579100     0.8585660
  H       -3.3255750     0.4009600     0.7925810
units angstrom
no_reorient  #important for SAPT in psi4, default
symmetry c1  #important for SAPT in psi4, default
}

set PROPERTIES_ORIGIN ["COM"]
properties('MP2/aug-cc-pvtz', properties = ['dipole'])
--------------------------------------------------------------------------

    Molecular point group: c1
  Charge       = 0
  Multiplicity = 1
  Basis Set: AUG-CC-PVTZ
    Blend: AUG-CC-PVTZ
  Basis Set: (AUG-CC-PVTZ AUX)
    Blend: AUG-CC-PVTZ-JKFIT

    Orbital Energies [Eh]
    ---------------------

    Doubly Occupied:

       1A    -20.653338     2A    -20.637217     3A    -20.553706
       4A    -11.392936     5A    -11.288875     6A    -11.254397
       7A    -11.225953     8A     -1.522983     9A     -1.392681
      10A     -1.260002    11A     -1.036511    12A     -1.004403
      13A     -0.855981    14A     -0.800672    15A     -0.710884
      16A     -0.696206    17A     -0.679662    18A     -0.643466
      19A     -0.614909    20A     -0.599366    21A     -0.585069
      22A     -0.548945    23A     -0.533784    24A     -0.531078
      25A     -0.515239    26A     -0.477789    27A     -0.466808
      28A     -0.449984

  @DF-RHF Final Energy:  -380.77272722358839

   => Energetics <=

    Nuclear Repulsion Energy =            317.0476819055489273
    One-Electron Energy =               -1149.7751270078470043
    Two-Electron Energy =                 451.9547178787097437
    Total Energy =                       -380.7727272235883902
  Basis Set: (AUG-CC-PVTZ AUX)
    Blend: AUG-CC-PVTZ-RI
    Molecular point group: c1

    Geometry (in Angstrom), charge = 0, multiplicity = 1:

       Center              X                  Y                   Z               Mass
    ------------   -----------------  -----------------  -----------------  -----------------
         O            0.829373863467    -0.335817731897    -0.629105701864    15.994914619570
         O           -0.444293636533    -0.806498731897    -0.222404901864    15.994914619570
         O           -1.044861136533     1.382394268103    -0.067134701864    15.994914619570
         C            1.631168863467    -0.259005731897     0.564019298136    12.000000000000
         C            2.993742863467     0.203270268103     0.089766298136    12.000000000000
         C           -1.350989136533     0.211530268103     0.000092298136    12.000000000000
         C           -2.708174136533    -0.363723731897     0.293796298136    12.000000000000
         H            1.181180863467     0.455523268103     1.259627298136     1.007825032230
         H            1.675048863467    -1.246239731897     1.034014298136     1.007825032230
         H            3.666073863467     0.281252268103     0.947898298136     1.007825032230
         H            3.417541863467    -0.509803731897    -0.620294701864     1.007825032230
         H            2.923300863467     1.183194268103    -0.386736701864     1.007825032230
         H           -3.201951136533    -0.608661731897    -0.650286701864     1.007825032230
         H           -2.628694136533    -1.274284731897     0.888768298136     1.007825032230
         H           -3.297569136533     0.384585268103     0.822783298136     1.007825032230

  Basis Set: AUG-CC-PVTZ
    Blend: AUG-CC-PVTZ
  Basis Set: (AUG-CC-PVTZ AUX)
    Blend: AUG-CC-PVTZ-JKFIT
	 Reference Energy          =    -380.7727272235883902 [Eh]
	 Singles Energy            =      -0.0000000000000000 [Eh]
	 Same-Spin Energy          =      -0.3638346727554150 [Eh]
	 Opposite-Spin Energy      =      -1.1687952781551880 [Eh]
	 Correlation Energy        =      -1.5326299509106032 [Eh]
	 Total Energy              =    -382.3053571744989654 [Eh]

	 ================> DF-SCS-MP2 Energies <==================
	-----------------------------------------------------------
	 SCS Same-Spin Scale       =       0.3333333333333333 [-]
	 SCS Opposite-Spin Scale   =       1.2000000000000000 [-]
	 SCS Same-Spin Energy      =      -0.1212782242518050 [Eh]
	 SCS Opposite-Spin Energy  =      -1.4025543337862256 [Eh]
	 SCS Correlation Energy    =      -1.5238325580380305 [Eh]
	 SCS Total Energy          =    -382.2965597816263994 [Eh]
	-----------------------------------------------------------

  Dipole Moment: [D]
     X:    -0.3041      Y:    -1.5509      Z:     1.6795     Total:     2.3061

*** Psi4 exiting successfully. Buy a developer a beer!
