                               Psi4 1.3.2 release

  ==> Input File <==

--------------------------------------------------------------------------
#psi4
#
memory 32 gb

molecule  {
0 1
  O        0.8013680    -0.3194430    -0.6593080
  O       -0.5076550    -0.8220740    -0.2452740
  O       -1.0728670     1.3987690    -0.0973370
  C        1.4917683    -0.2533026     0.3680541
  C        2.9657370     0.2196450     0.0595640
  C       -1.3789950     0.2279050    -0.0301100
  C       -2.7361800    -0.3473490     0.2635940
  H        1.1531750     0.4718980     1.2294250
  H        1.6470430    -1.2298650     1.0038120
  H        3.6380680     0.2976270     0.9176960
  H        3.3895360    -0.4934290    -0.6504970
  H        2.8952950     1.1995690    -0.4169390
  H       -3.2299570    -0.5922870    -0.6804890
  H       -2.6567000    -1.2579100     0.8585660
  H       -3.3255750     0.4009600     0.7925810
units angstrom
no_reorient  #important for SAPT in psi4, default
symmetry c1  #important for SAPT in psi4, default
}

set PROPERTIES_ORIGIN ["COM"]
properties('MP2/aug-cc-pvtz', properties = ['dipole'])
--------------------------------------------------------------------------

    Molecular point group: c1
  Charge       = 0
  Multiplicity = 1
  Basis Set: AUG-CC-PVTZ
    Blend: AUG-CC-PVTZ
  Basis Set: (AUG-CC-PVTZ AUX)
    Blend: AUG-CC-PVTZ-JKFIT

    Orbital Energies [Eh]
    ---------------------

    Doubly Occupied:

       1A    -20.674769     2A    -20.657391     3A    -20.563847
       4A    -11.403204     5A    -11.292415     6A    -11.258594
       7A    -11.226660     8A     -1.555757     9A     -1.413509
      10A     -1.322757    11A     -1.036721    12A     -0.988737
      13A     -0.856477    14A     -0.812937    15A     -0.730533
      16A     -0.712338    17A     -0.693613    18A     -0.645954
      19A     -0.635035    20A     -0.611903    21A     -0.588211
      22A     -0.560648    23A     -0.548757    24A     -0.543745
      25A     -0.494699    26A     -0.477793    27A     -0.454843
      28A     -0.421376

  @DF-RHF Final Energy:  -380.72868527052947

   => Energetics <=

    Nuclear Repulsion Energy =            319.4103750203082654
    One-Electron Energy =               -1153.9116724747409535
    Two-Electron Energy =                 453.7726121839032203
    Total Energy =                       -380.7286852705294677
  Basis Set: (AUG-CC-PVTZ AUX)
    Blend: AUG-CC-PVTZ-RI
    Molecular point group: c1

    Geometry (in Angstrom), charge = 0, multiplicity = 1:

       Center              X                  Y                   Z               Mass
    ------------   -----------------  -----------------  -----------------  -----------------
         O            0.847656354192    -0.329675367308    -0.611115229276    15.994914619570
         O           -0.461366645808    -0.832306367308    -0.197081229276    15.994914619570
         O           -1.026578645808     1.388536632692    -0.049144229276    15.994914619570
         C            1.538056654192    -0.263534967308     0.416246870724    12.000000000000
         C            3.012025354192     0.209412632692     0.107756770724    12.000000000000
         C           -1.332706645808     0.217672632692     0.018082770724    12.000000000000
         C           -2.689891645808    -0.357581367308     0.311786770724    12.000000000000
         H            1.199463354192     0.461665632692     1.277617770724     1.007825032230
         H            1.693331354192    -1.240097367308     1.052004770724     1.007825032230
         H            3.684356354192     0.287394632692     0.965888770724     1.007825032230
         H            3.435824354192    -0.503661367308    -0.602304229276     1.007825032230
         H            2.941583354192     1.189336632692    -0.368746229276     1.007825032230
         H           -3.183668645808    -0.602519367308    -0.632296229276     1.007825032230
         H           -2.610411645808    -1.268142367308     0.906758770724     1.007825032230
         H           -3.279286645808     0.390727632692     0.840773770724     1.007825032230

  Basis Set: AUG-CC-PVTZ
    Blend: AUG-CC-PVTZ
  Basis Set: (AUG-CC-PVTZ AUX)
    Blend: AUG-CC-PVTZ-JKFIT
	 Reference Energy          =    -380.7286852705294677 [Eh]
	 Singles Energy            =      -0.0000000000000000 [Eh]
	 Same-Spin Energy          =      -0.3663280681408517 [Eh]
	 Opposite-Spin Energy      =      -1.1724204953203854 [Eh]
	 Correlation Energy        =      -1.5387485634612372 [Eh]
	 Total Energy              =    -382.2674338339907081 [Eh]

	 ================> DF-SCS-MP2 Energies <==================
	-----------------------------------------------------------
	 SCS Same-Spin Scale       =       0.3333333333333333 [-]
	 SCS Opposite-Spin Scale   =       1.2000000000000000 [-]
	 SCS Same-Spin Energy      =      -0.1221093560469506 [Eh]
	 SCS Opposite-Spin Energy  =      -1.4069045943844625 [Eh]
	 SCS Correlation Energy    =      -1.5290139504314131 [Eh]
	 SCS Total Energy          =    -382.2576992209608875 [Eh]
	-----------------------------------------------------------

  Dipole Moment: [D]
     X:    -0.7540      Y:    -1.4555      Z:     1.1620     Total:     2.0093

*** Psi4 exiting successfully. Buy a developer a beer!
