                               Psi4 1.3.2 release

  ==> Input File <==

--------------------------------------------------------------------------
#psi4
#
memory 32 gb

molecule  {
0 1
  O        0.8329439    -0.4163440    -0.6645364
  O       -0.5076550    -0.8220740    -0.2452740
  O       -1.0728670     1.3987690    -0.0973370
  C        1.6031630    -0.2426310     0.5338170
  C        2.9657370     0.2196450     0.0595640
  C       -1.3789950     0.2279050    -0.0301100
  C       -2.7361800    -0.3473490     0.2635940
  H        1.1531750     0.4718980     1.2294250
  H        1.6470430    -1.2298650     1.0038120
  H        3.6380680     0.2976270     0.9176960
  H        3.3895360    -0.4934290    -0.6504970
  H        2.8952950     1.1995690    -0.4169390
  H       -3.2299570    -0.5922870    -0.6804890
  H       -2.6567000    -1.2579100     0.8585660
  H       -3.3255750     0.4009600     0.7925810
units angstrom
no_reorient  #important for SAPT in psi4, default
symmetry c1  #important for SAPT in psi4, default
}

set PROPERTIES_ORIGIN ["COM"]
properties('MP2/aug-cc-pvtz', properties = ['dipole'])
--------------------------------------------------------------------------

    Molecular point group: c1
  Charge       = 0
  Multiplicity = 1
  Basis Set: AUG-CC-PVTZ
    Blend: AUG-CC-PVTZ
  Basis Set: (AUG-CC-PVTZ AUX)
    Blend: AUG-CC-PVTZ-JKFIT

    Orbital Energies [Eh]
    ---------------------

    Doubly Occupied:

       1A    -20.654497     2A    -20.642972     3A    -20.556127
       4A    -11.394672     5A    -11.289977     6A    -11.252951
       7A    -11.227429     8A     -1.505486     9A     -1.393187
      10A     -1.269826    11A     -1.035247    12A     -1.004880
      13A     -0.855142    14A     -0.796332    15A     -0.707135
      16A     -0.694159    17A     -0.674506    18A     -0.645812
      19A     -0.614780    20A     -0.597979    21A     -0.584640
      22A     -0.548701    23A     -0.538527    24A     -0.534624
      25A     -0.511308    26A     -0.477569    27A     -0.472002
      28A     -0.451489

  @DF-RHF Final Energy:  -380.76814326176657

   => Energetics <=

    Nuclear Repulsion Energy =            315.3667587387076878
    One-Electron Energy =               -1146.4058911034373978
    Two-Electron Energy =                 450.2709891029631990
    Total Energy =                       -380.7681432617665678
  Basis Set: (AUG-CC-PVTZ AUX)
    Blend: AUG-CC-PVTZ-RI
    Molecular point group: c1

    Geometry (in Angstrom), charge = 0, multiplicity = 1:

       Center              X                  Y                   Z               Mass
    ------------   -----------------  -----------------  -----------------  -----------------
         O            0.861530791073    -0.412910818863    -0.634657667031    15.994914619570
         O           -0.479068108927    -0.818640818863    -0.215395267031    15.994914619570
         O           -1.044280108927     1.402202181137    -0.067458267031    15.994914619570
         C            1.631749891073    -0.239197818863     0.563695732969    12.000000000000
         C            2.994323891073     0.223078181137     0.089442732969    12.000000000000
         C           -1.350408108927     0.231338181137    -0.000231267031    12.000000000000
         C           -2.707593108927    -0.343915818863     0.293472732969    12.000000000000
         H            1.181761891073     0.475331181137     1.259303732969     1.007825032230
         H            1.675629891073    -1.226431818863     1.033690732969     1.007825032230
         H            3.666654891073     0.301060181137     0.947574732969     1.007825032230
         H            3.418122891073    -0.489995818863    -0.620618267031     1.007825032230
         H            2.923881891073     1.203002181137    -0.387060267031     1.007825032230
         H           -3.201370108927    -0.588853818863    -0.650610267031     1.007825032230
         H           -2.628113108927    -1.254476818863     0.888444732969     1.007825032230
         H           -3.296988108927     0.404393181137     0.822459732969     1.007825032230

  Basis Set: AUG-CC-PVTZ
    Blend: AUG-CC-PVTZ
  Basis Set: (AUG-CC-PVTZ AUX)
    Blend: AUG-CC-PVTZ-JKFIT
	 Reference Energy          =    -380.7681432617665678 [Eh]
	 Singles Energy            =      -0.0000000000000000 [Eh]
	 Same-Spin Energy          =      -0.3645158879718462 [Eh]
	 Opposite-Spin Energy      =      -1.1716426821592441 [Eh]
	 Correlation Energy        =      -1.5361585701310903 [Eh]
	 Total Energy              =    -382.3043018318976465 [Eh]

	 ================> DF-SCS-MP2 Energies <==================
	-----------------------------------------------------------
	 SCS Same-Spin Scale       =       0.3333333333333333 [-]
	 SCS Opposite-Spin Scale   =       1.2000000000000000 [-]
	 SCS Same-Spin Energy      =      -0.1215052959906154 [Eh]
	 SCS Opposite-Spin Energy  =      -1.4059712185910929 [Eh]
	 SCS Correlation Energy    =      -1.5274765145817082 [Eh]
	 SCS Total Energy          =    -382.2956197763483033 [Eh]
	-----------------------------------------------------------

  Dipole Moment: [D]
     X:    -0.2909      Y:    -1.3927      Z:     1.6900     Total:     2.2091

*** Psi4 exiting successfully. Buy a developer a beer!
