                               Psi4 1.3.2 release

  ==> Input File <==

--------------------------------------------------------------------------
#psi4
#
memory 32 gb

molecule  {
0 1
  O        0.8013680    -0.3194430    -0.6593080
  O       -0.5076550    -0.8220740    -0.2452740
  O       -1.0728670     1.3987690    -0.0973370
  C        1.6031630    -0.2426310     0.5338170
  C        2.9657370     0.2196450     0.0595640
  C       -1.3647461     0.2375593     0.0733792
  C       -2.7361800    -0.3473490     0.2635940
  H        1.1531750     0.4718980     1.2294250
  H        1.6470430    -1.2298650     1.0038120
  H        3.6380680     0.2976270     0.9176960
  H        3.3895360    -0.4934290    -0.6504970
  H        2.8952950     1.1995690    -0.4169390
  H       -3.2299570    -0.5922870    -0.6804890
  H       -2.6567000    -1.2579100     0.8585660
  H       -3.3255750     0.4009600     0.7925810
units angstrom
no_reorient  #important for SAPT in psi4, default
symmetry c1  #important for SAPT in psi4, default
}

set PROPERTIES_ORIGIN ["COM"]
properties('MP2/aug-cc-pvtz', properties = ['dipole'])
--------------------------------------------------------------------------

    Molecular point group: c1
  Charge       = 0
  Multiplicity = 1
  Basis Set: AUG-CC-PVTZ
    Blend: AUG-CC-PVTZ
  Basis Set: (AUG-CC-PVTZ AUX)
    Blend: AUG-CC-PVTZ-JKFIT

    Orbital Energies [Eh]
    ---------------------

    Doubly Occupied:

       1A    -20.653408     2A    -20.638209     3A    -20.559984
       4A    -11.394830     5A    -11.289638     6A    -11.253379
       7A    -11.226778     8A     -1.502225     9A     -1.394943
      10A     -1.262100    11A     -1.034609    12A     -1.004180
      13A     -0.853697    14A     -0.793455    15A     -0.707066
      16A     -0.693031    17A     -0.671640    18A     -0.644071
      19A     -0.618319    20A     -0.596924    21A     -0.582120
      22A     -0.548700    23A     -0.534521    24A     -0.532507
      25A     -0.511419    26A     -0.478957    27A     -0.470918
      28A     -0.452284

  @DF-RHF Final Energy:  -380.76235465824806

   => Energetics <=

    Nuclear Repulsion Energy =            315.8706256761387294
    One-Electron Energy =               -1147.4581373891960538
    Two-Electron Energy =                 450.8251570548092673
    Total Energy =                       -380.7623546582480571
  Basis Set: (AUG-CC-PVTZ AUX)
    Blend: AUG-CC-PVTZ-RI
    Molecular point group: c1

    Geometry (in Angstrom), charge = 0, multiplicity = 1:

       Center              X                  Y                   Z               Mass
    ------------   -----------------  -----------------  -----------------  -----------------
         O            0.833165612378    -0.332019596294    -0.642168642772    15.994914619570
         O           -0.475857387622    -0.834650596294    -0.228134642772    15.994914619570
         O           -1.041069387622     1.386192403706    -0.080197642772    15.994914619570
         C            1.634960612378    -0.255207596294     0.550956357228    12.000000000000
         C            2.997534612378     0.207068403706     0.076703357228    12.000000000000
         C           -1.332948487622     0.224982703706     0.090518557228    12.000000000000
         C           -2.704382387622    -0.359925596294     0.280733357228    12.000000000000
         H            1.184972612378     0.459321403706     1.246564357228     1.007825032230
         H            1.678840612378    -1.242441596294     1.020951357228     1.007825032230
         H            3.669865612378     0.285050403706     0.934835357228     1.007825032230
         H            3.421333612378    -0.506005596294    -0.633357642772     1.007825032230
         H            2.927092612378     1.186992403706    -0.399799642772     1.007825032230
         H           -3.198159387622    -0.604863596294    -0.663349642772     1.007825032230
         H           -2.624902387622    -1.270486596294     0.875705357228     1.007825032230
         H           -3.293777387622     0.388383403706     0.809720357228     1.007825032230

  Basis Set: AUG-CC-PVTZ
    Blend: AUG-CC-PVTZ
  Basis Set: (AUG-CC-PVTZ AUX)
    Blend: AUG-CC-PVTZ-JKFIT
	 Reference Energy          =    -380.7623546582480571 [Eh]
	 Singles Energy            =      -0.0000000000000000 [Eh]
	 Same-Spin Energy          =      -0.3652282520296783 [Eh]
	 Opposite-Spin Energy      =      -1.1735414022620512 [Eh]
	 Correlation Energy        =      -1.5387696542917295 [Eh]
	 Total Energy              =    -382.3011243125397982 [Eh]

	 ================> DF-SCS-MP2 Energies <==================
	-----------------------------------------------------------
	 SCS Same-Spin Scale       =       0.3333333333333333 [-]
	 SCS Opposite-Spin Scale   =       1.2000000000000000 [-]
	 SCS Same-Spin Energy      =      -0.1217427506765594 [Eh]
	 SCS Opposite-Spin Energy  =      -1.4082496827144613 [Eh]
	 SCS Correlation Energy    =      -1.5299924333910206 [Eh]
	 SCS Total Energy          =    -382.2923470916391011 [Eh]
	-----------------------------------------------------------

  Dipole Moment: [D]
     X:    -0.2902      Y:    -1.4084      Z:     1.7846     Total:     2.2919

*** Psi4 exiting successfully. Buy a developer a beer!
