                               Psi4 1.3.2 release

  ==> Input File <==

--------------------------------------------------------------------------
#psi4
#
memory 32 gb

molecule  {
0 1
  O        0.8411567    -0.3042454    -0.6859669
  O       -0.5076550    -0.8220740    -0.2452740
  O       -1.0728670     1.3987690    -0.0973370
  C        1.6031630    -0.2426310     0.5338170
  C        2.9657370     0.2196450     0.0595640
  C       -1.3789950     0.2279050    -0.0301100
  C       -2.7361800    -0.3473490     0.2635940
  H        1.1531750     0.4718980     1.2294250
  H        1.6470430    -1.2298650     1.0038120
  H        3.6380680     0.2976270     0.9176960
  H        3.3895360    -0.4934290    -0.6504970
  H        2.8952950     1.1995690    -0.4169390
  H       -3.2299570    -0.5922870    -0.6804890
  H       -2.6567000    -1.2579100     0.8585660
  H       -3.3255750     0.4009600     0.7925810
units angstrom
no_reorient  #important for SAPT in psi4, default
symmetry c1  #important for SAPT in psi4, default
}

set PROPERTIES_ORIGIN ["COM"]
properties('MP2/aug-cc-pvtz', properties = ['dipole'])
--------------------------------------------------------------------------

    Molecular point group: c1
  Charge       = 0
  Multiplicity = 1
  Basis Set: AUG-CC-PVTZ
    Blend: AUG-CC-PVTZ
  Basis Set: (AUG-CC-PVTZ AUX)
    Blend: AUG-CC-PVTZ-JKFIT

    Orbital Energies [Eh]
    ---------------------

    Doubly Occupied:

       1A    -20.654778     2A    -20.647924     3A    -20.554410
       4A    -11.392900     5A    -11.291424     6A    -11.251860
       7A    -11.227091     8A     -1.492095     9A     -1.388711
      10A     -1.274620    11A     -1.032627    12A     -1.005242
      13A     -0.852562    14A     -0.792426    15A     -0.704541
      16A     -0.688729    17A     -0.670853    18A     -0.645560
      19A     -0.617230    20A     -0.595816    21A     -0.582425
      22A     -0.547183    23A     -0.536707    24A     -0.536025
      25A     -0.506527    26A     -0.484325    27A     -0.469714
      28A     -0.453660

  @DF-RHF Final Energy:  -380.76257679829780

   => Energetics <=

    Nuclear Repulsion Energy =            315.0502108564335231
    One-Electron Energy =               -1145.8296457993910735
    Two-Electron Energy =                 450.0168581446597500
    Total Energy =                       -380.7625767982978005
  Basis Set: (AUG-CC-PVTZ AUX)
    Blend: AUG-CC-PVTZ-RI
    Molecular point group: c1

    Geometry (in Angstrom), charge = 0, multiplicity = 1:

       Center              X                  Y                   Z               Mass
    ------------   -----------------  -----------------  -----------------  -----------------
         O            0.868481059714    -0.318044831105    -0.652793714677    15.994914619570
         O           -0.480330640286    -0.835873431105    -0.212100814677    15.994914619570
         O           -1.045542640286     1.384969568895    -0.064163814677    15.994914619570
         C            1.630487359714    -0.256430431105     0.566990185323    12.000000000000
         C            2.993061359714     0.205845568895     0.092737185323    12.000000000000
         C           -1.351670640286     0.214105568895     0.003063185323    12.000000000000
         C           -2.708855640286    -0.361148431105     0.296767185323    12.000000000000
         H            1.180499359714     0.458098568895     1.262598185323     1.007825032230
         H            1.674367359714    -1.243664431105     1.036985185323     1.007825032230
         H            3.665392359714     0.283827568895     0.950869185323     1.007825032230
         H            3.416860359714    -0.507228431105    -0.617323814677     1.007825032230
         H            2.922619359714     1.185769568895    -0.383765814677     1.007825032230
         H           -3.202632640286    -0.606086431105    -0.647315814677     1.007825032230
         H           -2.629375640286    -1.271709431105     0.891739185323     1.007825032230
         H           -3.298250640286     0.387160568895     0.825754185323     1.007825032230

  Basis Set: AUG-CC-PVTZ
    Blend: AUG-CC-PVTZ
  Basis Set: (AUG-CC-PVTZ AUX)
    Blend: AUG-CC-PVTZ-JKFIT
	 Reference Energy          =    -380.7625767982978005 [Eh]
	 Singles Energy            =      -0.0000000000000000 [Eh]
	 Same-Spin Energy          =      -0.3656404680162307 [Eh]
	 Opposite-Spin Energy      =      -1.1755331570576293 [Eh]
	 Correlation Energy        =      -1.5411736250738599 [Eh]
	 Total Energy              =    -382.3037504233716390 [Eh]

	 ================> DF-SCS-MP2 Energies <==================
	-----------------------------------------------------------
	 SCS Same-Spin Scale       =       0.3333333333333333 [-]
	 SCS Opposite-Spin Scale   =       1.2000000000000000 [-]
	 SCS Same-Spin Energy      =      -0.1218801560054102 [Eh]
	 SCS Opposite-Spin Energy  =      -1.4106397884691551 [Eh]
	 SCS Correlation Energy    =      -1.5325199444745654 [Eh]
	 SCS Total Energy          =    -382.2950967427723867 [Eh]
	-----------------------------------------------------------

  Dipole Moment: [D]
     X:    -0.2991      Y:    -1.5126      Z:     1.7085     Total:     2.3014

*** Psi4 exiting successfully. Buy a developer a beer!
