                               Psi4 1.3.2 release

  ==> Input File <==

--------------------------------------------------------------------------
#psi4
#
memory 32 gb

molecule  {
0 1
  O        0.8013680    -0.3194430    -0.6593080
  O       -0.5076550    -0.8220740    -0.2452740
  O       -1.0728670     1.3987690    -0.0973370
  C        1.6031630    -0.2426310     0.5338170
  C        2.9657370     0.2196450     0.0595640
  C       -1.5051575     0.3799328     0.0010439
  C       -2.7361800    -0.3473490     0.2635940
  H        1.1531750     0.4718980     1.2294250
  H        1.6470430    -1.2298650     1.0038120
  H        3.6380680     0.2976270     0.9176960
  H        3.3895360    -0.4934290    -0.6504970
  H        2.8952950     1.1995690    -0.4169390
  H       -3.2299570    -0.5922870    -0.6804890
  H       -2.6567000    -1.2579100     0.8585660
  H       -3.3255750     0.4009600     0.7925810
units angstrom
no_reorient  #important for SAPT in psi4, default
symmetry c1  #important for SAPT in psi4, default
}

set PROPERTIES_ORIGIN ["COM"]
properties('MP2/aug-cc-pvtz', properties = ['dipole'])
--------------------------------------------------------------------------

    Molecular point group: c1
  Charge       = 0
  Multiplicity = 1
  Basis Set: AUG-CC-PVTZ
    Blend: AUG-CC-PVTZ
  Basis Set: (AUG-CC-PVTZ AUX)
    Blend: AUG-CC-PVTZ-JKFIT

    Orbital Energies [Eh]
    ---------------------

    Doubly Occupied:

       1A    -20.604628     2A    -20.602794     3A    -20.596123
       4A    -11.398432     5A    -11.272077     6A    -11.266980
       7A    -11.214319     8A     -1.510065     9A     -1.425981
      10A     -1.203404    11A     -1.054457    12A     -0.993524
      13A     -0.833702    14A     -0.778747    15A     -0.719435
      16A     -0.696503    17A     -0.670217    18A     -0.651247
      19A     -0.619434    20A     -0.600148    21A     -0.582561
      22A     -0.565911    23A     -0.530227    24A     -0.527317
      25A     -0.490432    26A     -0.473638    27A     -0.458792
      28A     -0.419375

  @DF-RHF Final Energy:  -380.73418754661520

   => Energetics <=

    Nuclear Repulsion Energy =            314.9112882756372755
    One-Electron Energy =               -1145.7700056735664020
    Two-Electron Energy =                 450.1245298513139232
    Total Energy =                       -380.7341875466152032
  Basis Set: (AUG-CC-PVTZ AUX)
    Blend: AUG-CC-PVTZ-RI
    Molecular point group: c1

    Geometry (in Angstrom), charge = 0, multiplicity = 1:

       Center              X                  Y                   Z               Mass
    ------------   -----------------  -----------------  -----------------  -----------------
         O            0.849359555764    -0.348439832817    -0.633826059813    15.994914619570
         O           -0.459663444236    -0.851070832817    -0.219792059813    15.994914619570
         O           -1.024875444236     1.369772167183    -0.071855059813    15.994914619570
         C            1.651154555764    -0.271627832817     0.559298940187    12.000000000000
         C            3.013728555764     0.190648167183     0.085045940187    12.000000000000
         C           -1.457165944236     0.350935967183     0.026525840187    12.000000000000
         C           -2.688188444236    -0.376345832817     0.289075940187    12.000000000000
         H            1.201166555764     0.442901167183     1.254906940187     1.007825032230
         H            1.695034555764    -1.258861832817     1.029293940187     1.007825032230
         H            3.686059555764     0.268630167183     0.943177940187     1.007825032230
         H            3.437527555764    -0.522425832817    -0.625015059813     1.007825032230
         H            2.943286555764     1.170572167183    -0.391457059813     1.007825032230
         H           -3.181965444236    -0.621283832817    -0.655007059813     1.007825032230
         H           -2.608708444236    -1.286906832817     0.884047940187     1.007825032230
         H           -3.277583444236     0.371963167183     0.818062940187     1.007825032230

  Basis Set: AUG-CC-PVTZ
    Blend: AUG-CC-PVTZ
  Basis Set: (AUG-CC-PVTZ AUX)
    Blend: AUG-CC-PVTZ-JKFIT
	 Reference Energy          =    -380.7341875466152032 [Eh]
	 Singles Energy            =      -0.0000000000000000 [Eh]
	 Same-Spin Energy          =      -0.3657095840175298 [Eh]
	 Opposite-Spin Energy      =      -1.1741128976413235 [Eh]
	 Correlation Energy        =      -1.5398224816588533 [Eh]
	 Total Energy              =    -382.2740100282740627 [Eh]

	 ================> DF-SCS-MP2 Energies <==================
	-----------------------------------------------------------
	 SCS Same-Spin Scale       =       0.3333333333333333 [-]
	 SCS Opposite-Spin Scale   =       1.2000000000000000 [-]
	 SCS Same-Spin Energy      =      -0.1219031946725099 [Eh]
	 SCS Opposite-Spin Energy  =      -1.4089354771695881 [Eh]
	 SCS Correlation Energy    =      -1.5308386718420981 [Eh]
	 SCS Total Energy          =    -382.2650262184573080 [Eh]
	-----------------------------------------------------------

  Dipole Moment: [D]
     X:    -1.7104      Y:    -0.3043      Z:     1.8575     Total:     2.5433

*** Psi4 exiting successfully. Buy a developer a beer!
