                               Psi4 1.3.2 release

  ==> Input File <==

--------------------------------------------------------------------------
#psi4
#
memory 32 gb

molecule  {
0 1
  O        0.8095100    -0.2704406    -0.6668762
  O       -0.5076550    -0.8220740    -0.2452740
  O       -1.0728670     1.3987690    -0.0973370
  C        1.6031630    -0.2426310     0.5338170
  C        2.9657370     0.2196450     0.0595640
  C       -1.3789950     0.2279050    -0.0301100
  C       -2.7361800    -0.3473490     0.2635940
  H        1.1531750     0.4718980     1.2294250
  H        1.6470430    -1.2298650     1.0038120
  H        3.6380680     0.2976270     0.9176960
  H        3.3895360    -0.4934290    -0.6504970
  H        2.8952950     1.1995690    -0.4169390
  H       -3.2299570    -0.5922870    -0.6804890
  H       -2.6567000    -1.2579100     0.8585660
  H       -3.3255750     0.4009600     0.7925810
units angstrom
no_reorient  #important for SAPT in psi4, default
symmetry c1  #important for SAPT in psi4, default
}

set PROPERTIES_ORIGIN ["COM"]
properties('MP2/aug-cc-pvtz', properties = ['dipole'])
--------------------------------------------------------------------------

    Molecular point group: c1
  Charge       = 0
  Multiplicity = 1
  Basis Set: AUG-CC-PVTZ
    Blend: AUG-CC-PVTZ
  Basis Set: (AUG-CC-PVTZ AUX)
    Blend: AUG-CC-PVTZ-JKFIT

    Orbital Energies [Eh]
    ---------------------

    Doubly Occupied:

       1A    -20.656646     2A    -20.643457     3A    -20.554399
       4A    -11.392526     5A    -11.290666     6A    -11.251523
       7A    -11.227110     8A     -1.499711     9A     -1.388867
      10A     -1.271429    11A     -1.033237    12A     -1.004531
      13A     -0.852741    14A     -0.794584    15A     -0.705989
      16A     -0.690811    17A     -0.673427    18A     -0.644184
      19A     -0.616361    20A     -0.597269    21A     -0.582169
      22A     -0.547354    23A     -0.535316    24A     -0.534072
      25A     -0.509770    26A     -0.484540    27A     -0.466925
      28A     -0.453670

  @DF-RHF Final Energy:  -380.76533085587300

   => Energetics <=

    Nuclear Repulsion Energy =            315.8124815223756627
    One-Electron Energy =               -1147.3490623010666241
    Two-Electron Energy =                 450.7712499228179013
    Total Energy =                       -380.7653308558730032
  Basis Set: (AUG-CC-PVTZ AUX)
    Blend: AUG-CC-PVTZ-RI
    Molecular point group: c1

    Geometry (in Angstrom), charge = 0, multiplicity = 1:

       Center              X                  Y                   Z               Mass
    ------------   -----------------  -----------------  -----------------  -----------------
         O            0.841699320648    -0.289436750871    -0.636637775954    15.994914619570
         O           -0.475465679352    -0.841070150871    -0.215035575954    15.994914619570
         O           -1.040677679352     1.379772849129    -0.067098575954    15.994914619570
         C            1.635352320648    -0.261627150871     0.564055424046    12.000000000000
         C            2.997926320648     0.200648849129     0.089802424046    12.000000000000
         C           -1.346805679352     0.208908849129     0.000128424046    12.000000000000
         C           -2.703990679352    -0.366345150871     0.293832424046    12.000000000000
         H            1.185364320648     0.452901849129     1.259663424046     1.007825032230
         H            1.679232320648    -1.248861150871     1.034050424046     1.007825032230
         H            3.670257320648     0.278630849129     0.947934424046     1.007825032230
         H            3.421725320648    -0.512425150871    -0.620258575954     1.007825032230
         H            2.927484320648     1.180572849129    -0.386700575954     1.007825032230
         H           -3.197767679352    -0.611283150871    -0.650250575954     1.007825032230
         H           -2.624510679352    -1.276906150871     0.888804424046     1.007825032230
         H           -3.293385679352     0.381963849129     0.822819424046     1.007825032230

  Basis Set: AUG-CC-PVTZ
    Blend: AUG-CC-PVTZ
  Basis Set: (AUG-CC-PVTZ AUX)
    Blend: AUG-CC-PVTZ-JKFIT
	 Reference Energy          =    -380.7653308558730032 [Eh]
	 Singles Energy            =      -0.0000000000000000 [Eh]
	 Same-Spin Energy          =      -0.3653229626777796 [Eh]
	 Opposite-Spin Energy      =      -1.1741455683931672 [Eh]
	 Correlation Energy        =      -1.5394685310709468 [Eh]
	 Total Energy              =    -382.3047993869439551 [Eh]

	 ================> DF-SCS-MP2 Energies <==================
	-----------------------------------------------------------
	 SCS Same-Spin Scale       =       0.3333333333333333 [-]
	 SCS Opposite-Spin Scale   =       1.2000000000000000 [-]
	 SCS Same-Spin Energy      =      -0.1217743208925932 [Eh]
	 SCS Opposite-Spin Energy  =      -1.4089746820718005 [Eh]
	 SCS Correlation Energy    =      -1.5307490029643938 [Eh]
	 SCS Total Energy          =    -382.2960798588374018 [Eh]
	-----------------------------------------------------------

  Dipole Moment: [D]
     X:    -0.2486      Y:    -1.5574      Z:     1.6833     Total:     2.3067

*** Psi4 exiting successfully. Buy a developer a beer!
