                               Psi4 1.3.2 release

  ==> Input File <==

--------------------------------------------------------------------------
#psi4
#
memory 32 gb

molecule  {
0 1
  O        0.8013680    -0.3194430    -0.6593080
  O       -0.5076550    -0.8220740    -0.2452740
  O       -1.0728670     1.3987690    -0.0973370
  C        1.6031630    -0.2426310     0.5338170
  C        2.9657370     0.2196450     0.0595640
  C       -1.3537387     0.3245040    -0.0356564
  C       -2.7361800    -0.3473490     0.2635940
  H        1.1531750     0.4718980     1.2294250
  H        1.6470430    -1.2298650     1.0038120
  H        3.6380680     0.2976270     0.9176960
  H        3.3895360    -0.4934290    -0.6504970
  H        2.8952950     1.1995690    -0.4169390
  H       -3.2299570    -0.5922870    -0.6804890
  H       -2.6567000    -1.2579100     0.8585660
  H       -3.3255750     0.4009600     0.7925810
units angstrom
no_reorient  #important for SAPT in psi4, default
symmetry c1  #important for SAPT in psi4, default
}

set PROPERTIES_ORIGIN ["COM"]
properties('MP2/aug-cc-pvtz', properties = ['dipole'])
--------------------------------------------------------------------------

    Molecular point group: c1
  Charge       = 0
  Multiplicity = 1
  Basis Set: AUG-CC-PVTZ
    Blend: AUG-CC-PVTZ
  Basis Set: (AUG-CC-PVTZ AUX)
    Blend: AUG-CC-PVTZ-JKFIT

    Orbital Energies [Eh]
    ---------------------

    Doubly Occupied:

       1A    -20.642391     2A    -20.627172     3A    -20.575378
       4A    -11.386035     5A    -11.285691     6A    -11.249791
       7A    -11.224092     8A     -1.511477     9A     -1.451528
      10A     -1.247924    11A     -1.022353    12A     -0.992180
      13A     -0.848467    14A     -0.786482    15A     -0.720619
      16A     -0.697335    17A     -0.673802    18A     -0.649096
      19A     -0.622776    20A     -0.604534    21A     -0.575354
      22A     -0.555597    23A     -0.540384    24A     -0.533430
      25A     -0.508833    26A     -0.487370    27A     -0.471448
      28A     -0.441103

  @DF-RHF Final Energy:  -380.75675502521273

   => Energetics <=

    Nuclear Repulsion Energy =            316.6081791775719694
    One-Electron Energy =               -1148.8645866418244168
    Two-Electron Energy =                 451.4996524390397212
    Total Energy =                       -380.7567550252127262
  Basis Set: (AUG-CC-PVTZ AUX)
    Blend: AUG-CC-PVTZ-RI
    Molecular point group: c1

    Geometry (in Angstrom), charge = 0, multiplicity = 1:

       Center              X                  Y                   Z               Mass
    ------------   -----------------  -----------------  -----------------  -----------------
         O            0.831896105683    -0.342047112218    -0.629593336683    15.994914619570
         O           -0.477126894317    -0.844678112218    -0.215559336683    15.994914619570
         O           -1.042338894317     1.376164887782    -0.067622336683    15.994914619570
         C            1.633691105683    -0.265235112218     0.563531663317    12.000000000000
         C            2.996265105683     0.197040887782     0.089278663317    12.000000000000
         C           -1.323210594317     0.301899887782    -0.005941736683    12.000000000000
         C           -2.705651894317    -0.369953112218     0.293308663317    12.000000000000
         H            1.183703105683     0.449293887782     1.259139663317     1.007825032230
         H            1.677571105683    -1.252469112218     1.033526663317     1.007825032230
         H            3.668596105683     0.275022887782     0.947410663317     1.007825032230
         H            3.420064105683    -0.516033112218    -0.620782336683     1.007825032230
         H            2.925823105683     1.176964887782    -0.387224336683     1.007825032230
         H           -3.199428894317    -0.614891112218    -0.650774336683     1.007825032230
         H           -2.626171894317    -1.280514112218     0.888280663317     1.007825032230
         H           -3.295046894317     0.378355887782     0.822295663317     1.007825032230

  Basis Set: AUG-CC-PVTZ
    Blend: AUG-CC-PVTZ
  Basis Set: (AUG-CC-PVTZ AUX)
    Blend: AUG-CC-PVTZ-JKFIT
	 Reference Energy          =    -380.7567550252127262 [Eh]
	 Singles Energy            =      -0.0000000000000000 [Eh]
	 Same-Spin Energy          =      -0.3632184250091715 [Eh]
	 Opposite-Spin Energy      =      -1.1695404180741260 [Eh]
	 Correlation Energy        =      -1.5327588430832975 [Eh]
	 Total Energy              =    -382.2895138682960123 [Eh]

	 ================> DF-SCS-MP2 Energies <==================
	-----------------------------------------------------------
	 SCS Same-Spin Scale       =       0.3333333333333333 [-]
	 SCS Opposite-Spin Scale   =       1.2000000000000000 [-]
	 SCS Same-Spin Energy      =      -0.1210728083363905 [Eh]
	 SCS Opposite-Spin Energy  =      -1.4034485016889511 [Eh]
	 SCS Correlation Energy    =      -1.5245213100253416 [Eh]
	 SCS Total Energy          =    -382.2812763352380898 [Eh]
	-----------------------------------------------------------

  Dipole Moment: [D]
     X:    -0.3463      Y:    -0.7921      Z:     1.6594     Total:     1.8711

*** Psi4 exiting successfully. Buy a developer a beer!
