                               Psi4 1.3.2 release

  ==> Input File <==

--------------------------------------------------------------------------
#psi4
#
memory 32 gb

molecule  {
0 1
  O        0.8013680    -0.3194430    -0.6593080
  O       -0.5076550    -0.8220740    -0.2452740
  O       -1.0331100     1.3871175    -0.1059139
  C        1.6031630    -0.2426310     0.5338170
  C        2.9657370     0.2196450     0.0595640
  C       -1.3789950     0.2279050    -0.0301100
  C       -2.7361800    -0.3473490     0.2635940
  H        1.1531750     0.4718980     1.2294250
  H        1.6470430    -1.2298650     1.0038120
  H        3.6380680     0.2976270     0.9176960
  H        3.3895360    -0.4934290    -0.6504970
  H        2.8952950     1.1995690    -0.4169390
  H       -3.2299570    -0.5922870    -0.6804890
  H       -2.6567000    -1.2579100     0.8585660
  H       -3.3255750     0.4009600     0.7925810
units angstrom
no_reorient  #important for SAPT in psi4, default
symmetry c1  #important for SAPT in psi4, default
}

set PROPERTIES_ORIGIN ["COM"]
properties('MP2/aug-cc-pvtz', properties = ['dipole'])
--------------------------------------------------------------------------

    Molecular point group: c1
  Charge       = 0
  Multiplicity = 1
  Basis Set: AUG-CC-PVTZ
    Blend: AUG-CC-PVTZ
  Basis Set: (AUG-CC-PVTZ AUX)
    Blend: AUG-CC-PVTZ-JKFIT

    Orbital Energies [Eh]
    ---------------------

    Doubly Occupied:

       1A    -20.653950     2A    -20.638831     3A    -20.554439
       4A    -11.392955     5A    -11.288991     6A    -11.254226
       7A    -11.226473     8A     -1.506635     9A     -1.389555
      10A     -1.266020    11A     -1.035225    12A     -1.004525
      13A     -0.852902    14A     -0.795732    15A     -0.707551
      16A     -0.692336    17A     -0.674703    18A     -0.643525
      19A     -0.615194    20A     -0.598441    21A     -0.583979
      22A     -0.547589    23A     -0.534712    24A     -0.532379
      25A     -0.511360    26A     -0.480010    27A     -0.466485
      28A     -0.453046

  @DF-RHF Final Energy:  -380.76871898955181

   => Energetics <=

    Nuclear Repulsion Energy =            316.4553466518956384
    One-Electron Energy =               -1148.6445902929906424
    Two-Electron Energy =                 451.4205246515431895
    Total Energy =                       -380.7687189895518145
  Basis Set: (AUG-CC-PVTZ AUX)
    Blend: AUG-CC-PVTZ-RI
    Molecular point group: c1

    Geometry (in Angstrom), charge = 0, multiplicity = 1:

       Center              X                  Y                   Z               Mass
    ------------   -----------------  -----------------  -----------------  -----------------
         O            0.828697232868    -0.329114992142    -0.628914511252    15.994914619570
         O           -0.480325767132    -0.831745992142    -0.214880511252    15.994914619570
         O           -1.005780767132     1.377445507858    -0.075520411252    15.994914619570
         C            1.630492232868    -0.252302992142     0.564210488748    12.000000000000
         C            2.993066232868     0.209973007858     0.089957488748    12.000000000000
         C           -1.351665767132     0.218233007858     0.000283488748    12.000000000000
         C           -2.708850767132    -0.357020992142     0.293987488748    12.000000000000
         H            1.180504232868     0.462226007858     1.259818488748     1.007825032230
         H            1.674372232868    -1.239536992142     1.034205488748     1.007825032230
         H            3.665397232868     0.287955007858     0.948089488748     1.007825032230
         H            3.416865232868    -0.503100992142    -0.620103511252     1.007825032230
         H            2.922624232868     1.189897007858    -0.386545511252     1.007825032230
         H           -3.202627767132    -0.601958992142    -0.650095511252     1.007825032230
         H           -2.629370767132    -1.267581992142     0.888959488748     1.007825032230
         H           -3.298245767132     0.391288007858     0.822974488748     1.007825032230

  Basis Set: AUG-CC-PVTZ
    Blend: AUG-CC-PVTZ
  Basis Set: (AUG-CC-PVTZ AUX)
    Blend: AUG-CC-PVTZ-JKFIT
	 Reference Energy          =    -380.7687189895518145 [Eh]
	 Singles Energy            =      -0.0000000000000000 [Eh]
	 Same-Spin Energy          =      -0.3647714428802311 [Eh]
	 Opposite-Spin Energy      =      -1.1720482065646658 [Eh]
	 Correlation Energy        =      -1.5368196494448969 [Eh]
	 Total Energy              =    -382.3055386389967225 [Eh]

	 ================> DF-SCS-MP2 Energies <==================
	-----------------------------------------------------------
	 SCS Same-Spin Scale       =       0.3333333333333333 [-]
	 SCS Opposite-Spin Scale   =       1.2000000000000000 [-]
	 SCS Same-Spin Energy      =      -0.1215904809600770 [Eh]
	 SCS Opposite-Spin Energy  =      -1.4064578478775989 [Eh]
	 SCS Correlation Energy    =      -1.5280483288376758 [Eh]
	 SCS Total Energy          =    -382.2967673183894703 [Eh]
	-----------------------------------------------------------

  Dipole Moment: [D]
     X:    -0.3602      Y:    -1.4899      Z:     1.6982     Total:     2.2876

*** Psi4 exiting successfully. Buy a developer a beer!
