                               Psi4 1.3.2 release

  ==> Input File <==

--------------------------------------------------------------------------
#psi4
#
memory 32 gb

molecule  {
0 1
  O        0.8013680    -0.3194430    -0.6593080
  O       -0.5076550    -0.8220740    -0.2452740
  O       -1.1941799     1.4251163    -0.0711572
  C        1.6031630    -0.2426310     0.5338170
  C        2.9657370     0.2196450     0.0595640
  C       -1.3789950     0.2279050    -0.0301100
  C       -2.7361800    -0.3473490     0.2635940
  H        1.1531750     0.4718980     1.2294250
  H        1.6470430    -1.2298650     1.0038120
  H        3.6380680     0.2976270     0.9176960
  H        3.3895360    -0.4934290    -0.6504970
  H        2.8952950     1.1995690    -0.4169390
  H       -3.2299570    -0.5922870    -0.6804890
  H       -2.6567000    -1.2579100     0.8585660
  H       -3.3255750     0.4009600     0.7925810
units angstrom
no_reorient  #important for SAPT in psi4, default
symmetry c1  #important for SAPT in psi4, default
}

set PROPERTIES_ORIGIN ["COM"]
properties('MP2/aug-cc-pvtz', properties = ['dipole'])
--------------------------------------------------------------------------

    Molecular point group: c1
  Charge       = 0
  Multiplicity = 1
  Basis Set: AUG-CC-PVTZ
    Blend: AUG-CC-PVTZ
  Basis Set: (AUG-CC-PVTZ AUX)
    Blend: AUG-CC-PVTZ-JKFIT

    Orbital Energies [Eh]
    ---------------------

    Doubly Occupied:

       1A    -20.664698     2A    -20.645057     3A    -20.557182
       4A    -11.393923     5A    -11.293571     6A    -11.244965
       7A    -11.229777     8A     -1.510533     9A     -1.394941
      10A     -1.273528    11A     -1.033397    12A     -1.002525
      13A     -0.857213    14A     -0.800010    15A     -0.707294
      16A     -0.696742    17A     -0.678347    18A     -0.646129
      19A     -0.615230    20A     -0.598976    21A     -0.580609
      22A     -0.549348    23A     -0.538707    24A     -0.533716
      25A     -0.515740    26A     -0.485218    27A     -0.472160
      28A     -0.449907

  @DF-RHF Final Energy:  -380.76637561130343

   => Energetics <=

    Nuclear Repulsion Energy =            314.9475679429280035
    One-Electron Energy =               -1145.4889983810248850
    Two-Electron Energy =                 449.7750548267934505
    Total Energy =                       -380.7663756113034310
  Basis Set: (AUG-CC-PVTZ AUX)
    Blend: AUG-CC-PVTZ-RI
    Molecular point group: c1

    Geometry (in Angstrom), charge = 0, multiplicity = 1:

       Center              X                  Y                   Z               Mass
    ------------   -----------------  -----------------  -----------------  -----------------
         O            0.853458069583    -0.334956444097    -0.634257564011    15.994914619570
         O           -0.455564930417    -0.837587444097    -0.220223564011    15.994914619570
         O           -1.142089830417     1.409602855903    -0.046106764011    15.994914619570
         C            1.655253069583    -0.258144444097     0.558867435989    12.000000000000
         C            3.017827069583     0.204131555903     0.084614435989    12.000000000000
         C           -1.326904930417     0.212391555903    -0.005059564011    12.000000000000
         C           -2.684089930417    -0.362862444097     0.288644435989    12.000000000000
         H            1.205265069583     0.456384555903     1.254475435989     1.007825032230
         H            1.699133069583    -1.245378444097     1.028862435989     1.007825032230
         H            3.690158069583     0.282113555903     0.942746435989     1.007825032230
         H            3.441626069583    -0.508942444097    -0.625446564011     1.007825032230
         H            2.947385069583     1.184055555903    -0.391888564011     1.007825032230
         H           -3.177866930417    -0.607800444097    -0.655438564011     1.007825032230
         H           -2.604609930417    -1.273423444097     0.883616435989     1.007825032230
         H           -3.273484930417     0.385446555903     0.817631435989     1.007825032230

  Basis Set: AUG-CC-PVTZ
    Blend: AUG-CC-PVTZ
  Basis Set: (AUG-CC-PVTZ AUX)
    Blend: AUG-CC-PVTZ-JKFIT
	 Reference Energy          =    -380.7663756113034310 [Eh]
	 Singles Energy            =      -0.0000000000000000 [Eh]
	 Same-Spin Energy          =      -0.3646864037647872 [Eh]
	 Opposite-Spin Energy      =      -1.1723893450952048 [Eh]
	 Correlation Energy        =      -1.5370757488599920 [Eh]
	 Total Energy              =    -382.3034513601634217 [Eh]

	 ================> DF-SCS-MP2 Energies <==================
	-----------------------------------------------------------
	 SCS Same-Spin Scale       =       0.3333333333333333 [-]
	 SCS Opposite-Spin Scale   =       1.2000000000000000 [-]
	 SCS Same-Spin Energy      =      -0.1215621345882624 [Eh]
	 SCS Opposite-Spin Energy  =      -1.4068672141142458 [Eh]
	 SCS Correlation Energy    =      -1.5284293487025082 [Eh]
	 SCS Total Energy          =    -382.2948049600059335 [Eh]
	-----------------------------------------------------------

  Dipole Moment: [D]
     X:     0.1339      Y:    -1.5381      Z:     1.6219     Total:     2.2392

*** Psi4 exiting successfully. Buy a developer a beer!
