                               Psi4 1.3.2 release

  ==> Input File <==

--------------------------------------------------------------------------
#psi4
#
memory 32 gb

molecule  {
0 1
  O        0.8013680    -0.3194430    -0.6593080
  O       -0.5076550    -0.8220740    -0.2452740
  O       -1.1129970     1.4089940    -0.0886782
  C        1.6031630    -0.2426310     0.5338170
  C        2.9657370     0.2196450     0.0595640
  C       -1.3789950     0.2279050    -0.0301100
  C       -2.7361800    -0.3473490     0.2635940
  H        1.1531750     0.4718980     1.2294250
  H        1.6470430    -1.2298650     1.0038120
  H        3.6380680     0.2976270     0.9176960
  H        3.3895360    -0.4934290    -0.6504970
  H        2.8952950     1.1995690    -0.4169390
  H       -3.2299570    -0.5922870    -0.6804890
  H       -2.6567000    -1.2579100     0.8585660
  H       -3.3255750     0.4009600     0.7925810
units angstrom
no_reorient  #important for SAPT in psi4, default
symmetry c1  #important for SAPT in psi4, default
}

set PROPERTIES_ORIGIN ["COM"]
properties('MP2/aug-cc-pvtz', properties = ['dipole'])
--------------------------------------------------------------------------

    Molecular point group: c1
  Charge       = 0
  Multiplicity = 1
  Basis Set: AUG-CC-PVTZ
    Blend: AUG-CC-PVTZ
  Basis Set: (AUG-CC-PVTZ AUX)
    Blend: AUG-CC-PVTZ-JKFIT

    Orbital Energies [Eh]
    ---------------------

    Doubly Occupied:

       1A    -20.659420     2A    -20.642063     3A    -20.555964
       4A    -11.393415     5A    -11.291317     6A    -11.249652
       7A    -11.228140     8A     -1.508456     9A     -1.392336
      10A     -1.269879    11A     -1.034079    12A     -1.003893
      13A     -0.855087    14A     -0.797907    15A     -0.707271
      16A     -0.694647    17A     -0.676481    18A     -0.644748
      19A     -0.615229    20A     -0.598737    21A     -0.582215
      22A     -0.548524    23A     -0.536644    24A     -0.533359
      25A     -0.513695    26A     -0.482747    27A     -0.469495
      28A     -0.452047

  @DF-RHF Final Energy:  -380.76892829724352

   => Energetics <=

    Nuclear Repulsion Energy =            315.6490426501169395
    One-Electron Energy =               -1146.9610473024947623
    Two-Electron Energy =                 450.5430763551343034
    Total Energy =                       -380.7689282972435194
  Basis Set: (AUG-CC-PVTZ AUX)
    Blend: AUG-CC-PVTZ-RI
    Molecular point group: c1

    Geometry (in Angstrom), charge = 0, multiplicity = 1:

       Center              X                  Y                   Z               Mass
    ------------   -----------------  -----------------  -----------------  -----------------
         O            0.840978043638    -0.332478006861    -0.631564108436    15.994914619570
         O           -0.468044956362    -0.835109006861    -0.217530108436    15.994914619570
         O           -1.073386956362     1.395958993139    -0.060934308436    15.994914619570
         C            1.642773043638    -0.255666006861     0.561560891564    12.000000000000
         C            3.005347043638     0.206609993139     0.087307891564    12.000000000000
         C           -1.339384956362     0.214869993139    -0.002366108436    12.000000000000
         C           -2.696569956362    -0.360384006861     0.291337891564    12.000000000000
         H            1.192785043638     0.458862993139     1.257168891564     1.007825032230
         H            1.686653043638    -1.242900006861     1.031555891564     1.007825032230
         H            3.677678043638     0.284591993139     0.945439891564     1.007825032230
         H            3.429146043638    -0.506464006861    -0.622753108436     1.007825032230
         H            2.934905043638     1.186533993139    -0.389195108436     1.007825032230
         H           -3.190346956362    -0.605322006861    -0.652745108436     1.007825032230
         H           -2.617089956362    -1.270945006861     0.886309891564     1.007825032230
         H           -3.285964956362     0.387924993139     0.820324891564     1.007825032230

  Basis Set: AUG-CC-PVTZ
    Blend: AUG-CC-PVTZ
  Basis Set: (AUG-CC-PVTZ AUX)
    Blend: AUG-CC-PVTZ-JKFIT
	 Reference Energy          =    -380.7689282972435194 [Eh]
	 Singles Energy            =      -0.0000000000000000 [Eh]
	 Same-Spin Energy          =      -0.3646661842104393 [Eh]
	 Opposite-Spin Energy      =      -1.1721008070553109 [Eh]
	 Correlation Energy        =      -1.5367669912657502 [Eh]
	 Total Energy              =    -382.3056952885092414 [Eh]

	 ================> DF-SCS-MP2 Energies <==================
	-----------------------------------------------------------
	 SCS Same-Spin Scale       =       0.3333333333333333 [-]
	 SCS Opposite-Spin Scale   =       1.2000000000000000 [-]
	 SCS Same-Spin Energy      =      -0.1215553947368131 [Eh]
	 SCS Opposite-Spin Energy  =      -1.4065209684663731 [Eh]
	 SCS Correlation Energy    =      -1.5280763632031862 [Eh]
	 SCS Total Energy          =    -382.2970046604467029 [Eh]
	-----------------------------------------------------------

  Dipole Moment: [D]
     X:    -0.1141      Y:    -1.5216      Z:     1.6610     Total:     2.2555

*** Psi4 exiting successfully. Buy a developer a beer!
