                               Psi4 1.3.2 release

  ==> Input File <==

--------------------------------------------------------------------------
#psi4
#
memory 32 gb

molecule  {
0 1
  O        0.8013680    -0.3194430    -0.6593080
  O       -0.5440721    -0.8527447    -0.2376786
  O       -1.0728670     1.3987690    -0.0973370
  C        1.6031630    -0.2426310     0.5338170
  C        2.9657370     0.2196450     0.0595640
  C       -1.3789950     0.2279050    -0.0301100
  C       -2.7361800    -0.3473490     0.2635940
  H        1.1531750     0.4718980     1.2294250
  H        1.6470430    -1.2298650     1.0038120
  H        3.6380680     0.2976270     0.9176960
  H        3.3895360    -0.4934290    -0.6504970
  H        2.8952950     1.1995690    -0.4169390
  H       -3.2299570    -0.5922870    -0.6804890
  H       -2.6567000    -1.2579100     0.8585660
  H       -3.3255750     0.4009600     0.7925810
units angstrom
no_reorient  #important for SAPT in psi4, default
symmetry c1  #important for SAPT in psi4, default
}

set PROPERTIES_ORIGIN ["COM"]
properties('MP2/aug-cc-pvtz', properties = ['dipole'])
--------------------------------------------------------------------------

    Molecular point group: c1
  Charge       = 0
  Multiplicity = 1
  Basis Set: AUG-CC-PVTZ
    Blend: AUG-CC-PVTZ
  Basis Set: (AUG-CC-PVTZ AUX)
    Blend: AUG-CC-PVTZ-JKFIT

    Orbital Energies [Eh]
    ---------------------

    Doubly Occupied:

       1A    -20.659570     2A    -20.643844     3A    -20.556625
       4A    -11.393452     5A    -11.291471     6A    -11.249497
       7A    -11.228715     8A     -1.494193     9A     -1.389159
      10A     -1.275699    11A     -1.032793    12A     -1.004266
      13A     -0.852665    14A     -0.793257    15A     -0.704465
      16A     -0.690749    17A     -0.672111    18A     -0.644905
      19A     -0.615991    20A     -0.597630    21A     -0.581111
      22A     -0.547455    23A     -0.537743    24A     -0.534801
      25A     -0.508593    26A     -0.484911    27A     -0.469229
      28A     -0.453708

  @DF-RHF Final Energy:  -380.76261894064743

   => Energetics <=

    Nuclear Repulsion Energy =            315.0792178213308148
    One-Electron Energy =               -1145.8664568037256686
    Two-Electron Energy =                 450.0246200417474824
    Total Energy =                       -380.7626189406474282
  Basis Set: (AUG-CC-PVTZ AUX)
    Blend: AUG-CC-PVTZ-RI
    Molecular point group: c1

    Geometry (in Angstrom), charge = 0, multiplicity = 1:

       Center              X                  Y                   Z               Mass
    ------------   -----------------  -----------------  -----------------  -----------------
         O            0.840407269641    -0.326191222365    -0.631400634852    15.994914619570
         O           -0.505032830359    -0.859492922365    -0.209771234852    15.994914619570
         O           -1.033827730359     1.392020777635    -0.069429634852    15.994914619570
         C            1.642202269641    -0.249379222365     0.561724365148    12.000000000000
         C            3.004776269641     0.212896777635     0.087471365148    12.000000000000
         C           -1.339955730359     0.221156777635    -0.002202634852    12.000000000000
         C           -2.697140730359    -0.354097222365     0.291501365148    12.000000000000
         H            1.192214269641     0.465149777635     1.257332365148     1.007825032230
         H            1.686082269641    -1.236613222365     1.031719365148     1.007825032230
         H            3.677107269641     0.290878777635     0.945603365148     1.007825032230
         H            3.428575269641    -0.500177222365    -0.622589634852     1.007825032230
         H            2.934334269641     1.192820777635    -0.389031634852     1.007825032230
         H           -3.190917730359    -0.599035222365    -0.652581634852     1.007825032230
         H           -2.617660730359    -1.264658222365     0.886473365148     1.007825032230
         H           -3.286535730359     0.394211777635     0.820488365148     1.007825032230

  Basis Set: AUG-CC-PVTZ
    Blend: AUG-CC-PVTZ
  Basis Set: (AUG-CC-PVTZ AUX)
    Blend: AUG-CC-PVTZ-JKFIT
	 Reference Energy          =    -380.7626189406474282 [Eh]
	 Singles Energy            =      -0.0000000000000000 [Eh]
	 Same-Spin Energy          =      -0.3657084038516521 [Eh]
	 Opposite-Spin Energy      =      -1.1756201304006595 [Eh]
	 Correlation Energy        =      -1.5413285342523115 [Eh]
	 Total Energy              =    -382.3039474748997577 [Eh]

	 ================> DF-SCS-MP2 Energies <==================
	-----------------------------------------------------------
	 SCS Same-Spin Scale       =       0.3333333333333333 [-]
	 SCS Opposite-Spin Scale   =       1.2000000000000000 [-]
	 SCS Same-Spin Energy      =      -0.1219028012838840 [Eh]
	 SCS Opposite-Spin Energy  =      -1.4107441564807914 [Eh]
	 SCS Correlation Energy    =      -1.5326469577646755 [Eh]
	 SCS Total Energy          =    -382.2952658984120831 [Eh]
	-----------------------------------------------------------

  Dipole Moment: [D]
     X:    -0.1740      Y:    -1.4678      Z:     1.6801     Total:     2.2378

*** Psi4 exiting successfully. Buy a developer a beer!
