                               Psi4 1.3.2 release

  ==> Input File <==

--------------------------------------------------------------------------
#psi4
#
memory 32 gb

molecule  {
0 1
  O        0.8013680    -0.3194430    -0.6593080
  O       -0.4384851    -0.7569111    -0.2615475
  O       -1.0728670     1.3987690    -0.0973370
  C        1.6031630    -0.2426310     0.5338170
  C        2.9657370     0.2196450     0.0595640
  C       -1.3789950     0.2279050    -0.0301100
  C       -2.7361800    -0.3473490     0.2635940
  H        1.1531750     0.4718980     1.2294250
  H        1.6470430    -1.2298650     1.0038120
  H        3.6380680     0.2976270     0.9176960
  H        3.3895360    -0.4934290    -0.6504970
  H        2.8952950     1.1995690    -0.4169390
  H       -3.2299570    -0.5922870    -0.6804890
  H       -2.6567000    -1.2579100     0.8585660
  H       -3.3255750     0.4009600     0.7925810
units angstrom
no_reorient  #important for SAPT in psi4, default
symmetry c1  #important for SAPT in psi4, default
}

set PROPERTIES_ORIGIN ["COM"]
properties('MP2/aug-cc-pvtz', properties = ['dipole'])
--------------------------------------------------------------------------

    Molecular point group: c1
  Charge       = 0
  Multiplicity = 1
  Basis Set: AUG-CC-PVTZ
    Blend: AUG-CC-PVTZ
  Basis Set: (AUG-CC-PVTZ AUX)
    Blend: AUG-CC-PVTZ-JKFIT

    Orbital Energies [Eh]
    ---------------------

    Doubly Occupied:

       1A    -20.649466     2A    -20.634053     3A    -20.551998
       4A    -11.392735     5A    -11.287621     6A    -11.256816
       7A    -11.224671     8A     -1.540784     9A     -1.394261
      10A     -1.251822    11A     -1.038530    12A     -1.004658
      13A     -0.858742    14A     -0.804636    15A     -0.715145
      16A     -0.698716    17A     -0.684386    18A     -0.642989
      19A     -0.615148    20A     -0.599935    21A     -0.586983
      22A     -0.550025    23A     -0.532163    24A     -0.529424
      25A     -0.516435    26A     -0.474906    27A     -0.464329
      28A     -0.445641

  @DF-RHF Final Energy:  -380.77274061759010

   => Energetics <=

    Nuclear Repulsion Energy =            318.0980087963863525
    One-Electron Energy =               -1151.8474541496664187
    Two-Electron Energy =                 452.9767047356899639
    Total Energy =                       -380.7727406175901024
  Basis Set: (AUG-CC-PVTZ AUX)
    Blend: AUG-CC-PVTZ-RI
    Molecular point group: c1

    Geometry (in Angstrom), charge = 0, multiplicity = 1:

       Center              X                  Y                   Z               Mass
    ------------   -----------------  -----------------  -----------------  -----------------
         O            0.824175667919    -0.340923460489    -0.627731333912    15.994914619570
         O           -0.415677432081    -0.778391560489    -0.229970833912    15.994914619570
         O           -1.050059332081     1.377288539511    -0.065760333912    15.994914619570
         C            1.625970667919    -0.264111460489     0.565393666088    12.000000000000
         C            2.988544667919     0.198164539511     0.091140666088    12.000000000000
         C           -1.356187332081     0.206424539511     0.001466666088    12.000000000000
         C           -2.713372332081    -0.368829460489     0.295170666088    12.000000000000
         H            1.175982667919     0.450417539511     1.261001666088     1.007825032230
         H            1.669850667919    -1.251345460489     1.035388666088     1.007825032230
         H            3.660875667919     0.276146539511     0.949272666088     1.007825032230
         H            3.412343667919    -0.514909460489    -0.618920333912     1.007825032230
         H            2.918102667919     1.178088539511    -0.385362333912     1.007825032230
         H           -3.207149332081    -0.613767460489    -0.648912333912     1.007825032230
         H           -2.633892332081    -1.279390460489     0.890142666088     1.007825032230
         H           -3.302767332081     0.379479539511     0.824157666088     1.007825032230

  Basis Set: AUG-CC-PVTZ
    Blend: AUG-CC-PVTZ
  Basis Set: (AUG-CC-PVTZ AUX)
    Blend: AUG-CC-PVTZ-JKFIT
	 Reference Energy          =    -380.7727406175901024 [Eh]
	 Singles Energy            =      -0.0000000000000000 [Eh]
	 Same-Spin Energy          =      -0.3631168522169395 [Eh]
	 Opposite-Spin Energy      =      -1.1658955494188019 [Eh]
	 Correlation Energy        =      -1.5290124016357414 [Eh]
	 Total Energy              =    -382.3017530192258278 [Eh]

	 ================> DF-SCS-MP2 Energies <==================
	-----------------------------------------------------------
	 SCS Same-Spin Scale       =       0.3333333333333333 [-]
	 SCS Opposite-Spin Scale   =       1.2000000000000000 [-]
	 SCS Same-Spin Energy      =      -0.1210389507389798 [Eh]
	 SCS Opposite-Spin Energy  =      -1.3990746593025623 [Eh]
	 SCS Correlation Energy    =      -1.5201136100415420 [Eh]
	 SCS Total Energy          =    -382.2928542276316648 [Eh]
	-----------------------------------------------------------

  Dipole Moment: [D]
     X:    -0.3703      Y:    -1.5980      Z:     1.6800     Total:     2.3480

*** Psi4 exiting successfully. Buy a developer a beer!
