                               Psi4 1.3.2 release

  ==> Input File <==

--------------------------------------------------------------------------
#psi4
#
memory 32 gb

molecule  {
0 1
  O        0.7625561    -0.3345470    -0.6311955
  O       -0.5076550    -0.8220740    -0.2452740
  O       -1.0728670     1.3987690    -0.0973370
  C        1.6031630    -0.2426310     0.5338170
  C        2.9657370     0.2196450     0.0595640
  C       -1.3789950     0.2279050    -0.0301100
  C       -2.7361800    -0.3473490     0.2635940
  H        1.1531750     0.4718980     1.2294250
  H        1.6470430    -1.2298650     1.0038120
  H        3.6380680     0.2976270     0.9176960
  H        3.3895360    -0.4934290    -0.6504970
  H        2.8952950     1.1995690    -0.4169390
  H       -3.2299570    -0.5922870    -0.6804890
  H       -2.6567000    -1.2579100     0.8585660
  H       -3.3255750     0.4009600     0.7925810
units angstrom
no_reorient  #important for SAPT in psi4, default
symmetry c1  #important for SAPT in psi4, default
}

set PROPERTIES_ORIGIN ["COM"]
properties('MP2/aug-cc-pvtz', properties = ['dipole'])
--------------------------------------------------------------------------

    Molecular point group: c1
  Charge       = 0
  Multiplicity = 1
  Basis Set: AUG-CC-PVTZ
    Blend: AUG-CC-PVTZ
  Basis Set: (AUG-CC-PVTZ AUX)
    Blend: AUG-CC-PVTZ-JKFIT

    Orbital Energies [Eh]
    ---------------------

    Doubly Occupied:

       1A    -20.658211     2A    -20.633077     3A    -20.555928
       4A    -11.393114     5A    -11.289207     6A    -11.251847
       7A    -11.227754     8A     -1.525559     9A     -1.393015
      10A     -1.261089    11A     -1.036715    12A     -1.003281
      13A     -0.856738    14A     -0.801110    15A     -0.710966
      16A     -0.698166    17A     -0.681101    18A     -0.642724
      19A     -0.613722    20A     -0.601342    21A     -0.583529
      22A     -0.549259    23A     -0.535023    24A     -0.530859
      25A     -0.516451    26A     -0.477392    27A     -0.467222
      28A     -0.449905

  @DF-RHF Final Energy:  -380.77287041523010

   => Energetics <=

    Nuclear Repulsion Energy =            317.0789471067578233
    One-Electron Energy =               -1149.8150238679024824
    Two-Electron Energy =                 451.9632063459145570
    Total Energy =                       -380.7728704152301020
  Basis Set: (AUG-CC-PVTZ AUX)
    Blend: AUG-CC-PVTZ-RI
    Molecular point group: c1

    Geometry (in Angstrom), charge = 0, multiplicity = 1:

       Center              X                  Y                   Z               Mass
    ------------   -----------------  -----------------  -----------------  -----------------
         O            0.801963515718    -0.343688248727    -0.606442172714    15.994914619570
         O           -0.468247584282    -0.831215248727    -0.220520672714    15.994914619570
         O           -1.033459584282     1.389627751273    -0.072583672714    15.994914619570
         C            1.642570415718    -0.251772248727     0.558570327286    12.000000000000
         C            3.005144415718     0.210503751273     0.084317327286    12.000000000000
         C           -1.339587584282     0.218763751273    -0.005356672714    12.000000000000
         C           -2.696772584282    -0.356490248727     0.288347327286    12.000000000000
         H            1.192582415718     0.462756751273     1.254178327286     1.007825032230
         H            1.686450415718    -1.239006248727     1.028565327286     1.007825032230
         H            3.677475415718     0.288485751273     0.942449327286     1.007825032230
         H            3.428943415718    -0.502570248727    -0.625743672714     1.007825032230
         H            2.934702415718     1.190427751273    -0.392185672714     1.007825032230
         H           -3.190549584282    -0.601428248727    -0.655735672714     1.007825032230
         H           -2.617292584282    -1.267051248727     0.883319327286     1.007825032230
         H           -3.286167584282     0.391818751273     0.817334327286     1.007825032230

  Basis Set: AUG-CC-PVTZ
    Blend: AUG-CC-PVTZ
  Basis Set: (AUG-CC-PVTZ AUX)
    Blend: AUG-CC-PVTZ-JKFIT
	 Reference Energy          =    -380.7728704152301020 [Eh]
	 Singles Energy            =      -0.0000000000000000 [Eh]
	 Same-Spin Energy          =      -0.3638729222243572 [Eh]
	 Opposite-Spin Energy      =      -1.1687920906935663 [Eh]
	 Correlation Energy        =      -1.5326650129179236 [Eh]
	 Total Energy              =    -382.3055354281480049 [Eh]

	 ================> DF-SCS-MP2 Energies <==================
	-----------------------------------------------------------
	 SCS Same-Spin Scale       =       0.3333333333333333 [-]
	 SCS Opposite-Spin Scale   =       1.2000000000000000 [-]
	 SCS Same-Spin Energy      =      -0.1212909740747857 [Eh]
	 SCS Opposite-Spin Energy  =      -1.4025505088322794 [Eh]
	 SCS Correlation Energy    =      -1.5238414829070652 [Eh]
	 SCS Total Energy          =    -382.2967118981371755 [Eh]
	-----------------------------------------------------------

  Dipole Moment: [D]
     X:    -0.1822      Y:    -1.5045      Z:     1.6506     Total:     2.2408

*** Psi4 exiting successfully. Buy a developer a beer!
