                               Psi4 1.3.2 release

  ==> Input File <==

--------------------------------------------------------------------------
#psi4
#
memory 32 gb

molecule  {
0 1
  O        0.8013680    -0.3194430    -0.6593080
  O       -0.5076550    -0.8220740    -0.2452740
  O       -1.0728670     1.3987690    -0.0973370
  C        1.5474656    -0.2479668     0.4509356
  C        2.9657370     0.2196450     0.0595640
  C       -1.3789950     0.2279050    -0.0301100
  C       -2.7361800    -0.3473490     0.2635940
  H        1.1531750     0.4718980     1.2294250
  H        1.6470430    -1.2298650     1.0038120
  H        3.6380680     0.2976270     0.9176960
  H        3.3895360    -0.4934290    -0.6504970
  H        2.8952950     1.1995690    -0.4169390
  H       -3.2299570    -0.5922870    -0.6804890
  H       -2.6567000    -1.2579100     0.8585660
  H       -3.3255750     0.4009600     0.7925810
units angstrom
no_reorient  #important for SAPT in psi4, default
symmetry c1  #important for SAPT in psi4, default
}

set PROPERTIES_ORIGIN ["COM"]
properties('MP2/aug-cc-pvtz', properties = ['dipole'])
--------------------------------------------------------------------------

    Molecular point group: c1
  Charge       = 0
  Multiplicity = 1
  Basis Set: AUG-CC-PVTZ
    Blend: AUG-CC-PVTZ
  Basis Set: (AUG-CC-PVTZ AUX)
    Blend: AUG-CC-PVTZ-JKFIT

    Orbital Energies [Eh]
    ---------------------

    Doubly Occupied:

       1A    -20.665558     2A    -20.649402     3A    -20.559476
       4A    -11.398090     5A    -11.289530     6A    -11.255224
       7A    -11.226075     8A     -1.527216     9A     -1.400761
      10A     -1.294829    11A     -1.034032    12A     -0.997746
      13A     -0.852084    14A     -0.805153    15A     -0.716497
      16A     -0.703644    17A     -0.684357    18A     -0.641828
      19A     -0.624211    20A     -0.604862    21A     -0.585693
      22A     -0.549867    23A     -0.545405    24A     -0.538761
      25A     -0.494163    26A     -0.487854    27A     -0.461836
      28A     -0.445445

  @DF-RHF Final Energy:  -380.76164063027085

   => Energetics <=

    Nuclear Repulsion Energy =            317.6391715227036912
    One-Electron Energy =               -1150.7224254450284207
    Two-Electron Energy =                 452.3216132920538826
    Total Energy =                       -380.7616406302708469
  Basis Set: (AUG-CC-PVTZ AUX)
    Blend: AUG-CC-PVTZ-RI
    Molecular point group: c1

    Geometry (in Angstrom), charge = 0, multiplicity = 1:

       Center              X                  Y                   Z               Mass
    ------------   -----------------  -----------------  -----------------  -----------------
         O            0.841232666921    -0.330290756394    -0.620674127761    15.994914619570
         O           -0.467790333079    -0.832921756394    -0.206640127761    15.994914619570
         O           -1.033002333079     1.387921243606    -0.058703127761    15.994914619570
         C            1.587330266921    -0.258814556394     0.489569472239    12.000000000000
         C            3.005601666921     0.208797243606     0.098197872239    12.000000000000
         C           -1.339130333079     0.217057243606     0.008523872239    12.000000000000
         C           -2.696315333079    -0.358196756394     0.302227872239    12.000000000000
         H            1.193039666921     0.461050243606     1.268058872239     1.007825032230
         H            1.686907666921    -1.240712756394     1.042445872239     1.007825032230
         H            3.677932666921     0.286779243606     0.956329872239     1.007825032230
         H            3.429400666921    -0.504276756394    -0.611863127761     1.007825032230
         H            2.935159666921     1.188721243606    -0.378305127761     1.007825032230
         H           -3.190092333079    -0.603134756394    -0.641855127761     1.007825032230
         H           -2.616835333079    -1.268757756394     0.897199872239     1.007825032230
         H           -3.285710333079     0.390112243606     0.831214872239     1.007825032230

  Basis Set: AUG-CC-PVTZ
    Blend: AUG-CC-PVTZ
  Basis Set: (AUG-CC-PVTZ AUX)
    Blend: AUG-CC-PVTZ-JKFIT
	 Reference Energy          =    -380.7616406302708469 [Eh]
	 Singles Energy            =      -0.0000000000000000 [Eh]
	 Same-Spin Energy          =      -0.3650589139295474 [Eh]
	 Opposite-Spin Energy      =      -1.1715203956145928 [Eh]
	 Correlation Energy        =      -1.5365793095441402 [Eh]
	 Total Energy              =    -382.2982199398149987 [Eh]

	 ================> DF-SCS-MP2 Energies <==================
	-----------------------------------------------------------
	 SCS Same-Spin Scale       =       0.3333333333333333 [-]
	 SCS Opposite-Spin Scale   =       1.2000000000000000 [-]
	 SCS Same-Spin Energy      =      -0.1216863046431825 [Eh]
	 SCS Opposite-Spin Energy  =      -1.4058244747375113 [Eh]
	 SCS Correlation Energy    =      -1.5275107793806937 [Eh]
	 SCS Total Energy          =    -382.2891514096515380 [Eh]
	-----------------------------------------------------------

  Dipole Moment: [D]
     X:    -0.5056      Y:    -1.4911      Z:     1.4497     Total:     2.1403

*** Psi4 exiting successfully. Buy a developer a beer!
