                               Psi4 1.3.2 release

  ==> Input File <==

--------------------------------------------------------------------------
#psi4
#
memory 32 gb

molecule  {
0 1
  O        0.7634146    -0.2249907    -0.6520625
  O       -0.5076550    -0.8220740    -0.2452740
  O       -1.0728670     1.3987690    -0.0973370
  C        1.6031630    -0.2426310     0.5338170
  C        2.9657370     0.2196450     0.0595640
  C       -1.3789950     0.2279050    -0.0301100
  C       -2.7361800    -0.3473490     0.2635940
  H        1.1531750     0.4718980     1.2294250
  H        1.6470430    -1.2298650     1.0038120
  H        3.6380680     0.2976270     0.9176960
  H        3.3895360    -0.4934290    -0.6504970
  H        2.8952950     1.1995690    -0.4169390
  H       -3.2299570    -0.5922870    -0.6804890
  H       -2.6567000    -1.2579100     0.8585660
  H       -3.3255750     0.4009600     0.7925810
units angstrom
no_reorient  #important for SAPT in psi4, default
symmetry c1  #important for SAPT in psi4, default
}

set PROPERTIES_ORIGIN ["COM"]
properties('MP2/aug-cc-pvtz', properties = ['dipole'])
--------------------------------------------------------------------------

    Molecular point group: c1
  Charge       = 0
  Multiplicity = 1
  Basis Set: AUG-CC-PVTZ
    Blend: AUG-CC-PVTZ
  Basis Set: (AUG-CC-PVTZ AUX)
    Blend: AUG-CC-PVTZ-JKFIT

    Orbital Energies [Eh]
    ---------------------

    Doubly Occupied:

       1A    -20.657994     2A    -20.637839     3A    -20.553822
       4A    -11.391421     5A    -11.291216     6A    -11.250640
       7A    -11.227460     8A     -1.508878     9A     -1.387950
      10A     -1.263757    11A     -1.033821    12A     -1.004032
      13A     -0.852979    14A     -0.796716    15A     -0.706941
      16A     -0.692340    17A     -0.676402    18A     -0.641684
      19A     -0.614698    20A     -0.598076    21A     -0.581343
      22A     -0.547692    23A     -0.533204    24A     -0.530415
      25A     -0.514406    26A     -0.484856    27A     -0.462918
      28A     -0.453353

  @DF-RHF Final Energy:  -380.76600195256128

   => Energetics <=

    Nuclear Repulsion Energy =            316.6169629685131781
    One-Electron Energy =               -1148.9722227862623640
    Two-Electron Energy =                 451.5892578651878466
    Total Energy =                       -380.7660019525612825
  Basis Set: (AUG-CC-PVTZ AUX)
    Blend: AUG-CC-PVTZ-RI
    Molecular point group: c1

    Geometry (in Angstrom), charge = 0, multiplicity = 1:

       Center              X                  Y                   Z               Mass
    ------------   -----------------  -----------------  -----------------  -----------------
         O            0.802690040853    -0.250973740120    -0.624101345679    15.994914619570
         O           -0.468379559147    -0.848057040120    -0.217312845679    15.994914619570
         O           -1.033591559147     1.372785959880    -0.069375845679    15.994914619570
         C            1.642438440853    -0.268614040120     0.561778154321    12.000000000000
         C            3.005012440853     0.193661959880     0.087525154321    12.000000000000
         C           -1.339719559147     0.201921959880    -0.002148845679    12.000000000000
         C           -2.696904559147    -0.373332040120     0.291555154321    12.000000000000
         H            1.192450440853     0.445914959880     1.257386154321     1.007825032230
         H            1.686318440853    -1.255848040120     1.031773154321     1.007825032230
         H            3.677343440853     0.271643959880     0.945657154321     1.007825032230
         H            3.428811440853    -0.519412040120    -0.622535845679     1.007825032230
         H            2.934570440853     1.173585959880    -0.388977845679     1.007825032230
         H           -3.190681559147    -0.618270040120    -0.652527845679     1.007825032230
         H           -2.617424559147    -1.283893040120     0.886527154321     1.007825032230
         H           -3.286299559147     0.374976959880     0.820542154321     1.007825032230

  Basis Set: AUG-CC-PVTZ
    Blend: AUG-CC-PVTZ
  Basis Set: (AUG-CC-PVTZ AUX)
    Blend: AUG-CC-PVTZ-JKFIT
	 Reference Energy          =    -380.7660019525612825 [Eh]
	 Singles Energy            =      -0.0000000000000000 [Eh]
	 Same-Spin Energy          =      -0.3650289846847785 [Eh]
	 Opposite-Spin Energy      =      -1.1728684379011109 [Eh]
	 Correlation Energy        =      -1.5378974225858895 [Eh]
	 Total Energy              =    -382.3038993751471821 [Eh]

	 ================> DF-SCS-MP2 Energies <==================
	-----------------------------------------------------------
	 SCS Same-Spin Scale       =       0.3333333333333333 [-]
	 SCS Opposite-Spin Scale   =       1.2000000000000000 [-]
	 SCS Same-Spin Energy      =      -0.1216763282282595 [Eh]
	 SCS Opposite-Spin Energy  =      -1.4074421254813332 [Eh]
	 SCS Correlation Energy    =      -1.5291184537095928 [Eh]
	 SCS Total Energy          =    -382.2951204062708825 [Eh]
	-----------------------------------------------------------

  Dipole Moment: [D]
     X:    -0.1657      Y:    -1.6186      Z:     1.6696     Total:     2.3313

*** Psi4 exiting successfully. Buy a developer a beer!
