                               Psi4 1.3.2 release

  ==> Input File <==

--------------------------------------------------------------------------
#psi4
#
memory 32 gb

molecule  {
0 1
  O        0.8179635    -0.3676167    -0.6621762
  O       -0.5076550    -0.8220740    -0.2452740
  O       -1.0728670     1.3987690    -0.0973370
  C        1.6031630    -0.2426310     0.5338170
  C        2.9657370     0.2196450     0.0595640
  C       -1.3789950     0.2279050    -0.0301100
  C       -2.7361800    -0.3473490     0.2635940
  H        1.1531750     0.4718980     1.2294250
  H        1.6470430    -1.2298650     1.0038120
  H        3.6380680     0.2976270     0.9176960
  H        3.3895360    -0.4934290    -0.6504970
  H        2.8952950     1.1995690    -0.4169390
  H       -3.2299570    -0.5922870    -0.6804890
  H       -2.6567000    -1.2579100     0.8585660
  H       -3.3255750     0.4009600     0.7925810
units angstrom
no_reorient  #important for SAPT in psi4, default
symmetry c1  #important for SAPT in psi4, default
}

set PROPERTIES_ORIGIN ["COM"]
properties('MP2/aug-cc-pvtz', properties = ['dipole'])
--------------------------------------------------------------------------

    Molecular point group: c1
  Charge       = 0
  Multiplicity = 1
  Basis Set: AUG-CC-PVTZ
    Blend: AUG-CC-PVTZ
  Basis Set: (AUG-CC-PVTZ AUX)
    Blend: AUG-CC-PVTZ-JKFIT

    Orbital Energies [Eh]
    ---------------------

    Doubly Occupied:

       1A    -20.655718     2A    -20.641738     3A    -20.555749
       4A    -11.393959     5A    -11.289960     6A    -11.252492
       7A    -11.227338     8A     -1.506590     9A     -1.392186
      10A     -1.269199    11A     -1.034943    12A     -1.004547
      13A     -0.854569    14A     -0.796657    15A     -0.707346
      16A     -0.693909    17A     -0.675070    18A     -0.645072
      19A     -0.615086    20A     -0.598444    21A     -0.583884
      22A     -0.548343    23A     -0.537122    24A     -0.533815
      25A     -0.511897    26A     -0.479452    27A     -0.470211
      28A     -0.452159

  @DF-RHF Final Energy:  -380.76915458439726

   => Energetics <=

    Nuclear Repulsion Energy =            315.7155756074338910
    One-Electron Energy =               -1147.1145486076275120
    Two-Electron Energy =                 450.6298184157963078
    Total Energy =                       -380.7691545843972563
  Basis Set: (AUG-CC-PVTZ AUX)
    Blend: AUG-CC-PVTZ-RI
    Molecular point group: c1

    Geometry (in Angstrom), charge = 0, multiplicity = 1:

       Center              X                  Y                   Z               Mass
    ------------   -----------------  -----------------  -----------------  -----------------
         O            0.848853287134    -0.371674233881    -0.632660294144    15.994914619570
         O           -0.476765212866    -0.826131533881    -0.215758094144    15.994914619570
         O           -1.041977212866     1.394711466119    -0.067821094144    15.994914619570
         C            1.634052787134    -0.246688533881     0.563332905856    12.000000000000
         C            2.996626787134     0.215587466119     0.089079905856    12.000000000000
         C           -1.348105212866     0.223847466119    -0.000594094144    12.000000000000
         C           -2.705290212866    -0.351406533881     0.293109905856    12.000000000000
         H            1.184064787134     0.467840466119     1.258940905856     1.007825032230
         H            1.677932787134    -1.233922533881     1.033327905856     1.007825032230
         H            3.668957787134     0.293569466119     0.947211905856     1.007825032230
         H            3.420425787134    -0.497486533881    -0.620981094144     1.007825032230
         H            2.926184787134     1.195511466119    -0.387423094144     1.007825032230
         H           -3.199067212866    -0.596344533881    -0.650973094144     1.007825032230
         H           -2.625810212866    -1.261967533881     0.888081905856     1.007825032230
         H           -3.294685212866     0.396902466119     0.822096905856     1.007825032230

  Basis Set: AUG-CC-PVTZ
    Blend: AUG-CC-PVTZ
  Basis Set: (AUG-CC-PVTZ AUX)
    Blend: AUG-CC-PVTZ-JKFIT
	 Reference Energy          =    -380.7691545843972563 [Eh]
	 Singles Energy            =      -0.0000000000000000 [Eh]
	 Same-Spin Energy          =      -0.3645935514654267 [Eh]
	 Opposite-Spin Energy      =      -1.1717929298632896 [Eh]
	 Correlation Energy        =      -1.5363864813287162 [Eh]
	 Total Energy              =    -382.3055410657259472 [Eh]

	 ================> DF-SCS-MP2 Energies <==================
	-----------------------------------------------------------
	 SCS Same-Spin Scale       =       0.3333333333333333 [-]
	 SCS Opposite-Spin Scale   =       1.2000000000000000 [-]
	 SCS Same-Spin Energy      =      -0.1215311838218089 [Eh]
	 SCS Opposite-Spin Energy  =      -1.4061515158359474 [Eh]
	 SCS Correlation Energy    =      -1.5276826996577564 [Eh]
	 SCS Total Energy          =    -382.2968372840550160 [Eh]
	-----------------------------------------------------------

  Dipole Moment: [D]
     X:    -0.2665      Y:    -1.4503      Z:     1.6849     Total:     2.2390

*** Psi4 exiting successfully. Buy a developer a beer!
