                               Psi4 1.3.2 release

  ==> Input File <==

--------------------------------------------------------------------------
#psi4
#
memory 32 gb

molecule  {
0 1
  O        0.8013680    -0.3194430    -0.6593080
  O       -0.6192584    -0.9101346    -0.2189245
  O       -1.0728670     1.3987690    -0.0973370
  C        1.6031630    -0.2426310     0.5338170
  C        2.9657370     0.2196450     0.0595640
  C       -1.3789950     0.2279050    -0.0301100
  C       -2.7361800    -0.3473490     0.2635940
  H        1.1531750     0.4718980     1.2294250
  H        1.6470430    -1.2298650     1.0038120
  H        3.6380680     0.2976270     0.9176960
  H        3.3895360    -0.4934290    -0.6504970
  H        2.8952950     1.1995690    -0.4169390
  H       -3.2299570    -0.5922870    -0.6804890
  H       -2.6567000    -1.2579100     0.8585660
  H       -3.3255750     0.4009600     0.7925810
units angstrom
no_reorient  #important for SAPT in psi4, default
symmetry c1  #important for SAPT in psi4, default
}

set PROPERTIES_ORIGIN ["COM"]
properties('MP2/aug-cc-pvtz', properties = ['dipole'])
--------------------------------------------------------------------------

    Molecular point group: c1
  Charge       = 0
  Multiplicity = 1
  Basis Set: AUG-CC-PVTZ
    Blend: AUG-CC-PVTZ
  Basis Set: (AUG-CC-PVTZ AUX)
    Blend: AUG-CC-PVTZ-JKFIT

    Orbital Energies [Eh]
    ---------------------

    Doubly Occupied:

       1A    -20.663850     2A    -20.650739     3A    -20.559041
       4A    -11.394096     5A    -11.294113     6A    -11.244623
       7A    -11.231601     8A     -1.473331     9A     -1.385352
      10A     -1.290269    11A     -1.029696    12A     -1.004076
      13A     -0.851488    14A     -0.787239    15A     -0.699998
      16A     -0.685468    17A     -0.666922    18A     -0.646722
      19A     -0.618299    20A     -0.595645    21A     -0.577448
      22A     -0.546823    23A     -0.542374    24A     -0.537868
      25A     -0.498296    26A     -0.490344    27A     -0.472456
      28A     -0.451361

  @DF-RHF Final Energy:  -380.74234667518851

   => Energetics <=

    Nuclear Repulsion Energy =            313.3187080322213660
    One-Electron Energy =               -1142.3430341930938994
    Two-Electron Energy =                 448.2819794856840190
    Total Energy =                       -380.7423466751885144
  Basis Set: (AUG-CC-PVTZ AUX)
    Blend: AUG-CC-PVTZ-RI
    Molecular point group: c1

    Geometry (in Angstrom), charge = 0, multiplicity = 1:

       Center              X                  Y                   Z               Mass
    ------------   -----------------  -----------------  -----------------  -----------------
         O            0.851965454612    -0.317368829460    -0.634283651529    15.994914619570
         O           -0.568660945388    -0.908060429460    -0.193900151529    15.994914619570
         O           -1.022269545388     1.400843170540    -0.072312651529    15.994914619570
         C            1.653760454612    -0.240556829460     0.558841348471    12.000000000000
         C            3.016334454612     0.221719170540     0.084588348471    12.000000000000
         C           -1.328397545388     0.229979170540    -0.005085651529    12.000000000000
         C           -2.685582545388    -0.345274829460     0.288618348471    12.000000000000
         H            1.203772454612     0.473972170540     1.254449348471     1.007825032230
         H            1.697640454612    -1.227790829460     1.028836348471     1.007825032230
         H            3.688665454612     0.299701170540     0.942720348471     1.007825032230
         H            3.440133454612    -0.491354829460    -0.625472651529     1.007825032230
         H            2.945892454612     1.201643170540    -0.391914651529     1.007825032230
         H           -3.179359545388    -0.590212829460    -0.655464651529     1.007825032230
         H           -2.606102545388    -1.255835829460     0.883590348471     1.007825032230
         H           -3.274977545388     0.403034170540     0.817605348471     1.007825032230

  Basis Set: AUG-CC-PVTZ
    Blend: AUG-CC-PVTZ
  Basis Set: (AUG-CC-PVTZ AUX)
    Blend: AUG-CC-PVTZ-JKFIT
	 Reference Energy          =    -380.7423466751885144 [Eh]
	 Singles Energy            =      -0.0000000000000000 [Eh]
	 Same-Spin Energy          =      -0.3680831860054827 [Eh]
	 Opposite-Spin Energy      =      -1.1836353672770787 [Eh]
	 Correlation Energy        =      -1.5517185532825615 [Eh]
	 Total Energy              =    -382.2940652284710836 [Eh]

	 ================> DF-SCS-MP2 Energies <==================
	-----------------------------------------------------------
	 SCS Same-Spin Scale       =       0.3333333333333333 [-]
	 SCS Opposite-Spin Scale   =       1.2000000000000000 [-]
	 SCS Same-Spin Energy      =      -0.1226943953351609 [Eh]
	 SCS Opposite-Spin Energy  =      -1.4203624407324944 [Eh]
	 SCS Correlation Energy    =      -1.5430568360676553 [Eh]
	 SCS Total Energy          =    -382.2854035112561633 [Eh]
	-----------------------------------------------------------

  Dipole Moment: [D]
     X:    -0.0746      Y:    -1.3975      Z:     1.6809     Total:     2.1872

*** Psi4 exiting successfully. Buy a developer a beer!
