                               Psi4 1.3.2 release

  ==> Input File <==

--------------------------------------------------------------------------
#psi4
#
memory 32 gb

molecule  {
0 1
  O        0.8013680    -0.3194430    -0.6593080
  O       -0.5076550    -0.8220740    -0.2452740
  O       -0.9937744     1.3740537    -0.1143984
  C        1.6031630    -0.2426310     0.5338170
  C        2.9657370     0.2196450     0.0595640
  C       -1.3789950     0.2279050    -0.0301100
  C       -2.7361800    -0.3473490     0.2635940
  H        1.1531750     0.4718980     1.2294250
  H        1.6470430    -1.2298650     1.0038120
  H        3.6380680     0.2976270     0.9176960
  H        3.3895360    -0.4934290    -0.6504970
  H        2.8952950     1.1995690    -0.4169390
  H       -3.2299570    -0.5922870    -0.6804890
  H       -2.6567000    -1.2579100     0.8585660
  H       -3.3255750     0.4009600     0.7925810
units angstrom
no_reorient  #important for SAPT in psi4, default
symmetry c1  #important for SAPT in psi4, default
}

set PROPERTIES_ORIGIN ["COM"]
properties('MP2/aug-cc-pvtz', properties = ['dipole'])
--------------------------------------------------------------------------

    Molecular point group: c1
  Charge       = 0
  Multiplicity = 1
  Basis Set: AUG-CC-PVTZ
    Blend: AUG-CC-PVTZ
  Basis Set: (AUG-CC-PVTZ AUX)
    Blend: AUG-CC-PVTZ-JKFIT

    Orbital Energies [Eh]
    ---------------------

    Doubly Occupied:

       1A    -20.651139     2A    -20.637126     3A    -20.553552
       4A    -11.392742     5A    -11.287806     6A    -11.256463
       7A    -11.225633     8A     -1.505857     9A     -1.388065
      10A     -1.264016    11A     -1.035954    12A     -1.004589
      13A     -0.851794    14A     -0.794614    15A     -0.707812
      16A     -0.691108    17A     -0.673861    18A     -0.642989
      19A     -0.615157    20A     -0.598263    21A     -0.584889
      22A     -0.547088    23A     -0.533918    24A     -0.531540
      25A     -0.510101    26A     -0.478548    27A     -0.464807
      28A     -0.453139

  @DF-RHF Final Energy:  -380.76753529966595

   => Energetics <=

    Nuclear Repulsion Energy =            316.8987005247298612
    One-Electron Energy =               -1149.5673341011654429
    Two-Electron Energy =                 451.9010982767696305
    Total Energy =                       -380.7675352996659512
  Basis Set: (AUG-CC-PVTZ AUX)
    Blend: AUG-CC-PVTZ-RI
    Molecular point group: c1

    Geometry (in Angstrom), charge = 0, multiplicity = 1:

       Center              X                  Y                   Z               Mass
    ------------   -----------------  -----------------  -----------------  -----------------
         O            0.822650278293    -0.327106729775    -0.627610212193    15.994914619570
         O           -0.486372721707    -0.829737729775    -0.213576212193    15.994914619570
         O           -0.972492121707     1.366389970225    -0.082700612193    15.994914619570
         C            1.624445278293    -0.250294729775     0.565514787807    12.000000000000
         C            2.987019278293     0.211981270225     0.091261787807    12.000000000000
         C           -1.357712721707     0.220241270225     0.001587787807    12.000000000000
         C           -2.714897721707    -0.355012729775     0.295291787807    12.000000000000
         H            1.174457278293     0.464234270225     1.261122787807     1.007825032230
         H            1.668325278293    -1.237528729775     1.035509787807     1.007825032230
         H            3.659350278293     0.289963270225     0.949393787807     1.007825032230
         H            3.410818278293    -0.501092729775    -0.618799212193     1.007825032230
         H            2.916577278293     1.191905270225    -0.385241212193     1.007825032230
         H           -3.208674721707    -0.599950729775    -0.648791212193     1.007825032230
         H           -2.635417721707    -1.265573729775     0.890263787807     1.007825032230
         H           -3.304292721707     0.393296270225     0.824278787807     1.007825032230

  Basis Set: AUG-CC-PVTZ
    Blend: AUG-CC-PVTZ
  Basis Set: (AUG-CC-PVTZ AUX)
    Blend: AUG-CC-PVTZ-JKFIT
	 Reference Energy          =    -380.7675352996659512 [Eh]
	 Singles Energy            =      -0.0000000000000000 [Eh]
	 Same-Spin Energy          =      -0.3648741291459444 [Eh]
	 Opposite-Spin Energy      =      -1.1721133409848781 [Eh]
	 Correlation Energy        =      -1.5369874701308226 [Eh]
	 Total Energy              =    -382.3045227697967903 [Eh]

	 ================> DF-SCS-MP2 Energies <==================
	-----------------------------------------------------------
	 SCS Same-Spin Scale       =       0.3333333333333333 [-]
	 SCS Opposite-Spin Scale   =       1.2000000000000000 [-]
	 SCS Same-Spin Energy      =      -0.1216247097153148 [Eh]
	 SCS Opposite-Spin Energy  =      -1.4065360091818537 [Eh]
	 SCS Correlation Energy    =      -1.5281607188971686 [Eh]
	 SCS Total Energy          =    -382.2956960185630919 [Eh]
	-----------------------------------------------------------

  Dipole Moment: [D]
     X:    -0.4819      Y:    -1.4685      Z:     1.7160     Total:     2.3094

*** Psi4 exiting successfully. Buy a developer a beer!
