                               Psi4 1.3.2 release

  ==> Input File <==

--------------------------------------------------------------------------
#psi4
#
memory 32 gb

molecule  {
0 1
  O        0.8013680    -0.3194430    -0.6593080
  O       -0.4181219    -0.7876956    -0.2735926
  O       -1.0728670     1.3987690    -0.0973370
  C        1.6031630    -0.2426310     0.5338170
  C        2.9657370     0.2196450     0.0595640
  C       -1.3789950     0.2279050    -0.0301100
  C       -2.7361800    -0.3473490     0.2635940
  H        1.1531750     0.4718980     1.2294250
  H        1.6470430    -1.2298650     1.0038120
  H        3.6380680     0.2976270     0.9176960
  H        3.3895360    -0.4934290    -0.6504970
  H        2.8952950     1.1995690    -0.4169390
  H       -3.2299570    -0.5922870    -0.6804890
  H       -2.6567000    -1.2579100     0.8585660
  H       -3.3255750     0.4009600     0.7925810
units angstrom
no_reorient  #important for SAPT in psi4, default
symmetry c1  #important for SAPT in psi4, default
}

set PROPERTIES_ORIGIN ["COM"]
properties('MP2/aug-cc-pvtz', properties = ['dipole'])
--------------------------------------------------------------------------

    Molecular point group: c1
  Charge       = 0
  Multiplicity = 1
  Basis Set: AUG-CC-PVTZ
    Blend: AUG-CC-PVTZ
  Basis Set: (AUG-CC-PVTZ AUX)
    Blend: AUG-CC-PVTZ-JKFIT

    Orbital Energies [Eh]
    ---------------------

    Doubly Occupied:

       1A    -20.647623     2A    -20.629151     3A    -20.559026
       4A    -11.397172     5A    -11.285526     6A    -11.258740
       7A    -11.223156     8A     -1.538455     9A     -1.398323
      10A     -1.239555    11A     -1.038508    12A     -1.003576
      13A     -0.856862    14A     -0.801311    15A     -0.714153
      16A     -0.699543    17A     -0.680914    18A     -0.641122
      19A     -0.616117    20A     -0.603841    21A     -0.587781
      22A     -0.548482    23A     -0.530044    24A     -0.527599
      25A     -0.516261    26A     -0.475620    27A     -0.465508
      28A     -0.442406

  @DF-RHF Final Energy:  -380.77004249130727

   => Energetics <=

    Nuclear Repulsion Energy =            317.4907823251833747
    One-Electron Energy =               -1150.6689029490082703
    Two-Electron Energy =                 452.4080781325176872
    Total Energy =                       -380.7700424913072652
  Basis Set: (AUG-CC-PVTZ AUX)
    Blend: AUG-CC-PVTZ-RI
    Molecular point group: c1

    Geometry (in Angstrom), charge = 0, multiplicity = 1:

       Center              X                  Y                   Z               Mass
    ------------   -----------------  -----------------  -----------------  -----------------
         O            0.821045288685    -0.336191043210    -0.625879673519    15.994914619570
         O           -0.398444611315    -0.804443643210    -0.240164273519    15.994914619570
         O           -1.053189711315     1.382020956790    -0.063908673519    15.994914619570
         C            1.622840288685    -0.259379043210     0.567245326481    12.000000000000
         C            2.985414288685     0.202896956790     0.092992326481    12.000000000000
         C           -1.359317711315     0.211156956790     0.003318326481    12.000000000000
         C           -2.716502711315    -0.364097043210     0.297022326481    12.000000000000
         H            1.172852288685     0.455149956790     1.262853326481     1.007825032230
         H            1.666720288685    -1.246613043210     1.037240326481     1.007825032230
         H            3.657745288685     0.280878956790     0.951124326481     1.007825032230
         H            3.409213288685    -0.510177043210    -0.617068673519     1.007825032230
         H            2.914972288685     1.182820956790    -0.383510673519     1.007825032230
         H           -3.210279711315    -0.609035043210    -0.647060673519     1.007825032230
         H           -2.637022711315    -1.274658043210     0.891994326481     1.007825032230
         H           -3.305897711315     0.384211956790     0.826009326481     1.007825032230

  Basis Set: AUG-CC-PVTZ
    Blend: AUG-CC-PVTZ
  Basis Set: (AUG-CC-PVTZ AUX)
    Blend: AUG-CC-PVTZ-JKFIT
	 Reference Energy          =    -380.7700424913072652 [Eh]
	 Singles Energy            =      -0.0000000000000000 [Eh]
	 Same-Spin Energy          =      -0.3635137698653103 [Eh]
	 Opposite-Spin Energy      =      -1.1669052615372566 [Eh]
	 Correlation Energy        =      -1.5304190314025670 [Eh]
	 Total Energy              =    -382.3004615227098384 [Eh]

	 ================> DF-SCS-MP2 Energies <==================
	-----------------------------------------------------------
	 SCS Same-Spin Scale       =       0.3333333333333333 [-]
	 SCS Opposite-Spin Scale   =       1.2000000000000000 [-]
	 SCS Same-Spin Energy      =      -0.1211712566217701 [Eh]
	 SCS Opposite-Spin Energy  =      -1.4002863138447079 [Eh]
	 SCS Correlation Energy    =      -1.5214575704664781 [Eh]
	 SCS Total Energy          =    -382.2915000617737178 [Eh]
	-----------------------------------------------------------

  Dipole Moment: [D]
     X:    -0.5226      Y:    -1.4719      Z:     1.6959     Total:     2.3056

*** Psi4 exiting successfully. Buy a developer a beer!
