                               Psi4 1.3.2 release

  ==> Input File <==

--------------------------------------------------------------------------
#psi4
#
memory 32 gb

molecule  {
0 1
  O        0.8013680    -0.3194430    -0.6593080
  O       -0.5076550    -0.8220740    -0.2452740
  O       -1.0728670     1.3987690    -0.0973370
  C        1.6031630    -0.2426310     0.5338170
  C        2.9657370     0.2196450     0.0595640
  C       -1.3748096     0.2305834    -0.0043522
  C       -2.7361800    -0.3473490     0.2635940
  H        1.1531750     0.4718980     1.2294250
  H        1.6470430    -1.2298650     1.0038120
  H        3.6380680     0.2976270     0.9176960
  H        3.3895360    -0.4934290    -0.6504970
  H        2.8952950     1.1995690    -0.4169390
  H       -3.2299570    -0.5922870    -0.6804890
  H       -2.6567000    -1.2579100     0.8585660
  H       -3.3255750     0.4009600     0.7925810
units angstrom
no_reorient  #important for SAPT in psi4, default
symmetry c1  #important for SAPT in psi4, default
}

set PROPERTIES_ORIGIN ["COM"]
properties('MP2/aug-cc-pvtz', properties = ['dipole'])
--------------------------------------------------------------------------

    Molecular point group: c1
  Charge       = 0
  Multiplicity = 1
  Basis Set: AUG-CC-PVTZ
    Blend: AUG-CC-PVTZ
  Basis Set: (AUG-CC-PVTZ AUX)
    Blend: AUG-CC-PVTZ-JKFIT

    Orbital Energies [Eh]
    ---------------------

    Doubly Occupied:

       1A    -20.655961     2A    -20.640002     3A    -20.556222
       4A    -11.393251     5A    -11.290082     6A    -11.252139
       7A    -11.227214     8A     -1.506464     9A     -1.392604
      10A     -1.266839    11A     -1.034565    12A     -1.004258
      13A     -0.853988    14A     -0.796055    15A     -0.707381
      16A     -0.693574    17A     -0.674809    18A     -0.644157
      19A     -0.616117    20A     -0.598249    21A     -0.582874
      22A     -0.548315    23A     -0.535409    24A     -0.533018
      25A     -0.512381    26A     -0.481027    27A     -0.468924
      28A     -0.452732

  @DF-RHF Final Energy:  -380.76864677170147

   => Energetics <=

    Nuclear Repulsion Energy =            316.0375863451414489
    One-Electron Energy =               -1147.7752388346382304
    Two-Electron Energy =                 450.9690057177953122
    Total Energy =                       -380.7686467717014693
  Basis Set: (AUG-CC-PVTZ AUX)
    Blend: AUG-CC-PVTZ-RI
    Molecular point group: c1

    Geometry (in Angstrom), charge = 0, multiplicity = 1:

       Center              X                  Y                   Z               Mass
    ------------   -----------------  -----------------  -----------------  -----------------
         O            0.834326257093    -0.331215051010    -0.633203716200    15.994914619570
         O           -0.474696742907    -0.833846051010    -0.219169716200    15.994914619570
         O           -1.039908742907     1.386996948990    -0.071232716200    15.994914619570
         C            1.636121257093    -0.254403051010     0.559921283800    12.000000000000
         C            2.998695257093     0.207872948990     0.085668283800    12.000000000000
         C           -1.341851342907     0.218811348990     0.021752083800    12.000000000000
         C           -2.703221742907    -0.359121051010     0.289698283800    12.000000000000
         H            1.186133257093     0.460125948990     1.255529283800     1.007825032230
         H            1.680001257093    -1.241637051010     1.029916283800     1.007825032230
         H            3.671026257093     0.285854948990     0.943800283800     1.007825032230
         H            3.422494257093    -0.505201051010    -0.624392716200     1.007825032230
         H            2.928253257093     1.187796948990    -0.390834716200     1.007825032230
         H           -3.196998742907    -0.604059051010    -0.654384716200     1.007825032230
         H           -2.623741742907    -1.269682051010     0.884670283800     1.007825032230
         H           -3.292616742907     0.389187948990     0.818685283800     1.007825032230

  Basis Set: AUG-CC-PVTZ
    Blend: AUG-CC-PVTZ
  Basis Set: (AUG-CC-PVTZ AUX)
    Blend: AUG-CC-PVTZ-JKFIT
	 Reference Energy          =    -380.7686467717014693 [Eh]
	 Singles Energy            =      -0.0000000000000000 [Eh]
	 Same-Spin Energy          =      -0.3647522581237361 [Eh]
	 Opposite-Spin Energy      =      -1.1722066637111239 [Eh]
	 Correlation Energy        =      -1.5369589218348600 [Eh]
	 Total Energy              =    -382.3056056935363358 [Eh]

	 ================> DF-SCS-MP2 Energies <==================
	-----------------------------------------------------------
	 SCS Same-Spin Scale       =       0.3333333333333333 [-]
	 SCS Opposite-Spin Scale   =       1.2000000000000000 [-]
	 SCS Same-Spin Energy      =      -0.1215840860412454 [Eh]
	 SCS Opposite-Spin Energy  =      -1.4066479964533487 [Eh]
	 SCS Correlation Energy    =      -1.5282320824945941 [Eh]
	 SCS Total Energy          =    -382.2968788541960521 [Eh]
	-----------------------------------------------------------

  Dipole Moment: [D]
     X:    -0.2469      Y:    -1.4840      Z:     1.7056     Total:     2.2742

*** Psi4 exiting successfully. Buy a developer a beer!
