                               Psi4 1.3.2 release

  ==> Input File <==

--------------------------------------------------------------------------
#psi4
#
memory 32 gb

molecule  {
0 1
  O        0.8013680    -0.3194430    -0.6593080
  O       -0.5076550    -0.8220740    -0.2452740
  O       -1.0728670     1.3987690    -0.0973370
  C        1.6031630    -0.2426310     0.5338170
  C        2.9657370     0.2196450     0.0595640
  C       -1.4420762     0.3039189    -0.0145331
  C       -2.7361800    -0.3473490     0.2635940
  H        1.1531750     0.4718980     1.2294250
  H        1.6470430    -1.2298650     1.0038120
  H        3.6380680     0.2976270     0.9176960
  H        3.3895360    -0.4934290    -0.6504970
  H        2.8952950     1.1995690    -0.4169390
  H       -3.2299570    -0.5922870    -0.6804890
  H       -2.6567000    -1.2579100     0.8585660
  H       -3.3255750     0.4009600     0.7925810
units angstrom
no_reorient  #important for SAPT in psi4, default
symmetry c1  #important for SAPT in psi4, default
}

set PROPERTIES_ORIGIN ["COM"]
properties('MP2/aug-cc-pvtz', properties = ['dipole'])
--------------------------------------------------------------------------

    Molecular point group: c1
  Charge       = 0
  Multiplicity = 1
  Basis Set: AUG-CC-PVTZ
    Blend: AUG-CC-PVTZ
  Basis Set: (AUG-CC-PVTZ AUX)
    Blend: AUG-CC-PVTZ-JKFIT

    Orbital Energies [Eh]
    ---------------------

    Doubly Occupied:

       1A    -20.631893     2A    -20.623003     3A    -20.574923
       4A    -11.394656     5A    -11.281391     6A    -11.257916
       7A    -11.221010     8A     -1.487655     9A     -1.427152
      10A     -1.234936    11A     -1.042009    12A     -1.001342
      13A     -0.843867    14A     -0.781765    15A     -0.713109
      16A     -0.688555    17A     -0.665600    18A     -0.649321
      19A     -0.620654    20A     -0.603671    21A     -0.582949
      22A     -0.547483    23A     -0.536407    24A     -0.529176
      25A     -0.502573    26A     -0.478008    27A     -0.473827
      28A     -0.441293

  @DF-RHF Final Energy:  -380.75982218891232

   => Energetics <=

    Nuclear Repulsion Energy =            315.4310234517817548
    One-Electron Energy =               -1146.7094059085791287
    Two-Electron Energy =                 450.5185602678849932
    Total Energy =                       -380.7598221889123238
  Basis Set: (AUG-CC-PVTZ AUX)
    Blend: AUG-CC-PVTZ-RI
    Molecular point group: c1

    Geometry (in Angstrom), charge = 0, multiplicity = 1:

       Center              X                  Y                   Z               Mass
    ------------   -----------------  -----------------  -----------------  -----------------
         O            0.842084256173    -0.339672989148    -0.632029531496    15.994914619570
         O           -0.466938743827    -0.842303989148    -0.217995531496    15.994914619570
         O           -1.032150743827     1.378539010852    -0.070058531496    15.994914619570
         C            1.643879256173    -0.262860989148     0.561095468504    12.000000000000
         C            3.006453256173     0.199415010852     0.086842468504    12.000000000000
         C           -1.401359943827     0.283688910852     0.012745368504    12.000000000000
         C           -2.695463743827    -0.367578989148     0.290872468504    12.000000000000
         H            1.193891256173     0.451668010852     1.256703468504     1.007825032230
         H            1.687759256173    -1.250094989148     1.031090468504     1.007825032230
         H            3.678784256173     0.277397010852     0.944974468504     1.007825032230
         H            3.430252256173    -0.513658989148    -0.623218531496     1.007825032230
         H            2.936011256173     1.179339010852    -0.389660531496     1.007825032230
         H           -3.189240743827    -0.612516989148    -0.653210531496     1.007825032230
         H           -2.615983743827    -1.278139989148     0.885844468504     1.007825032230
         H           -3.284858743827     0.380730010852     0.819859468504     1.007825032230

  Basis Set: AUG-CC-PVTZ
    Blend: AUG-CC-PVTZ
  Basis Set: (AUG-CC-PVTZ AUX)
    Blend: AUG-CC-PVTZ-JKFIT
	 Reference Energy          =    -380.7598221889123238 [Eh]
	 Singles Energy            =      -0.0000000000000000 [Eh]
	 Same-Spin Energy          =      -0.3650392077507937 [Eh]
	 Opposite-Spin Energy      =      -1.1729072253870201 [Eh]
	 Correlation Energy        =      -1.5379464331378139 [Eh]
	 Total Energy              =    -382.2977686220501141 [Eh]

	 ================> DF-SCS-MP2 Energies <==================
	-----------------------------------------------------------
	 SCS Same-Spin Scale       =       0.3333333333333333 [-]
	 SCS Opposite-Spin Scale   =       1.2000000000000000 [-]
	 SCS Same-Spin Energy      =      -0.1216797359169312 [Eh]
	 SCS Opposite-Spin Energy  =      -1.4074886704644241 [Eh]
	 SCS Correlation Energy    =      -1.5291684063813553 [Eh]
	 SCS Total Energy          =    -382.2889905952936829 [Eh]
	-----------------------------------------------------------

  Dipole Moment: [D]
     X:    -0.9559      Y:    -0.9220      Z:     1.7654     Total:     2.2092

*** Psi4 exiting successfully. Buy a developer a beer!
