                               Psi4 1.3.2 release

  ==> Input File <==

--------------------------------------------------------------------------
#psi4
#
memory 32 gb

molecule  {
0 1
  O        0.8013680    -0.3194430    -0.6593080
  O       -0.5368078    -0.8162042    -0.3428950
  O       -1.0728670     1.3987690    -0.0973370
  C        1.6031630    -0.2426310     0.5338170
  C        2.9657370     0.2196450     0.0595640
  C       -1.3789950     0.2279050    -0.0301100
  C       -2.7361800    -0.3473490     0.2635940
  H        1.1531750     0.4718980     1.2294250
  H        1.6470430    -1.2298650     1.0038120
  H        3.6380680     0.2976270     0.9176960
  H        3.3895360    -0.4934290    -0.6504970
  H        2.8952950     1.1995690    -0.4169390
  H       -3.2299570    -0.5922870    -0.6804890
  H       -2.6567000    -1.2579100     0.8585660
  H       -3.3255750     0.4009600     0.7925810
units angstrom
no_reorient  #important for SAPT in psi4, default
symmetry c1  #important for SAPT in psi4, default
}

set PROPERTIES_ORIGIN ["COM"]
properties('MP2/aug-cc-pvtz', properties = ['dipole'])
--------------------------------------------------------------------------

    Molecular point group: c1
  Charge       = 0
  Multiplicity = 1
  Basis Set: AUG-CC-PVTZ
    Blend: AUG-CC-PVTZ
  Basis Set: (AUG-CC-PVTZ AUX)
    Blend: AUG-CC-PVTZ-JKFIT

    Orbital Energies [Eh]
    ---------------------

    Doubly Occupied:

       1A    -20.657689     2A    -20.638052     3A    -20.555014
       4A    -11.392637     5A    -11.291493     6A    -11.251811
       7A    -11.228639     8A     -1.506470     9A     -1.390267
      10A     -1.269386    11A     -1.035679    12A     -1.004021
      13A     -0.855458    14A     -0.795233    15A     -0.706830
      16A     -0.694256    17A     -0.674976    18A     -0.645451
      19A     -0.614740    20A     -0.598738    21A     -0.583456
      22A     -0.547992    23A     -0.536699    24A     -0.533355
      25A     -0.512761    26A     -0.476986    27A     -0.470235
      28A     -0.452246

  @DF-RHF Final Energy:  -380.76816350274606

   => Energetics <=

    Nuclear Repulsion Energy =            315.6965153595140237
    One-Electron Energy =               -1147.0882145878176743
    Two-Electron Energy =                 450.6235357255575877
    Total Energy =                       -380.7681635027460629
  Basis Set: (AUG-CC-PVTZ AUX)
    Blend: AUG-CC-PVTZ-RI
    Molecular point group: c1

    Geometry (in Angstrom), charge = 0, multiplicity = 1:

       Center              X                  Y                   Z               Mass
    ------------   -----------------  -----------------  -----------------  -----------------
         O            0.839290548602    -0.331808493835    -0.615226004458    15.994914619570
         O           -0.498885251398    -0.828569693835    -0.298813004458    15.994914619570
         O           -1.034944451398     1.386403506165    -0.053255004458    15.994914619570
         C            1.641085548602    -0.254996493835     0.577898995542    12.000000000000
         C            3.003659548602     0.207279506165     0.103645995542    12.000000000000
         C           -1.341072451398     0.215539506165     0.013971995542    12.000000000000
         C           -2.698257451398    -0.359714493835     0.307675995542    12.000000000000
         H            1.191097548602     0.459532506165     1.273506995542     1.007825032230
         H            1.684965548602    -1.242230493835     1.047893995542     1.007825032230
         H            3.675990548602     0.285261506165     0.961777995542     1.007825032230
         H            3.427458548602    -0.505794493835    -0.606415004458     1.007825032230
         H            2.933217548602     1.187203506165    -0.372857004458     1.007825032230
         H           -3.192034451398    -0.604652493835    -0.636407004458     1.007825032230
         H           -2.618777451398    -1.270275493835     0.902647995542     1.007825032230
         H           -3.287652451398     0.388594506165     0.836662995542     1.007825032230

  Basis Set: AUG-CC-PVTZ
    Blend: AUG-CC-PVTZ
  Basis Set: (AUG-CC-PVTZ AUX)
    Blend: AUG-CC-PVTZ-JKFIT
	 Reference Energy          =    -380.7681635027460629 [Eh]
	 Singles Energy            =      -0.0000000000000000 [Eh]
	 Same-Spin Energy          =      -0.3645528543379493 [Eh]
	 Opposite-Spin Energy      =      -1.1716767276244047 [Eh]
	 Correlation Energy        =      -1.5362295819623539 [Eh]
	 Total Energy              =    -382.3043930847084084 [Eh]

	 ================> DF-SCS-MP2 Energies <==================
	-----------------------------------------------------------
	 SCS Same-Spin Scale       =       0.3333333333333333 [-]
	 SCS Opposite-Spin Scale   =       1.2000000000000000 [-]
	 SCS Same-Spin Energy      =      -0.1215176181126498 [Eh]
	 SCS Opposite-Spin Energy  =      -1.4060120731492856 [Eh]
	 SCS Correlation Energy    =      -1.5275296912619354 [Eh]
	 SCS Total Energy          =    -382.2956931940079812 [Eh]
	-----------------------------------------------------------

  Dipole Moment: [D]
     X:    -0.1881      Y:    -1.5113      Z:     1.7592     Total:     2.3268

*** Psi4 exiting successfully. Buy a developer a beer!
