                               Psi4 1.3.2 release

  ==> Input File <==

--------------------------------------------------------------------------
#psi4
#
memory 32 gb

molecule  {
0 1
  O        0.7828368    -0.4656505    -0.6279273
  O       -0.5076550    -0.8220740    -0.2452740
  O       -1.0728670     1.3987690    -0.0973370
  C        1.6031630    -0.2426310     0.5338170
  C        2.9657370     0.2196450     0.0595640
  C       -1.3789950     0.2279050    -0.0301100
  C       -2.7361800    -0.3473490     0.2635940
  H        1.1531750     0.4718980     1.2294250
  H        1.6470430    -1.2298650     1.0038120
  H        3.6380680     0.2976270     0.9176960
  H        3.3895360    -0.4934290    -0.6504970
  H        2.8952950     1.1995690    -0.4169390
  H       -3.2299570    -0.5922870    -0.6804890
  H       -2.6567000    -1.2579100     0.8585660
  H       -3.3255750     0.4009600     0.7925810
units angstrom
no_reorient  #important for SAPT in psi4, default
symmetry c1  #important for SAPT in psi4, default
}

set PROPERTIES_ORIGIN ["COM"]
properties('MP2/aug-cc-pvtz', properties = ['dipole'])
--------------------------------------------------------------------------

    Molecular point group: c1
  Charge       = 0
  Multiplicity = 1
  Basis Set: AUG-CC-PVTZ
    Blend: AUG-CC-PVTZ
  Basis Set: (AUG-CC-PVTZ AUX)
    Blend: AUG-CC-PVTZ-JKFIT

    Orbital Energies [Eh]
    ---------------------

    Doubly Occupied:

       1A    -20.655584     2A    -20.633128     3A    -20.557191
       4A    -11.394917     5A    -11.289129     6A    -11.252986
       7A    -11.228228     8A     -1.531240     9A     -1.396376
      10A     -1.259111    11A     -1.038712    12A     -1.003877
      13A     -0.860657    14A     -0.801153    15A     -0.712351
      16A     -0.700126    17A     -0.682337    18A     -0.644087
      19A     -0.612018    20A     -0.601279    21A     -0.585742
      22A     -0.551160    23A     -0.538623    24A     -0.530537
      25A     -0.517372    26A     -0.473805    27A     -0.469088
      28A     -0.446000

  @DF-RHF Final Energy:  -380.77172182388807

   => Energetics <=

    Nuclear Repulsion Energy =            316.5783915776073059
    One-Electron Energy =               -1148.7665985285357237
    Two-Electron Energy =                 451.4164851270402892
    Total Energy =                       -380.7717218238880719
  Basis Set: (AUG-CC-PVTZ AUX)
    Blend: AUG-CC-PVTZ-RI
    Molecular point group: c1

    Geometry (in Angstrom), charge = 0, multiplicity = 1:

       Center              X                  Y                   Z               Mass
    ------------   -----------------  -----------------  -----------------  -----------------
         O            0.819126518984    -0.454637565008    -0.603676384192    15.994914619570
         O           -0.471365281016    -0.811061065008    -0.221023084192    15.994914619570
         O           -1.036577281016     1.409781934992    -0.073086084192    15.994914619570
         C            1.639452718984    -0.231618065008     0.558067915808    12.000000000000
         C            3.002026718984     0.230657934992     0.083814915808    12.000000000000
         C           -1.342705281016     0.238917934992    -0.005859084192    12.000000000000
         C           -2.699890281016    -0.336336065008     0.287844915808    12.000000000000
         H            1.189464718984     0.482910934992     1.253675915808     1.007825032230
         H            1.683332718984    -1.218852065008     1.028062915808     1.007825032230
         H            3.674357718984     0.308639934992     0.941946915808     1.007825032230
         H            3.425825718984    -0.482416065008    -0.626246084192     1.007825032230
         H            2.931584718984     1.210581934992    -0.392688084192     1.007825032230
         H           -3.193667281016    -0.581274065008    -0.656238084192     1.007825032230
         H           -2.620410281016    -1.246897065008     0.882816915808     1.007825032230
         H           -3.289285281016     0.411972934992     0.816831915808     1.007825032230

  Basis Set: AUG-CC-PVTZ
    Blend: AUG-CC-PVTZ
  Basis Set: (AUG-CC-PVTZ AUX)
    Blend: AUG-CC-PVTZ-JKFIT
	 Reference Energy          =    -380.7717218238880719 [Eh]
	 Singles Energy            =      -0.0000000000000000 [Eh]
	 Same-Spin Energy          =      -0.3633233434191171 [Eh]
	 Opposite-Spin Energy      =      -1.1670527029860813 [Eh]
	 Correlation Energy        =      -1.5303760464051983 [Eh]
	 Total Energy              =    -382.3020978702932666 [Eh]

	 ================> DF-SCS-MP2 Energies <==================
	-----------------------------------------------------------
	 SCS Same-Spin Scale       =       0.3333333333333333 [-]
	 SCS Opposite-Spin Scale   =       1.2000000000000000 [-]
	 SCS Same-Spin Energy      =      -0.1211077811397057 [Eh]
	 SCS Opposite-Spin Energy  =      -1.4004632435832975 [Eh]
	 SCS Correlation Energy    =      -1.5215710247230032 [Eh]
	 SCS Total Energy          =    -382.2932928486110882 [Eh]
	-----------------------------------------------------------

  Dipole Moment: [D]
     X:    -0.2169      Y:    -1.3546      Z:     1.6575     Total:     2.1515

*** Psi4 exiting successfully. Buy a developer a beer!
