                               Psi4 1.3.2 release

  ==> Input File <==

--------------------------------------------------------------------------
#psi4
#
memory 32 gb

molecule  {
0 1
  O        0.8186190    -0.2214043    -0.6729815
  O       -0.5076550    -0.8220740    -0.2452740
  O       -1.0728670     1.3987690    -0.0973370
  C        1.6031630    -0.2426310     0.5338170
  C        2.9657370     0.2196450     0.0595640
  C       -1.3789950     0.2279050    -0.0301100
  C       -2.7361800    -0.3473490     0.2635940
  H        1.1531750     0.4718980     1.2294250
  H        1.6470430    -1.2298650     1.0038120
  H        3.6380680     0.2976270     0.9176960
  H        3.3895360    -0.4934290    -0.6504970
  H        2.8952950     1.1995690    -0.4169390
  H       -3.2299570    -0.5922870    -0.6804890
  H       -2.6567000    -1.2579100     0.8585660
  H       -3.3255750     0.4009600     0.7925810
units angstrom
no_reorient  #important for SAPT in psi4, default
symmetry c1  #important for SAPT in psi4, default
}

set PROPERTIES_ORIGIN ["COM"]
properties('MP2/aug-cc-pvtz', properties = ['dipole'])
--------------------------------------------------------------------------

    Molecular point group: c1
  Charge       = 0
  Multiplicity = 1
  Basis Set: AUG-CC-PVTZ
    Blend: AUG-CC-PVTZ
  Basis Set: (AUG-CC-PVTZ AUX)
    Blend: AUG-CC-PVTZ-JKFIT

    Orbital Energies [Eh]
    ---------------------

    Doubly Occupied:

       1A    -20.656330     2A    -20.646682     3A    -20.553467
       4A    -11.391819     5A    -11.291274     6A    -11.251042
       7A    -11.226992     8A     -1.492189     9A     -1.386637
      10A     -1.275061    11A     -1.031902    12A     -1.004807
      13A     -0.851947    14A     -0.792071    15A     -0.704721
      16A     -0.688018    17A     -0.671399    18A     -0.644275
      19A     -0.617494    20A     -0.595838    21A     -0.581242
      22A     -0.546728    23A     -0.535617    24A     -0.535243
      25A     -0.506338    26A     -0.486916    27A     -0.466448
      28A     -0.453838

  @DF-RHF Final Energy:  -380.76001894067662

   => Energetics <=

    Nuclear Repulsion Energy =            315.5688830392188038
    One-Electron Energy =               -1146.8851370523207152
    Two-Electron Energy =                 450.5562350724252951
    Total Energy =                       -380.7600189406766162
  Basis Set: (AUG-CC-PVTZ AUX)
    Blend: AUG-CC-PVTZ-RI
    Molecular point group: c1

    Geometry (in Angstrom), charge = 0, multiplicity = 1:

       Center              X                  Y                   Z               Mass
    ------------   -----------------  -----------------  -----------------  -----------------
         O            0.849408018906    -0.247938667617    -0.641804524826    15.994914619570
         O           -0.476865981094    -0.848608367617    -0.214097024826    15.994914619570
         O           -1.042077981094     1.372234632383    -0.066160024826    15.994914619570
         C            1.633952018906    -0.269165367617     0.564993975174    12.000000000000
         C            2.996526018906     0.193110632383     0.090740975174    12.000000000000
         C           -1.348205981094     0.201370632383     0.001066975174    12.000000000000
         C           -2.705390981094    -0.373883367617     0.294770975174    12.000000000000
         H            1.183964018906     0.445363632383     1.260601975174     1.007825032230
         H            1.677832018906    -1.256399367617     1.034988975174     1.007825032230
         H            3.668857018906     0.271092632383     0.948872975174     1.007825032230
         H            3.420325018906    -0.519963367617    -0.619320024826     1.007825032230
         H            2.926084018906     1.173034632383    -0.385762024826     1.007825032230
         H           -3.199167981094    -0.618821367617    -0.649312024826     1.007825032230
         H           -2.625910981094    -1.284444367617     0.889742975174     1.007825032230
         H           -3.294785981094     0.374425632383     0.823757975174     1.007825032230

  Basis Set: AUG-CC-PVTZ
    Blend: AUG-CC-PVTZ
  Basis Set: (AUG-CC-PVTZ AUX)
    Blend: AUG-CC-PVTZ-JKFIT
	 Reference Energy          =    -380.7600189406766162 [Eh]
	 Singles Energy            =      -0.0000000000000000 [Eh]
	 Same-Spin Energy          =      -0.3660161084430870 [Eh]
	 Opposite-Spin Energy      =      -1.1764447520682380 [Eh]
	 Correlation Energy        =      -1.5424608605113250 [Eh]
	 Total Energy              =    -382.3024798011879284 [Eh]

	 ================> DF-SCS-MP2 Energies <==================
	-----------------------------------------------------------
	 SCS Same-Spin Scale       =       0.3333333333333333 [-]
	 SCS Opposite-Spin Scale   =       1.2000000000000000 [-]
	 SCS Same-Spin Energy      =      -0.1220053694810290 [Eh]
	 SCS Opposite-Spin Energy  =      -1.4117337024818855 [Eh]
	 SCS Correlation Energy    =      -1.5337390719629145 [Eh]
	 SCS Total Energy          =    -382.2937580126395574 [Eh]
	-----------------------------------------------------------

  Dipole Moment: [D]
     X:    -0.2639      Y:    -1.6064      Z:     1.6854     Total:     2.3432

*** Psi4 exiting successfully. Buy a developer a beer!
