                               Psi4 1.3.2 release

  ==> Input File <==

--------------------------------------------------------------------------
#psi4
#
memory 32 gb

molecule  {
0 1
  O        0.7880233    -0.4171075    -0.6398217
  O       -0.5076550    -0.8220740    -0.2452740
  O       -1.0728670     1.3987690    -0.0973370
  C        1.6031630    -0.2426310     0.5338170
  C        2.9657370     0.2196450     0.0595640
  C       -1.3789950     0.2279050    -0.0301100
  C       -2.7361800    -0.3473490     0.2635940
  H        1.1531750     0.4718980     1.2294250
  H        1.6470430    -1.2298650     1.0038120
  H        3.6380680     0.2976270     0.9176960
  H        3.3895360    -0.4934290    -0.6504970
  H        2.8952950     1.1995690    -0.4169390
  H       -3.2299570    -0.5922870    -0.6804890
  H       -2.6567000    -1.2579100     0.8585660
  H       -3.3255750     0.4009600     0.7925810
units angstrom
no_reorient  #important for SAPT in psi4, default
symmetry c1  #important for SAPT in psi4, default
}

set PROPERTIES_ORIGIN ["COM"]
properties('MP2/aug-cc-pvtz', properties = ['dipole'])
--------------------------------------------------------------------------

    Molecular point group: c1
  Charge       = 0
  Multiplicity = 1
  Basis Set: AUG-CC-PVTZ
    Blend: AUG-CC-PVTZ
  Basis Set: (AUG-CC-PVTZ AUX)
    Blend: AUG-CC-PVTZ-JKFIT

    Orbital Energies [Eh]
    ---------------------

    Doubly Occupied:

       1A    -20.656162     2A    -20.635298     3A    -20.556642
       4A    -11.394363     5A    -11.289409     6A    -11.252682
       7A    -11.227884     8A     -1.523429     9A     -1.394739
      10A     -1.261780    11A     -1.037349    12A     -1.003968
      13A     -0.857989    14A     -0.800171    15A     -0.710556
      16A     -0.698251    17A     -0.680085    18A     -0.644069
      19A     -0.612974    20A     -0.600699    21A     -0.584872
      22A     -0.549928    23A     -0.537468    24A     -0.531229
      25A     -0.516276    26A     -0.473831    27A     -0.471241
      28A     -0.448779

  @DF-RHF Final Energy:  -380.77235652826869

   => Energetics <=

    Nuclear Repulsion Energy =            316.4258326031709885
    One-Electron Energy =               -1148.4921291688378915
    Two-Electron Energy =                 451.2939400373982153
    Total Energy =                       -380.7723565282686877
  Basis Set: (AUG-CC-PVTZ AUX)
    Blend: AUG-CC-PVTZ-RI
    Molecular point group: c1

    Geometry (in Angstrom), charge = 0, multiplicity = 1:

       Center              X                  Y                   Z               Mass
    ------------   -----------------  -----------------  -----------------  -----------------
         O            0.823515712475    -0.413556948089    -0.613742290499    15.994914619570
         O           -0.472162587525    -0.818523448089    -0.219194590499    15.994914619570
         O           -1.037374587525     1.402319551911    -0.071257590499    15.994914619570
         C            1.638655412475    -0.239080448089     0.559896409501    12.000000000000
         C            3.001229412475     0.223195551911     0.085643409501    12.000000000000
         C           -1.343502587525     0.231455551911    -0.004030590499    12.000000000000
         C           -2.700687587525    -0.343798448089     0.289673409501    12.000000000000
         H            1.188667412475     0.475448551911     1.255504409501     1.007825032230
         H            1.682535412475    -1.226314448089     1.029891409501     1.007825032230
         H            3.673560412475     0.301177551911     0.943775409501     1.007825032230
         H            3.425028412475    -0.489878448089    -0.624417590499     1.007825032230
         H            2.930787412475     1.203119551911    -0.390859590499     1.007825032230
         H           -3.194464587525    -0.588736448089    -0.654409590499     1.007825032230
         H           -2.621207587525    -1.254359448089     0.884645409501     1.007825032230
         H           -3.290082587525     0.404510551911     0.818660409501     1.007825032230

  Basis Set: AUG-CC-PVTZ
    Blend: AUG-CC-PVTZ
  Basis Set: (AUG-CC-PVTZ AUX)
    Blend: AUG-CC-PVTZ-JKFIT
	 Reference Energy          =    -380.7723565282686877 [Eh]
	 Singles Energy            =      -0.0000000000000000 [Eh]
	 Same-Spin Energy          =      -0.3636999222152508 [Eh]
	 Opposite-Spin Energy      =      -1.1684894512246671 [Eh]
	 Correlation Energy        =      -1.5321893734399179 [Eh]
	 Total Energy              =    -382.3045459017085932 [Eh]

	 ================> DF-SCS-MP2 Energies <==================
	-----------------------------------------------------------
	 SCS Same-Spin Scale       =       0.3333333333333333 [-]
	 SCS Opposite-Spin Scale   =       1.2000000000000000 [-]
	 SCS Same-Spin Energy      =      -0.1212333074050836 [Eh]
	 SCS Opposite-Spin Energy  =      -1.4021873414696004 [Eh]
	 SCS Correlation Energy    =      -1.5234206488746840 [Eh]
	 SCS Total Energy          =    -382.2957771771433499 [Eh]
	-----------------------------------------------------------

  Dipole Moment: [D]
     X:    -0.2226      Y:    -1.4059      Z:     1.6672     Total:     2.1922

*** Psi4 exiting successfully. Buy a developer a beer!
