                               Psi4 1.3.2 release

  ==> Input File <==

--------------------------------------------------------------------------
#psi4
#
memory 32 gb

molecule  {
0 1
  O        0.8013680    -0.3194430    -0.6593080
  O       -0.5155472    -0.8208352    -0.2695086
  O       -1.0728670     1.3987690    -0.0973370
  C        1.6031630    -0.2426310     0.5338170
  C        2.9657370     0.2196450     0.0595640
  C       -1.3789950     0.2279050    -0.0301100
  C       -2.7361800    -0.3473490     0.2635940
  H        1.1531750     0.4718980     1.2294250
  H        1.6470430    -1.2298650     1.0038120
  H        3.6380680     0.2976270     0.9176960
  H        3.3895360    -0.4934290    -0.6504970
  H        2.8952950     1.1995690    -0.4169390
  H       -3.2299570    -0.5922870    -0.6804890
  H       -2.6567000    -1.2579100     0.8585660
  H       -3.3255750     0.4009600     0.7925810
units angstrom
no_reorient  #important for SAPT in psi4, default
symmetry c1  #important for SAPT in psi4, default
}

set PROPERTIES_ORIGIN ["COM"]
properties('MP2/aug-cc-pvtz', properties = ['dipole'])
--------------------------------------------------------------------------

    Molecular point group: c1
  Charge       = 0
  Multiplicity = 1
  Basis Set: AUG-CC-PVTZ
    Blend: AUG-CC-PVTZ
  Basis Set: (AUG-CC-PVTZ AUX)
    Blend: AUG-CC-PVTZ-JKFIT

    Orbital Energies [Eh]
    ---------------------

    Doubly Occupied:

       1A    -20.657073     2A    -20.640023     3A    -20.555002
       4A    -11.392926     5A    -11.290537     6A    -11.251839
       7A    -11.227703     8A     -1.507477     9A     -1.390702
      10A     -1.268654    11A     -1.034895    12A     -1.004212
      13A     -0.854406    14A     -0.796579    15A     -0.707261
      16A     -0.693766    17A     -0.675569    18A     -0.644500
      19A     -0.615087    20A     -0.598618    21A     -0.583152
      22A     -0.548061    23A     -0.535947    24A     -0.533064
      25A     -0.512739    26A     -0.480275    27A     -0.468679
      28A     -0.452566

  @DF-RHF Final Energy:  -380.76923522808283

   => Energetics <=

    Nuclear Repulsion Energy =            315.9696261120686813
    One-Electron Energy =               -1147.6351007477053372
    Two-Electron Energy =                 450.8962394075538214
    Total Energy =                       -380.7692352280828345
  Basis Set: (AUG-CC-PVTZ AUX)
    Blend: AUG-CC-PVTZ-RI
    Molecular point group: c1

    Geometry (in Angstrom), charge = 0, multiplicity = 1:

       Center              X                  Y                   Z               Mass
    ------------   -----------------  -----------------  -----------------  -----------------
         O            0.836022214512    -0.331096582827    -0.626507495708    15.994914619570
         O           -0.480892985488    -0.832488782827    -0.236708095708    15.994914619570
         O           -1.038212785488     1.387115417173    -0.064536495708    15.994914619570
         C            1.637817214512    -0.254284582827     0.566617504292    12.000000000000
         C            3.000391214512     0.207991417173     0.092364504292    12.000000000000
         C           -1.344340785488     0.216251417173     0.002690504292    12.000000000000
         C           -2.701525785488    -0.359002582827     0.296394504292    12.000000000000
         H            1.187829214512     0.460244417173     1.262225504292     1.007825032230
         H            1.681697214512    -1.241518582827     1.036612504292     1.007825032230
         H            3.672722214512     0.285973417173     0.950496504292     1.007825032230
         H            3.424190214512    -0.505082582827    -0.617696495708     1.007825032230
         H            2.929949214512     1.187915417173    -0.384138495708     1.007825032230
         H           -3.195302785488    -0.603940582827    -0.647688495708     1.007825032230
         H           -2.622045785488    -1.269563582827     0.891366504292     1.007825032230
         H           -3.290920785488     0.389306417173     0.825381504292     1.007825032230

  Basis Set: AUG-CC-PVTZ
    Blend: AUG-CC-PVTZ
  Basis Set: (AUG-CC-PVTZ AUX)
    Blend: AUG-CC-PVTZ-JKFIT
	 Reference Energy          =    -380.7692352280828345 [Eh]
	 Singles Energy            =      -0.0000000000000000 [Eh]
	 Same-Spin Energy          =      -0.3646515231299994 [Eh]
	 Opposite-Spin Energy      =      -1.1719027912947038 [Eh]
	 Correlation Energy        =      -1.5365543144247031 [Eh]
	 Total Energy              =    -382.3057895425075117 [Eh]

	 ================> DF-SCS-MP2 Energies <==================
	-----------------------------------------------------------
	 SCS Same-Spin Scale       =       0.3333333333333333 [-]
	 SCS Opposite-Spin Scale   =       1.2000000000000000 [-]
	 SCS Same-Spin Energy      =      -0.1215505077099998 [Eh]
	 SCS Opposite-Spin Energy  =      -1.4062833495536444 [Eh]
	 SCS Correlation Energy    =      -1.5278338572636443 [Eh]
	 SCS Total Energy          =    -382.2970690853464930 [Eh]
	-----------------------------------------------------------

  Dipole Moment: [D]
     X:    -0.2194      Y:    -1.5117      Z:     1.6993     Total:     2.2849

*** Psi4 exiting successfully. Buy a developer a beer!
