                               Psi4 1.3.2 release

  ==> Input File <==

--------------------------------------------------------------------------
#psi4
#
memory 32 gb

molecule  {
0 1
  O        0.8013680    -0.3194430    -0.6593080
  O       -0.5076550    -0.8220740    -0.2452740
  O       -1.0728670     1.3987690    -0.0973370
  C        1.6588604    -0.2372952     0.6166984
  C        2.9657370     0.2196450     0.0595640
  C       -1.3789950     0.2279050    -0.0301100
  C       -2.7361800    -0.3473490     0.2635940
  H        1.1531750     0.4718980     1.2294250
  H        1.6470430    -1.2298650     1.0038120
  H        3.6380680     0.2976270     0.9176960
  H        3.3895360    -0.4934290    -0.6504970
  H        2.8952950     1.1995690    -0.4169390
  H       -3.2299570    -0.5922870    -0.6804890
  H       -2.6567000    -1.2579100     0.8585660
  H       -3.3255750     0.4009600     0.7925810
units angstrom
no_reorient  #important for SAPT in psi4, default
symmetry c1  #important for SAPT in psi4, default
}

set PROPERTIES_ORIGIN ["COM"]
properties('MP2/aug-cc-pvtz', properties = ['dipole'])
--------------------------------------------------------------------------

    Molecular point group: c1
  Charge       = 0
  Multiplicity = 1
  Basis Set: AUG-CC-PVTZ
    Blend: AUG-CC-PVTZ
  Basis Set: (AUG-CC-PVTZ AUX)
    Blend: AUG-CC-PVTZ-JKFIT

    Orbital Energies [Eh]
    ---------------------

    Doubly Occupied:

       1A    -20.647857     2A    -20.629626     3A    -20.550903
       4A    -11.388196     5A    -11.294580     6A    -11.248606
       7A    -11.230367     8A     -1.492498     9A     -1.382812
      10A     -1.244054    11A     -1.039700    12A     -1.006433
      13A     -0.859548    14A     -0.788293    15A     -0.701685
      16A     -0.683220    17A     -0.667751    18A     -0.650977
      19A     -0.607989    20A     -0.592950    21A     -0.580247
      22A     -0.556024    23A     -0.534878    24A     -0.523491
      25A     -0.517029    26A     -0.480211    27A     -0.463501
      28A     -0.450012

  @DF-RHF Final Energy:  -380.75959141783301

   => Energetics <=

    Nuclear Repulsion Energy =            314.5505249155024785
    One-Electron Energy =               -1144.9933584037432865
    Two-Electron Energy =                 449.6832420704078004
    Total Energy =                       -380.7595914178330077
  Basis Set: (AUG-CC-PVTZ AUX)
    Blend: AUG-CC-PVTZ-RI
    Molecular point group: c1

    Geometry (in Angstrom), charge = 0, multiplicity = 1:

       Center              X                  Y                   Z               Mass
    ------------   -----------------  -----------------  -----------------  -----------------
         O            0.828385269312    -0.331521534566    -0.639791901664    15.994914619570
         O           -0.480637730688    -0.834152534566    -0.225757901664    15.994914619570
         O           -1.045849730688     1.386690465434    -0.077820901664    15.994914619570
         C            1.685877669312    -0.249373734566     0.636214498336    12.000000000000
         C            2.992754269312     0.207566465434     0.079080098336    12.000000000000
         C           -1.351977730688     0.215826465434    -0.010593901664    12.000000000000
         C           -2.709162730688    -0.359427534566     0.283110098336    12.000000000000
         H            1.180192269312     0.459819465434     1.248941098336     1.007825032230
         H            1.674060269312    -1.241943534566     1.023328098336     1.007825032230
         H            3.665085269312     0.285548465434     0.937212098336     1.007825032230
         H            3.416553269312    -0.505507534566    -0.630980901664     1.007825032230
         H            2.922312269312     1.187490465434    -0.397422901664     1.007825032230
         H           -3.202939730688    -0.604365534566    -0.660972901664     1.007825032230
         H           -2.629682730688    -1.269988534566     0.878082098336     1.007825032230
         H           -3.298557730688     0.388881465434     0.812097098336     1.007825032230

  Basis Set: AUG-CC-PVTZ
    Blend: AUG-CC-PVTZ
  Basis Set: (AUG-CC-PVTZ AUX)
    Blend: AUG-CC-PVTZ-JKFIT
	 Reference Energy          =    -380.7595914178330077 [Eh]
	 Singles Energy            =      -0.0000000000000000 [Eh]
	 Same-Spin Energy          =      -0.3650186843190989 [Eh]
	 Opposite-Spin Energy      =      -1.1736005231056741 [Eh]
	 Correlation Energy        =      -1.5386192074247731 [Eh]
	 Total Energy              =    -382.2982106252577523 [Eh]

	 ================> DF-SCS-MP2 Energies <==================
	-----------------------------------------------------------
	 SCS Same-Spin Scale       =       0.3333333333333333 [-]
	 SCS Opposite-Spin Scale   =       1.2000000000000000 [-]
	 SCS Same-Spin Energy      =      -0.1216728947730330 [Eh]
	 SCS Opposite-Spin Energy  =      -1.4083206277268088 [Eh]
	 SCS Correlation Energy    =      -1.5299935224998418 [Eh]
	 SCS Total Energy          =    -382.2895849403328725 [Eh]
	-----------------------------------------------------------

  Dipole Moment: [D]
     X:     0.0312      Y:    -1.5119      Z:     1.8712     Total:     2.4059

*** Psi4 exiting successfully. Buy a developer a beer!
