                               Psi4 1.3.2 release

  ==> Input File <==

--------------------------------------------------------------------------
#psi4
#
memory 32 gb

molecule  {
0 1
  O        0.8053175    -0.2949498    -0.6632744
  O       -0.5076550    -0.8220740    -0.2452740
  O       -1.0728670     1.3987690    -0.0973370
  C        1.6031630    -0.2426310     0.5338170
  C        2.9657370     0.2196450     0.0595640
  C       -1.3789950     0.2279050    -0.0301100
  C       -2.7361800    -0.3473490     0.2635940
  H        1.1531750     0.4718980     1.2294250
  H        1.6470430    -1.2298650     1.0038120
  H        3.6380680     0.2976270     0.9176960
  H        3.3895360    -0.4934290    -0.6504970
  H        2.8952950     1.1995690    -0.4169390
  H       -3.2299570    -0.5922870    -0.6804890
  H       -2.6567000    -1.2579100     0.8585660
  H       -3.3255750     0.4009600     0.7925810
units angstrom
no_reorient  #important for SAPT in psi4, default
symmetry c1  #important for SAPT in psi4, default
}

set PROPERTIES_ORIGIN ["COM"]
properties('MP2/aug-cc-pvtz', properties = ['dipole'])
--------------------------------------------------------------------------

    Molecular point group: c1
  Charge       = 0
  Multiplicity = 1
  Basis Set: AUG-CC-PVTZ
    Blend: AUG-CC-PVTZ
  Basis Set: (AUG-CC-PVTZ AUX)
    Blend: AUG-CC-PVTZ-JKFIT

    Orbital Energies [Eh]
    ---------------------

    Doubly Occupied:

       1A    -20.656708     2A    -20.641936     3A    -20.554832
       4A    -11.392858     5A    -11.290402     6A    -11.251745
       7A    -11.227201     8A     -1.503581     9A     -1.389938
      10A     -1.269677    11A     -1.033914    12A     -1.004409
      13A     -0.853310    14A     -0.795746    15A     -0.706665
      16A     -0.692182    17A     -0.674489    18A     -0.644145
      19A     -0.615791    20A     -0.597950    21A     -0.582628
      22A     -0.547698    23A     -0.535414    24A     -0.533499
      25A     -0.511248    26A     -0.483061    27A     -0.467412
      28A     -0.453272

  @DF-RHF Final Energy:  -380.76743971168833

   => Energetics <=

    Nuclear Repulsion Energy =            315.9280615254846225
    One-Electron Energy =               -1147.5675847278523634
    Two-Electron Energy =                 450.8720834906794153
    Total Energy =                       -380.7674397116883256
  Basis Set: (AUG-CC-PVTZ AUX)
    Blend: AUG-CC-PVTZ-RI
    Molecular point group: c1

    Geometry (in Angstrom), charge = 0, multiplicity = 1:

       Center              X                  Y                   Z               Mass
    ------------   -----------------  -----------------  -----------------  -----------------
         O            0.838151322246    -0.310178218357    -0.633589670851    15.994914619570
         O           -0.474821177754    -0.837302418357    -0.215589270851    15.994914619570
         O           -1.040033177754     1.383540581643    -0.067652270851    15.994914619570
         C            1.635996822246    -0.257859418357     0.563501729149    12.000000000000
         C            2.998570822246     0.204416581643     0.089248729149    12.000000000000
         C           -1.346161177754     0.212676581643    -0.000425270851    12.000000000000
         C           -2.703346177754    -0.362577418357     0.293278729149    12.000000000000
         H            1.186008822246     0.456669581643     1.259109729149     1.007825032230
         H            1.679876822246    -1.245093418357     1.033496729149     1.007825032230
         H            3.670901822246     0.282398581643     0.947380729149     1.007825032230
         H            3.422369822246    -0.508657418357    -0.620812270851     1.007825032230
         H            2.928128822246     1.184340581643    -0.387254270851     1.007825032230
         H           -3.197123177754    -0.607515418357    -0.650804270851     1.007825032230
         H           -2.623866177754    -1.273138418357     0.888250729149     1.007825032230
         H           -3.292741177754     0.385731581643     0.822265729149     1.007825032230

  Basis Set: AUG-CC-PVTZ
    Blend: AUG-CC-PVTZ
  Basis Set: (AUG-CC-PVTZ AUX)
    Blend: AUG-CC-PVTZ-JKFIT
	 Reference Energy          =    -380.7674397116883256 [Eh]
	 Singles Energy            =      -0.0000000000000000 [Eh]
	 Same-Spin Energy          =      -0.3650033152359872 [Eh]
	 Opposite-Spin Energy      =      -1.1730692748649565 [Eh]
	 Correlation Energy        =      -1.5380725901009438 [Eh]
	 Total Energy              =    -382.3055123017892925 [Eh]

	 ================> DF-SCS-MP2 Energies <==================
	-----------------------------------------------------------
	 SCS Same-Spin Scale       =       0.3333333333333333 [-]
	 SCS Opposite-Spin Scale   =       1.2000000000000000 [-]
	 SCS Same-Spin Energy      =      -0.1216677717453291 [Eh]
	 SCS Opposite-Spin Energy  =      -1.4076831298379477 [Eh]
	 SCS Correlation Energy    =      -1.5293509015832769 [Eh]
	 SCS Total Energy          =    -382.2967906132715825 [Eh]
	-----------------------------------------------------------

  Dipole Moment: [D]
     X:    -0.2426      Y:    -1.5326      Z:     1.6818     Total:     2.2882

*** Psi4 exiting successfully. Buy a developer a beer!
