                               Psi4 1.3.2 release

  ==> Input File <==

--------------------------------------------------------------------------
#psi4
#
memory 32 gb

molecule  {
0 1
  O        0.8013680    -0.3194430    -0.6593080
  O       -0.5076550    -0.8220740    -0.2452740
  O       -1.0529388     1.3931207    -0.1016363
  C        1.6031630    -0.2426310     0.5338170
  C        2.9657370     0.2196450     0.0595640
  C       -1.3789950     0.2279050    -0.0301100
  C       -2.7361800    -0.3473490     0.2635940
  H        1.1531750     0.4718980     1.2294250
  H        1.6470430    -1.2298650     1.0038120
  H        3.6380680     0.2976270     0.9176960
  H        3.3895360    -0.4934290    -0.6504970
  H        2.8952950     1.1995690    -0.4169390
  H       -3.2299570    -0.5922870    -0.6804890
  H       -2.6567000    -1.2579100     0.8585660
  H       -3.3255750     0.4009600     0.7925810
units angstrom
no_reorient  #important for SAPT in psi4, default
symmetry c1  #important for SAPT in psi4, default
}

set PROPERTIES_ORIGIN ["COM"]
properties('MP2/aug-cc-pvtz', properties = ['dipole'])
--------------------------------------------------------------------------

    Molecular point group: c1
  Charge       = 0
  Multiplicity = 1
  Basis Set: AUG-CC-PVTZ
    Blend: AUG-CC-PVTZ
  Basis Set: (AUG-CC-PVTZ AUX)
    Blend: AUG-CC-PVTZ-JKFIT

    Orbital Energies [Eh]
    ---------------------

    Doubly Occupied:

       1A    -20.655336     2A    -20.639661     3A    -20.554851
       4A    -11.393065     5A    -11.289579     6A    -11.253094
       7A    -11.226892     8A     -1.507060     9A     -1.390272
      10A     -1.267004    11A     -1.034898    12A     -1.004433
      13A     -0.853453    14A     -0.796283    15A     -0.707452
      16A     -0.692932    17A     -0.675137    18A     -0.643813
      19A     -0.615207    20A     -0.598522    21A     -0.583529
      22A     -0.547832    23A     -0.535160    24A     -0.532705
      25A     -0.511968    26A     -0.480719    27A     -0.467277
      28A     -0.452899

  @DF-RHF Final Energy:  -380.76903680151611

   => Energetics <=

    Nuclear Repulsion Energy =            316.2437938995419131
    One-Electron Energy =               -1148.2035966399828339
    Two-Electron Energy =                 451.1907659389247556
    Total Energy =                       -380.7690368015161084
  Basis Set: (AUG-CC-PVTZ AUX)
    Blend: AUG-CC-PVTZ-RI
    Molecular point group: c1

    Geometry (in Angstrom), charge = 0, multiplicity = 1:

       Center              X                  Y                   Z               Mass
    ------------   -----------------  -----------------  -----------------  -----------------
         O            0.831745460247    -0.330037847716    -0.629572095041    15.994914619570
         O           -0.477277539753    -0.832668847716    -0.215538095041    15.994914619570
         O           -1.022561339753     1.382525852284    -0.071900395041    15.994914619570
         C            1.633540460247    -0.253225847716     0.563552904959    12.000000000000
         C            2.996114460247     0.209050152284     0.089299904959    12.000000000000
         C           -1.348617539753     0.217310152284    -0.000374095041    12.000000000000
         C           -2.705802539753    -0.357943847716     0.293329904959    12.000000000000
         H            1.183552460247     0.461303152284     1.259160904959     1.007825032230
         H            1.677420460247    -1.240459847716     1.033547904959     1.007825032230
         H            3.668445460247     0.287032152284     0.947431904959     1.007825032230
         H            3.419913460247    -0.504023847716    -0.620761095041     1.007825032230
         H            2.925672460247     1.188974152284    -0.387203095041     1.007825032230
         H           -3.199579539753    -0.602881847716    -0.650753095041     1.007825032230
         H           -2.626322539753    -1.268504847716     0.888301904959     1.007825032230
         H           -3.295197539753     0.390365152284     0.822316904959     1.007825032230

  Basis Set: AUG-CC-PVTZ
    Blend: AUG-CC-PVTZ
  Basis Set: (AUG-CC-PVTZ AUX)
    Blend: AUG-CC-PVTZ-JKFIT
	 Reference Energy          =    -380.7690368015161084 [Eh]
	 Singles Energy            =      -0.0000000000000000 [Eh]
	 Same-Spin Energy          =      -0.3647328839973677 [Eh]
	 Opposite-Spin Energy      =      -1.1720387381374959 [Eh]
	 Correlation Energy        =      -1.5367716221348635 [Eh]
	 Total Energy              =    -382.3058084236509444 [Eh]

	 ================> DF-SCS-MP2 Energies <==================
	-----------------------------------------------------------
	 SCS Same-Spin Scale       =       0.3333333333333333 [-]
	 SCS Opposite-Spin Scale   =       1.2000000000000000 [-]
	 SCS Same-Spin Energy      =      -0.1215776279991226 [Eh]
	 SCS Opposite-Spin Energy  =      -1.4064464857649950 [Eh]
	 SCS Correlation Energy    =      -1.5280241137641175 [Eh]
	 SCS Total Energy          =    -382.2970609152802126 [Eh]
	-----------------------------------------------------------

  Dipole Moment: [D]
     X:    -0.2989      Y:    -1.4992      Z:     1.6891     Total:     2.2781

*** Psi4 exiting successfully. Buy a developer a beer!
