                               Psi4 1.3.2 release

  ==> Input File <==

--------------------------------------------------------------------------
#psi4
#
memory 32 gb

molecule  {
0 1
  O        0.8013680    -0.3194430    -0.6593080
  O       -0.5438537    -0.8527561    -0.2367390
  O       -1.0728670     1.3987690    -0.0973370
  C        1.6031630    -0.2426310     0.5338170
  C        2.9657370     0.2196450     0.0595640
  C       -1.3789950     0.2279050    -0.0301100
  C       -2.7361800    -0.3473490     0.2635940
  H        1.1531750     0.4718980     1.2294250
  H        1.6470430    -1.2298650     1.0038120
  H        3.6380680     0.2976270     0.9176960
  H        3.3895360    -0.4934290    -0.6504970
  H        2.8952950     1.1995690    -0.4169390
  H       -3.2299570    -0.5922870    -0.6804890
  H       -2.6567000    -1.2579100     0.8585660
  H       -3.3255750     0.4009600     0.7925810
units angstrom
no_reorient  #important for SAPT in psi4, default
symmetry c1  #important for SAPT in psi4, default
}

set PROPERTIES_ORIGIN ["COM"]
properties('MP2/aug-cc-pvtz', properties = ['dipole'])
--------------------------------------------------------------------------

    Molecular point group: c1
  Charge       = 0
  Multiplicity = 1
  Basis Set: AUG-CC-PVTZ
    Blend: AUG-CC-PVTZ
  Basis Set: (AUG-CC-PVTZ AUX)
    Blend: AUG-CC-PVTZ-JKFIT

    Orbital Energies [Eh]
    ---------------------

    Doubly Occupied:

       1A    -20.659562     2A    -20.643874     3A    -20.556621
       4A    -11.393452     5A    -11.291463     6A    -11.249495
       7A    -11.228705     8A     -1.494190     9A     -1.389159
      10A     -1.275705    11A     -1.032781    12A     -1.004270
      13A     -0.852656    14A     -0.793265    15A     -0.704468
      16A     -0.690737    17A     -0.672117    18A     -0.644896
      19A     -0.615992    20A     -0.597626    21A     -0.581105
      22A     -0.547456    23A     -0.537744    24A     -0.534801
      25A     -0.508582    26A     -0.484947    27A     -0.469211
      28A     -0.453712

  @DF-RHF Final Energy:  -380.76261110244451

   => Energetics <=

    Nuclear Repulsion Energy =            315.0819062113884570
    One-Electron Energy =               -1145.8718490975986697
    Two-Electron Energy =                 450.0273317837656464
    Total Energy =                       -380.7626111024445095
  Basis Set: (AUG-CC-PVTZ AUX)
    Blend: AUG-CC-PVTZ-RI
    Molecular point group: c1

    Geometry (in Angstrom), charge = 0, multiplicity = 1:

       Center              X                  Y                   Z               Mass
    ------------   -----------------  -----------------  -----------------  -----------------
         O            0.840373695604    -0.326189469874    -0.631545076999    15.994914619570
         O           -0.504848004396    -0.859502569874    -0.208976076999    15.994914619570
         O           -1.033861304396     1.392022530126    -0.069574076999    15.994914619570
         C            1.642168695604    -0.249377469874     0.561579923001    12.000000000000
         C            3.004742695604     0.212898530126     0.087326923001    12.000000000000
         C           -1.339989304396     0.221158530126    -0.002347076999    12.000000000000
         C           -2.697174304396    -0.354095469874     0.291356923001    12.000000000000
         H            1.192180695604     0.465151530126     1.257187923001     1.007825032230
         H            1.686048695604    -1.236611469874     1.031574923001     1.007825032230
         H            3.677073695604     0.290880530126     0.945458923001     1.007825032230
         H            3.428541695604    -0.500175469874    -0.622734076999     1.007825032230
         H            2.934300695604     1.192822530126    -0.389176076999     1.007825032230
         H           -3.190951304396    -0.599033469874    -0.652726076999     1.007825032230
         H           -2.617694304396    -1.264656469874     0.886328923001     1.007825032230
         H           -3.286569304396     0.394213530126     0.820343923001     1.007825032230

  Basis Set: AUG-CC-PVTZ
    Blend: AUG-CC-PVTZ
  Basis Set: (AUG-CC-PVTZ AUX)
    Blend: AUG-CC-PVTZ-JKFIT
	 Reference Energy          =    -380.7626111024445095 [Eh]
	 Singles Energy            =      -0.0000000000000000 [Eh]
	 Same-Spin Energy          =      -0.3657107568672766 [Eh]
	 Opposite-Spin Energy      =      -1.1756276135369452 [Eh]
	 Correlation Energy        =      -1.5413383704042218 [Eh]
	 Total Energy              =    -382.3039494728487284 [Eh]

	 ================> DF-SCS-MP2 Energies <==================
	-----------------------------------------------------------
	 SCS Same-Spin Scale       =       0.3333333333333333 [-]
	 SCS Opposite-Spin Scale   =       1.2000000000000000 [-]
	 SCS Same-Spin Energy      =      -0.1219035856224255 [Eh]
	 SCS Opposite-Spin Energy  =      -1.4107531362443342 [Eh]
	 SCS Correlation Energy    =      -1.5326567218667597 [Eh]
	 SCS Total Energy          =    -382.2952678243112814 [Eh]
	-----------------------------------------------------------

  Dipole Moment: [D]
     X:    -0.1744      Y:    -1.4679      Z:     1.6794     Total:     2.2373

*** Psi4 exiting successfully. Buy a developer a beer!
