                               Psi4 1.3.2 release

  ==> Input File <==

--------------------------------------------------------------------------
#psi4
#
memory 32 gb

molecule  {
0 1
  O        0.8013680    -0.3194430    -0.6593080
  O       -0.5076550    -0.8220740    -0.2452740
  O       -1.0728670     1.3987690    -0.0973370
  C        1.6031630    -0.2426310     0.5338170
  C        2.9657370     0.2196450     0.0595640
  C       -1.3998560     0.2154481    -0.1321683
  C       -2.7361800    -0.3473490     0.2635940
  H        1.1531750     0.4718980     1.2294250
  H        1.6470430    -1.2298650     1.0038120
  H        3.6380680     0.2976270     0.9176960
  H        3.3895360    -0.4934290    -0.6504970
  H        2.8952950     1.1995690    -0.4169390
  H       -3.2299570    -0.5922870    -0.6804890
  H       -2.6567000    -1.2579100     0.8585660
  H       -3.3255750     0.4009600     0.7925810
units angstrom
no_reorient  #important for SAPT in psi4, default
symmetry c1  #important for SAPT in psi4, default
}

set PROPERTIES_ORIGIN ["COM"]
properties('MP2/aug-cc-pvtz', properties = ['dipole'])
--------------------------------------------------------------------------

    Molecular point group: c1
  Charge       = 0
  Multiplicity = 1
  Basis Set: AUG-CC-PVTZ
    Blend: AUG-CC-PVTZ
  Basis Set: (AUG-CC-PVTZ AUX)
    Blend: AUG-CC-PVTZ-JKFIT

    Orbital Energies [Eh]
    ---------------------

    Doubly Occupied:

       1A    -20.659146     2A    -20.641685     3A    -20.552727
       4A    -11.395148     5A    -11.290143     6A    -11.252350
       7A    -11.227432     8A     -1.509710     9A     -1.380488
      10A     -1.270062    11A     -1.034907    12A     -1.004563
      13A     -0.853631    14A     -0.799261    15A     -0.706756
      16A     -0.692331    17A     -0.677090    18A     -0.643609
      19A     -0.611057    20A     -0.599378    21A     -0.583567
      22A     -0.546654    23A     -0.536253    24A     -0.531711
      25A     -0.512526    26A     -0.481464    27A     -0.463186
      28A     -0.451624

  @DF-RHF Final Energy:  -380.76321045754133

   => Energetics <=

    Nuclear Repulsion Energy =            315.7740045451177480
    One-Electron Energy =               -1147.2575108673240720
    Two-Electron Energy =                 450.7202958646649336
    Total Energy =                       -380.7632104575413337
  Basis Set: (AUG-CC-PVTZ AUX)
    Blend: AUG-CC-PVTZ-RI
    Molecular point group: c1

    Geometry (in Angstrom), charge = 0, multiplicity = 1:

       Center              X                  Y                   Z               Mass
    ------------   -----------------  -----------------  -----------------  -----------------
         O            0.837214911316    -0.329469464887    -0.618462415372    15.994914619570
         O           -0.471808088684    -0.832100464887    -0.204428415372    15.994914619570
         O           -1.037020088684     1.388742535113    -0.056491415372    15.994914619570
         C            1.639009911316    -0.252657464887     0.574662584628    12.000000000000
         C            3.001583911316     0.209618535113     0.100409584628    12.000000000000
         C           -1.364009088684     0.205421635113    -0.091322715372    12.000000000000
         C           -2.700333088684    -0.357375464887     0.304439584628    12.000000000000
         H            1.189021911316     0.461871535113     1.270270584628     1.007825032230
         H            1.682889911316    -1.239891464887     1.044657584628     1.007825032230
         H            3.673914911316     0.287600535113     0.958541584628     1.007825032230
         H            3.425382911316    -0.503455464887    -0.609651415372     1.007825032230
         H            2.931141911316     1.189542535113    -0.376093415372     1.007825032230
         H           -3.194110088684    -0.602313464887    -0.639643415372     1.007825032230
         H           -2.620853088684    -1.267936464887     0.899411584628     1.007825032230
         H           -3.289728088684     0.390933535113     0.833426584628     1.007825032230

  Basis Set: AUG-CC-PVTZ
    Blend: AUG-CC-PVTZ
  Basis Set: (AUG-CC-PVTZ AUX)
    Blend: AUG-CC-PVTZ-JKFIT
	 Reference Energy          =    -380.7632104575413337 [Eh]
	 Singles Energy            =      -0.0000000000000000 [Eh]
	 Same-Spin Energy          =      -0.3650494194252477 [Eh]
	 Opposite-Spin Energy      =      -1.1728292189658824 [Eh]
	 Correlation Energy        =      -1.5378786383911303 [Eh]
	 Total Energy              =    -382.3010890959324684 [Eh]

	 ================> DF-SCS-MP2 Energies <==================
	-----------------------------------------------------------
	 SCS Same-Spin Scale       =       0.3333333333333333 [-]
	 SCS Opposite-Spin Scale   =       1.2000000000000000 [-]
	 SCS Same-Spin Energy      =      -0.1216831398084159 [Eh]
	 SCS Opposite-Spin Energy  =      -1.4073950627590588 [Eh]
	 SCS Correlation Energy    =      -1.5290782025674747 [Eh]
	 SCS Total Energy          =    -382.2922886601087953 [Eh]
	-----------------------------------------------------------

  Dipole Moment: [D]
     X:    -0.2257      Y:    -1.5914      Z:     1.5837     Total:     2.2565

*** Psi4 exiting successfully. Buy a developer a beer!
