                               Psi4 1.3.2 release

  ==> Input File <==

--------------------------------------------------------------------------
#psi4
#
memory 32 gb

molecule  {
0 1
  O        0.6880509    -0.3644008    -0.5707483
  O       -0.5076550    -0.8220740    -0.2452740
  O       -1.0728670     1.3987690    -0.0973370
  C        1.6031630    -0.2426310     0.5338170
  C        2.9657370     0.2196450     0.0595640
  C       -1.3789950     0.2279050    -0.0301100
  C       -2.7361800    -0.3473490     0.2635940
  H        1.1531750     0.4718980     1.2294250
  H        1.6470430    -1.2298650     1.0038120
  H        3.6380680     0.2976270     0.9176960
  H        3.3895360    -0.4934290    -0.6504970
  H        2.8952950     1.1995690    -0.4169390
  H       -3.2299570    -0.5922870    -0.6804890
  H       -2.6567000    -1.2579100     0.8585660
  H       -3.3255750     0.4009600     0.7925810
units angstrom
no_reorient  #important for SAPT in psi4, default
symmetry c1  #important for SAPT in psi4, default
}

set PROPERTIES_ORIGIN ["COM"]
properties('MP2/aug-cc-pvtz', properties = ['dipole'])
--------------------------------------------------------------------------

    Molecular point group: c1
  Charge       = 0
  Multiplicity = 1
  Basis Set: AUG-CC-PVTZ
    Blend: AUG-CC-PVTZ
  Basis Set: (AUG-CC-PVTZ AUX)
    Blend: AUG-CC-PVTZ-JKFIT

    Orbital Energies [Eh]
    ---------------------

    Doubly Occupied:

       1A    -20.660151     2A    -20.618525     3A    -20.556851
       4A    -11.391831     5A    -11.288258     6A    -11.251011
       7A    -11.229253     8A     -1.570487     9A     -1.396233
      10A     -1.247024    11A     -1.041514    12A     -1.000999
      13A     -0.866859    14A     -0.809032    15A     -0.721810
      16A     -0.705221    17A     -0.695021    18A     -0.640274
      19A     -0.612180    20A     -0.606219    21A     -0.583795
      22A     -0.553241    23A     -0.536251    24A     -0.529547
      25A     -0.517029    26A     -0.468241    27A     -0.463746
      28A     -0.439397

  @DF-RHF Final Energy:  -380.76881468462386

   => Energetics <=

    Nuclear Repulsion Energy =            319.3081022417897543
    One-Electron Energy =               -1154.1538335555198955
    Two-Electron Energy =                 454.0769166291062220
    Total Energy =                       -380.7688146846238624
  Basis Set: (AUG-CC-PVTZ AUX)
    Blend: AUG-CC-PVTZ-RI
    Molecular point group: c1

    Geometry (in Angstrom), charge = 0, multiplicity = 1:

       Center              X                  Y                   Z               Mass
    ------------   -----------------  -----------------  -----------------  -----------------
         O            0.738911797042    -0.368952705423    -0.555287356015    15.994914619570
         O           -0.456794102958    -0.826625905423    -0.229813056015    15.994914619570
         O           -1.022006102958     1.394217094577    -0.081876056015    15.994914619570
         C            1.654023897042    -0.247182905423     0.549277943985    12.000000000000
         C            3.016597897042     0.215093094577     0.075024943985    12.000000000000
         C           -1.328134102958     0.223353094577    -0.014649056015    12.000000000000
         C           -2.685319102958    -0.351900905423     0.279054943985    12.000000000000
         H            1.204035897042     0.467346094577     1.244885943985     1.007825032230
         H            1.697903897042    -1.234416905423     1.019272943985     1.007825032230
         H            3.688928897042     0.293075094577     0.933156943985     1.007825032230
         H            3.440396897042    -0.497980905423    -0.635036056015     1.007825032230
         H            2.946155897042     1.195017094577    -0.401478056015     1.007825032230
         H           -3.179096102958    -0.596838905423    -0.665028056015     1.007825032230
         H           -2.605839102958    -1.262461905423     0.874026943985     1.007825032230
         H           -3.274714102958     0.396408094577     0.808041943985     1.007825032230

  Basis Set: AUG-CC-PVTZ
    Blend: AUG-CC-PVTZ
  Basis Set: (AUG-CC-PVTZ AUX)
    Blend: AUG-CC-PVTZ-JKFIT
	 Reference Energy          =    -380.7688146846238624 [Eh]
	 Singles Energy            =      -0.0000000000000000 [Eh]
	 Same-Spin Energy          =      -0.3626549179938834 [Eh]
	 Opposite-Spin Energy      =      -1.1632651051787724 [Eh]
	 Correlation Energy        =      -1.5259200231726557 [Eh]
	 Total Energy              =    -382.2947347077965219 [Eh]

	 ================> DF-SCS-MP2 Energies <==================
	-----------------------------------------------------------
	 SCS Same-Spin Scale       =       0.3333333333333333 [-]
	 SCS Opposite-Spin Scale   =       1.2000000000000000 [-]
	 SCS Same-Spin Energy      =      -0.1208849726646278 [Eh]
	 SCS Opposite-Spin Energy  =      -1.3959181262145268 [Eh]
	 SCS Correlation Energy    =      -1.5168030988791545 [Eh]
	 SCS Total Energy          =    -382.2856177835030280 [Eh]
	-----------------------------------------------------------

  Dipole Moment: [D]
     X:    -0.0701      Y:    -1.5042      Z:     1.5842     Total:     2.1856

*** Psi4 exiting successfully. Buy a developer a beer!
