                               Psi4 1.3.2 release

  ==> Input File <==

--------------------------------------------------------------------------
#psi4
#
memory 32 gb

molecule  {
0 1
  O        0.8013680    -0.3194430    -0.6593080
  O       -0.4520211    -0.8262816    -0.1027707
  O       -1.0728670     1.3987690    -0.0973370
  C        1.6031630    -0.2426310     0.5338170
  C        2.9657370     0.2196450     0.0595640
  C       -1.3789950     0.2279050    -0.0301100
  C       -2.7361800    -0.3473490     0.2635940
  H        1.1531750     0.4718980     1.2294250
  H        1.6470430    -1.2298650     1.0038120
  H        3.6380680     0.2976270     0.9176960
  H        3.3895360    -0.4934290    -0.6504970
  H        2.8952950     1.1995690    -0.4169390
  H       -3.2299570    -0.5922870    -0.6804890
  H       -2.6567000    -1.2579100     0.8585660
  H       -3.3255750     0.4009600     0.7925810
units angstrom
no_reorient  #important for SAPT in psi4, default
symmetry c1  #important for SAPT in psi4, default
}

set PROPERTIES_ORIGIN ["COM"]
properties('MP2/aug-cc-pvtz', properties = ['dipole'])
--------------------------------------------------------------------------

    Molecular point group: c1
  Charge       = 0
  Multiplicity = 1
  Basis Set: AUG-CC-PVTZ
    Blend: AUG-CC-PVTZ
  Basis Set: (AUG-CC-PVTZ AUX)
    Blend: AUG-CC-PVTZ-JKFIT

    Orbital Energies [Eh]
    ---------------------

    Doubly Occupied:

       1A    -20.652933     2A    -20.641062     3A    -20.559142
       4A    -11.396257     5A    -11.287358     6A    -11.253757
       7A    -11.224082     8A     -1.504912     9A     -1.393925
      10A     -1.259365    11A     -1.032712    12A     -1.004894
      13A     -0.851567    14A     -0.795906    15A     -0.707997
      16A     -0.690876    17A     -0.673792    18A     -0.641282
      19A     -0.616158    20A     -0.598530    21A     -0.583040
      22A     -0.548098    23A     -0.533013    24A     -0.532436
      25A     -0.510245    26A     -0.487016    27A     -0.463981
      28A     -0.453320

  @DF-RHF Final Energy:  -380.76396529292049

   => Energetics <=

    Nuclear Repulsion Energy =            316.2444496378650456
    One-Electron Energy =               -1148.2215218430146706
    Two-Electron Energy =                 451.2131069122291365
    Total Energy =                       -380.7639652929204885
  Basis Set: (AUG-CC-PVTZ AUX)
    Blend: AUG-CC-PVTZ-RI
    Molecular point group: c1

    Geometry (in Angstrom), charge = 0, multiplicity = 1:

       Center              X                  Y                   Z               Mass
    ------------   -----------------  -----------------  -----------------  -----------------
         O            0.826256520305    -0.330259322600    -0.652139658614    15.994914619570
         O           -0.427132579695    -0.837097922600    -0.095602358614    15.994914619570
         O           -1.047978479695     1.387952677400    -0.090168658614    15.994914619570
         C            1.628051520305    -0.253447322600     0.540985341386    12.000000000000
         C            2.990625520305     0.208828677400     0.066732341386    12.000000000000
         C           -1.354106479695     0.217088677400    -0.022941658614    12.000000000000
         C           -2.711291479695    -0.358165322600     0.270762341386    12.000000000000
         H            1.178063520305     0.461081677400     1.236593341386     1.007825032230
         H            1.671931520305    -1.240681322600     1.010980341386     1.007825032230
         H            3.662956520305     0.286810677400     0.924864341386     1.007825032230
         H            3.414424520305    -0.504245322600    -0.643328658614     1.007825032230
         H            2.920183520305     1.188752677400    -0.409770658614     1.007825032230
         H           -3.205068479695    -0.603103322600    -0.673320658614     1.007825032230
         H           -2.631811479695    -1.268726322600     0.865734341386     1.007825032230
         H           -3.300686479695     0.390143677400     0.799749341386     1.007825032230

  Basis Set: AUG-CC-PVTZ
    Blend: AUG-CC-PVTZ
  Basis Set: (AUG-CC-PVTZ AUX)
    Blend: AUG-CC-PVTZ-JKFIT
	 Reference Energy          =    -380.7639652929204885 [Eh]
	 Singles Energy            =      -0.0000000000000000 [Eh]
	 Same-Spin Energy          =      -0.3652271644024402 [Eh]
	 Opposite-Spin Energy      =      -1.1736159056176834 [Eh]
	 Correlation Energy        =      -1.5388430700201237 [Eh]
	 Total Energy              =    -382.3028083629405955 [Eh]

	 ================> DF-SCS-MP2 Energies <==================
	-----------------------------------------------------------
	 SCS Same-Spin Scale       =       0.3333333333333333 [-]
	 SCS Opposite-Spin Scale   =       1.2000000000000000 [-]
	 SCS Same-Spin Energy      =      -0.1217423881341467 [Eh]
	 SCS Opposite-Spin Energy  =      -1.4083390867412200 [Eh]
	 SCS Correlation Energy    =      -1.5300814748753668 [Eh]
	 SCS Total Energy          =    -382.2940467677958623 [Eh]
	-----------------------------------------------------------

  Dipole Moment: [D]
     X:    -0.4302      Y:    -1.4402      Z:     1.5658     Total:     2.1705

*** Psi4 exiting successfully. Buy a developer a beer!
