                               Psi4 1.3.2 release

  ==> Input File <==

--------------------------------------------------------------------------
#psi4
#
memory 32 gb

molecule  {
0 1
  O        0.8013680    -0.3194430    -0.6593080
  O       -0.4898418    -0.8062565    -0.2489739
  O       -1.0728670     1.3987690    -0.0973370
  C        1.6031630    -0.2426310     0.5338170
  C        2.9657370     0.2196450     0.0595640
  C       -1.3789950     0.2279050    -0.0301100
  C       -2.7361800    -0.3473490     0.2635940
  H        1.1531750     0.4718980     1.2294250
  H        1.6470430    -1.2298650     1.0038120
  H        3.6380680     0.2976270     0.9176960
  H        3.3895360    -0.4934290    -0.6504970
  H        2.8952950     1.1995690    -0.4169390
  H       -3.2299570    -0.5922870    -0.6804890
  H       -2.6567000    -1.2579100     0.8585660
  H       -3.3255750     0.4009600     0.7925810
units angstrom
no_reorient  #important for SAPT in psi4, default
symmetry c1  #important for SAPT in psi4, default
}

set PROPERTIES_ORIGIN ["COM"]
properties('MP2/aug-cc-pvtz', properties = ['dipole'])
--------------------------------------------------------------------------

    Molecular point group: c1
  Charge       = 0
  Multiplicity = 1
  Basis Set: AUG-CC-PVTZ
    Blend: AUG-CC-PVTZ
  Basis Set: (AUG-CC-PVTZ AUX)
    Blend: AUG-CC-PVTZ-JKFIT

    Orbital Energies [Eh]
    ---------------------

    Doubly Occupied:

       1A    -20.655088     2A    -20.638830     3A    -20.554495
       4A    -11.393053     5A    -11.289516     6A    -11.253179
       7A    -11.226625     8A     -1.514965     9A     -1.391843
      10A     -1.264017    11A     -1.035543    12A     -1.004336
      13A     -0.854904    14A     -0.798723    15A     -0.709043
      16A     -0.694880    17A     -0.677541    18A     -0.643771
      19A     -0.614996    20A     -0.599013    21A     -0.584080
      22A     -0.548475    23A     -0.534680    24A     -0.532015
      25A     -0.514078    26A     -0.479573    27A     -0.467487
      28A     -0.451543

  @DF-RHF Final Energy:  -380.77136016590310

   => Energetics <=

    Nuclear Repulsion Energy =            316.5372653458925924
    One-Electron Energy =               -1148.7646699812180486
    Two-Electron Energy =                 451.4560444694223520
    Total Energy =                       -380.7713601659031042
  Basis Set: (AUG-CC-PVTZ AUX)
    Blend: AUG-CC-PVTZ-RI
    Molecular point group: c1

    Geometry (in Angstrom), charge = 0, multiplicity = 1:

       Center              X                  Y                   Z               Mass
    ------------   -----------------  -----------------  -----------------  -----------------
         O            0.832070593432    -0.333337726643    -0.629664239170    15.994914619570
         O           -0.459139206568    -0.820151226643    -0.219330139170    15.994914619570
         O           -1.042164406568     1.384874273357    -0.067693239170    15.994914619570
         C            1.633865593432    -0.256525726643     0.563460760830    12.000000000000
         C            2.996439593432     0.205750273357     0.089207760830    12.000000000000
         C           -1.348292406568     0.214010273357    -0.000466239170    12.000000000000
         C           -2.705477406568    -0.361243726643     0.293237760830    12.000000000000
         H            1.183877593432     0.458003273357     1.259068760830     1.007825032230
         H            1.677745593432    -1.243759726643     1.033455760830     1.007825032230
         H            3.668770593432     0.283732273357     0.947339760830     1.007825032230
         H            3.420238593432    -0.507323726643    -0.620853239170     1.007825032230
         H            2.925997593432     1.185674273357    -0.387295239170     1.007825032230
         H           -3.199254406568    -0.606181726643    -0.650845239170     1.007825032230
         H           -2.625997406568    -1.271804726643     0.888209760830     1.007825032230
         H           -3.294872406568     0.387065273357     0.822224760830     1.007825032230

  Basis Set: AUG-CC-PVTZ
    Blend: AUG-CC-PVTZ
  Basis Set: (AUG-CC-PVTZ AUX)
    Blend: AUG-CC-PVTZ-JKFIT
	 Reference Energy          =    -380.7713601659031042 [Eh]
	 Singles Energy            =      -0.0000000000000000 [Eh]
	 Same-Spin Energy          =      -0.3642503650756287 [Eh]
	 Opposite-Spin Energy      =      -1.1703766843040881 [Eh]
	 Correlation Energy        =      -1.5346270493797167 [Eh]
	 Total Energy              =    -382.3059872152828120 [Eh]

	 ================> DF-SCS-MP2 Energies <==================
	-----------------------------------------------------------
	 SCS Same-Spin Scale       =       0.3333333333333333 [-]
	 SCS Opposite-Spin Scale   =       1.2000000000000000 [-]
	 SCS Same-Spin Energy      =      -0.1214167883585429 [Eh]
	 SCS Opposite-Spin Energy  =      -1.4044520211649056 [Eh]
	 SCS Correlation Energy    =      -1.5258688095234485 [Eh]
	 SCS Total Energy          =    -382.2972289754265489 [Eh]
	-----------------------------------------------------------

  Dipole Moment: [D]
     X:    -0.2706      Y:    -1.5288      Z:     1.6797     Total:     2.2873

*** Psi4 exiting successfully. Buy a developer a beer!
