                               Psi4 1.3.2 release

  ==> Input File <==

--------------------------------------------------------------------------
#psi4
#
memory 32 gb

molecule  {
0 1
  O        0.8013680    -0.3194430    -0.6593080
  O       -0.4899510    -0.8062508    -0.2494438
  O       -1.0728670     1.3987690    -0.0973370
  C        1.6031630    -0.2426310     0.5338170
  C        2.9657370     0.2196450     0.0595640
  C       -1.3789950     0.2279050    -0.0301100
  C       -2.7361800    -0.3473490     0.2635940
  H        1.1531750     0.4718980     1.2294250
  H        1.6470430    -1.2298650     1.0038120
  H        3.6380680     0.2976270     0.9176960
  H        3.3895360    -0.4934290    -0.6504970
  H        2.8952950     1.1995690    -0.4169390
  H       -3.2299570    -0.5922870    -0.6804890
  H       -2.6567000    -1.2579100     0.8585660
  H       -3.3255750     0.4009600     0.7925810
units angstrom
no_reorient  #important for SAPT in psi4, default
symmetry c1  #important for SAPT in psi4, default
}

set PROPERTIES_ORIGIN ["COM"]
properties('MP2/aug-cc-pvtz', properties = ['dipole'])
--------------------------------------------------------------------------

    Molecular point group: c1
  Charge       = 0
  Multiplicity = 1
  Basis Set: AUG-CC-PVTZ
    Blend: AUG-CC-PVTZ
  Basis Set: (AUG-CC-PVTZ AUX)
    Blend: AUG-CC-PVTZ-JKFIT

    Orbital Energies [Eh]
    ---------------------

    Doubly Occupied:

       1A    -20.655092     2A    -20.638816     3A    -20.554496
       4A    -11.393053     5A    -11.289520     6A    -11.253180
       7A    -11.226630     8A     -1.514968     9A     -1.391843
      10A     -1.264015    11A     -1.035550    12A     -1.004334
      13A     -0.854912    14A     -0.798717    15A     -0.709043
      16A     -0.694886    17A     -0.677540    18A     -0.643775
      19A     -0.614994    20A     -0.599018    21A     -0.584082
      22A     -0.548473    23A     -0.534683    24A     -0.532012
      25A     -0.514084    26A     -0.479548    27A     -0.467501
      28A     -0.451539

  @DF-RHF Final Energy:  -380.77136443521596

   => Energetics <=

    Nuclear Repulsion Energy =            316.5358763180178130
    One-Electron Energy =               -1148.7618747786361837
    Two-Electron Energy =                 451.4546340254024130
    Total Energy =                       -380.7713644352159577
  Basis Set: (AUG-CC-PVTZ AUX)
    Blend: AUG-CC-PVTZ-RI
    Molecular point group: c1

    Geometry (in Angstrom), charge = 0, multiplicity = 1:

       Center              X                  Y                   Z               Mass
    ------------   -----------------  -----------------  -----------------  -----------------
         O            0.832087380451    -0.333338602888    -0.629592002723    15.994914619570
         O           -0.459231619549    -0.820146402888    -0.219727802723    15.994914619570
         O           -1.042147619549     1.384873397112    -0.067621002723    15.994914619570
         C            1.633882380451    -0.256526602888     0.563532997277    12.000000000000
         C            2.996456380451     0.205749397112     0.089279997277    12.000000000000
         C           -1.348275619549     0.214009397112    -0.000394002723    12.000000000000
         C           -2.705460619549    -0.361244602888     0.293309997277    12.000000000000
         H            1.183894380451     0.458002397112     1.259140997277     1.007825032230
         H            1.677762380451    -1.243760602888     1.033527997277     1.007825032230
         H            3.668787380451     0.283731397112     0.947411997277     1.007825032230
         H            3.420255380451    -0.507324602888    -0.620781002723     1.007825032230
         H            2.926014380451     1.185673397112    -0.387223002723     1.007825032230
         H           -3.199237619549    -0.606182602888    -0.650773002723     1.007825032230
         H           -2.625980619549    -1.271805602888     0.888281997277     1.007825032230
         H           -3.294855619549     0.387064397112     0.822296997277     1.007825032230

  Basis Set: AUG-CC-PVTZ
    Blend: AUG-CC-PVTZ
  Basis Set: (AUG-CC-PVTZ AUX)
    Blend: AUG-CC-PVTZ-JKFIT
	 Reference Energy          =    -380.7713644352159577 [Eh]
	 Singles Energy            =      -0.0000000000000000 [Eh]
	 Same-Spin Energy          =      -0.3642491343776420 [Eh]
	 Opposite-Spin Energy      =      -1.1703728023094966 [Eh]
	 Correlation Energy        =      -1.5346219366871385 [Eh]
	 Total Energy              =    -382.3059863719030886 [Eh]

	 ================> DF-SCS-MP2 Energies <==================
	-----------------------------------------------------------
	 SCS Same-Spin Scale       =       0.3333333333333333 [-]
	 SCS Opposite-Spin Scale   =       1.2000000000000000 [-]
	 SCS Same-Spin Energy      =      -0.1214163781258807 [Eh]
	 SCS Opposite-Spin Energy  =      -1.4044473627713958 [Eh]
	 SCS Correlation Energy    =      -1.5258637408972764 [Eh]
	 SCS Total Energy          =    -382.2972281761132081 [Eh]
	-----------------------------------------------------------

  Dipole Moment: [D]
     X:    -0.2704      Y:    -1.5287      Z:     1.6801     Total:     2.2875

*** Psi4 exiting successfully. Buy a developer a beer!
