                               Psi4 1.3.2 release

  ==> Input File <==

--------------------------------------------------------------------------
#psi4
#
memory 32 gb

molecule  {
0 1
  O        0.7924708    -0.2955822    -0.6576845
  O       -0.5076550    -0.8220740    -0.2452740
  O       -1.0728670     1.3987690    -0.0973370
  C        1.6031630    -0.2426310     0.5338170
  C        2.9657370     0.2196450     0.0595640
  C       -1.3789950     0.2279050    -0.0301100
  C       -2.7361800    -0.3473490     0.2635940
  H        1.1531750     0.4718980     1.2294250
  H        1.6470430    -1.2298650     1.0038120
  H        3.6380680     0.2976270     0.9176960
  H        3.3895360    -0.4934290    -0.6504970
  H        2.8952950     1.1995690    -0.4169390
  H       -3.2299570    -0.5922870    -0.6804890
  H       -2.6567000    -1.2579100     0.8585660
  H       -3.3255750     0.4009600     0.7925810
units angstrom
no_reorient  #important for SAPT in psi4, default
symmetry c1  #important for SAPT in psi4, default
}

set PROPERTIES_ORIGIN ["COM"]
properties('MP2/aug-cc-pvtz', properties = ['dipole'])
--------------------------------------------------------------------------

    Molecular point group: c1
  Charge       = 0
  Multiplicity = 1
  Basis Set: AUG-CC-PVTZ
    Blend: AUG-CC-PVTZ
  Basis Set: (AUG-CC-PVTZ AUX)
    Blend: AUG-CC-PVTZ-JKFIT

    Orbital Energies [Eh]
    ---------------------

    Doubly Occupied:

       1A    -20.657119     2A    -20.639833     3A    -20.554938
       4A    -11.392764     5A    -11.290345     6A    -11.251656
       7A    -11.227320     8A     -1.507902     9A     -1.390291
      10A     -1.267140    11A     -1.034410    12A     -1.004203
      13A     -0.853726    14A     -0.796858    15A     -0.707321
      16A     -0.693270    17A     -0.675810    18A     -0.643561
      19A     -0.615197    20A     -0.598566    21A     -0.582665
      22A     -0.547955    23A     -0.534901    24A     -0.532503
      25A     -0.512945    26A     -0.482356    27A     -0.466848
      28A     -0.452898

  @DF-RHF Final Energy:  -380.76879704419764

   => Energetics <=

    Nuclear Repulsion Energy =            316.1915766075950955
    One-Electron Energy =               -1148.0901425321433180
    Two-Electron Energy =                 451.1297688803505253
    Total Energy =                       -380.7687970441976404
  Basis Set: (AUG-CC-PVTZ AUX)
    Blend: AUG-CC-PVTZ-RI
    Molecular point group: c1

    Geometry (in Angstrom), charge = 0, multiplicity = 1:

       Center              X                  Y                   Z               Mass
    ------------   -----------------  -----------------  -----------------  -----------------
         O            0.827279510422    -0.310713401229    -0.628859090942    15.994914619570
         O           -0.472846289578    -0.837205201229    -0.216448590942    15.994914619570
         O           -1.038058289578     1.383637798771    -0.068511590942    15.994914619570
         C            1.637971710422    -0.257762201229     0.562642409058    12.000000000000
         C            3.000545710422     0.204513798771     0.088389409058    12.000000000000
         C           -1.344186289578     0.212773798771    -0.001284590942    12.000000000000
         C           -2.701371289578    -0.362480201229     0.292419409058    12.000000000000
         H            1.187983710422     0.456766798771     1.258250409058     1.007825032230
         H            1.681851710422    -1.244996201229     1.032637409058     1.007825032230
         H            3.672876710422     0.282495798771     0.946521409058     1.007825032230
         H            3.424344710422    -0.508560201229    -0.621671590942     1.007825032230
         H            2.930103710422     1.184437798771    -0.388113590942     1.007825032230
         H           -3.195148289578    -0.607418201229    -0.651663590942     1.007825032230
         H           -2.621891289578    -1.273041201229     0.887391409058     1.007825032230
         H           -3.290766289578     0.385828798771     0.821406409058     1.007825032230

  Basis Set: AUG-CC-PVTZ
    Blend: AUG-CC-PVTZ
  Basis Set: (AUG-CC-PVTZ AUX)
    Blend: AUG-CC-PVTZ-JKFIT
	 Reference Energy          =    -380.7687970441976404 [Eh]
	 Singles Energy            =      -0.0000000000000000 [Eh]
	 Same-Spin Energy          =      -0.3647698634636212 [Eh]
	 Opposite-Spin Energy      =      -1.1722093346017637 [Eh]
	 Correlation Energy        =      -1.5369791980653849 [Eh]
	 Total Energy              =    -382.3057762422630503 [Eh]

	 ================> DF-SCS-MP2 Energies <==================
	-----------------------------------------------------------
	 SCS Same-Spin Scale       =       0.3333333333333333 [-]
	 SCS Opposite-Spin Scale   =       1.2000000000000000 [-]
	 SCS Same-Spin Energy      =      -0.1215899544878737 [Eh]
	 SCS Opposite-Spin Energy  =      -1.4066512015221164 [Eh]
	 SCS Correlation Energy    =      -1.5282411560099902 [Eh]
	 SCS Total Energy          =    -382.2970382002076235 [Eh]
	-----------------------------------------------------------

  Dipole Moment: [D]
     X:    -0.2213      Y:    -1.5359      Z:     1.6773     Total:     2.2850

*** Psi4 exiting successfully. Buy a developer a beer!
