                               Psi4 1.3.2 release

  ==> Input File <==

--------------------------------------------------------------------------
#psi4
#
memory 32 gb

molecule  {
0 1
  O        0.8013680    -0.3194430    -0.6593080
  O       -0.5076550    -0.8220740    -0.2452740
  O       -1.0728670     1.3987690    -0.0973370
  C        1.6031630    -0.2426310     0.5338170
  C        2.9657370     0.2196450     0.0595640
  C       -1.3789950     0.2279050    -0.0301100
  C       -2.5555880    -0.2708036     0.2245127
  H        1.1531750     0.4718980     1.2294250
  H        1.6470430    -1.2298650     1.0038120
  H        3.6380680     0.2976270     0.9176960
  H        3.3895360    -0.4934290    -0.6504970
  H        2.8952950     1.1995690    -0.4169390
  H       -3.2299570    -0.5922870    -0.6804890
  H       -2.6567000    -1.2579100     0.8585660
  H       -3.3255750     0.4009600     0.7925810
units angstrom
no_reorient  #important for SAPT in psi4, default
symmetry c1  #important for SAPT in psi4, default
}

set PROPERTIES_ORIGIN ["COM"]
properties('MP2/aug-cc-pvtz', properties = ['dipole'])
--------------------------------------------------------------------------

    Molecular point group: c1
  Charge       = 0
  Multiplicity = 1
  Basis Set: AUG-CC-PVTZ
    Blend: AUG-CC-PVTZ
  Basis Set: (AUG-CC-PVTZ AUX)
    Blend: AUG-CC-PVTZ-JKFIT

    Orbital Energies [Eh]
    ---------------------

    Doubly Occupied:

       1A    -20.653245     2A    -20.638161     3A    -20.550584
       4A    -11.380752     5A    -11.288705     6A    -11.259536
       7A    -11.226167     8A     -1.508044     9A     -1.392268
      10A     -1.270913    11A     -1.064848    12A     -1.009035
      13A     -0.852307    14A     -0.796523    15A     -0.725109
      16A     -0.694844    17A     -0.679625    18A     -0.653298
      19A     -0.620729    20A     -0.598365    21A     -0.556908
      22A     -0.540716    23A     -0.529035    24A     -0.509311
      25A     -0.506004    26A     -0.478428    27A     -0.466977
      28A     -0.456969

  @DF-RHF Final Energy:  -380.71658583919805

   => Energetics <=

    Nuclear Repulsion Energy =            319.8053079243268257
    One-Electron Energy =               -1155.2289734908110859
    Two-Electron Energy =                 454.7070797272862137
    Total Energy =                       -380.7165858391980464
  Basis Set: (AUG-CC-PVTZ AUX)
    Blend: AUG-CC-PVTZ-RI
    Molecular point group: c1

    Geometry (in Angstrom), charge = 0, multiplicity = 1:

       Center              X                  Y                   Z               Mass
    ------------   -----------------  -----------------  -----------------  -----------------
         O            0.813980911251    -0.339734288166    -0.625725685823    15.994914619570
         O           -0.495042088749    -0.842365288166    -0.211691685823    15.994914619570
         O           -1.060254088749     1.378477711834    -0.063754685823    15.994914619570
         C            1.615775911251    -0.262922288166     0.567399314177    12.000000000000
         C            2.978349911251     0.199353711834     0.093146314177    12.000000000000
         C           -1.366382088749     0.207613711834     0.003472314177    12.000000000000
         C           -2.542975088749    -0.291094888166     0.258095014177    12.000000000000
         H            1.165787911251     0.451606711834     1.263007314177     1.007825032230
         H            1.659655911251    -1.250156288166     1.037394314177     1.007825032230
         H            3.650680911251     0.277335711834     0.951278314177     1.007825032230
         H            3.402148911251    -0.513720288166    -0.616914685823     1.007825032230
         H            2.907907911251     1.179277711834    -0.383356685823     1.007825032230
         H           -3.217344088749    -0.612578288166    -0.646906685823     1.007825032230
         H           -2.644087088749    -1.278201288166     0.892148314177     1.007825032230
         H           -3.312962088749     0.380668711834     0.826163314177     1.007825032230

  Basis Set: AUG-CC-PVTZ
    Blend: AUG-CC-PVTZ
  Basis Set: (AUG-CC-PVTZ AUX)
    Blend: AUG-CC-PVTZ-JKFIT
	 Reference Energy          =    -380.7165858391980464 [Eh]
	 Singles Energy            =      -0.0000000000000000 [Eh]
	 Same-Spin Energy          =      -0.3679147294990012 [Eh]
	 Opposite-Spin Energy      =      -1.1762396368425314 [Eh]
	 Correlation Energy        =      -1.5441543663415325 [Eh]
	 Total Energy              =    -382.2607402055396051 [Eh]

	 ================> DF-SCS-MP2 Energies <==================
	-----------------------------------------------------------
	 SCS Same-Spin Scale       =       0.3333333333333333 [-]
	 SCS Opposite-Spin Scale   =       1.2000000000000000 [-]
	 SCS Same-Spin Energy      =      -0.1226382431663337 [Eh]
	 SCS Opposite-Spin Energy  =      -1.4114875642110376 [Eh]
	 SCS Correlation Energy    =      -1.5341258073773714 [Eh]
	 SCS Total Energy          =    -382.2507116465754393 [Eh]
	-----------------------------------------------------------

  Dipole Moment: [D]
     X:    -0.6013      Y:    -1.6459      Z:     1.7152     Total:     2.4520

*** Psi4 exiting successfully. Buy a developer a beer!
