                               Psi4 1.3.2 release

  ==> Input File <==

--------------------------------------------------------------------------
#psi4
#
memory 32 gb

molecule  {
0 1
  O        0.8013680    -0.3194430    -0.6593080
  O       -0.4055982    -0.7225096    -0.2692661
  O       -1.0728670     1.3987690    -0.0973370
  C        1.6031630    -0.2426310     0.5338170
  C        2.9657370     0.2196450     0.0595640
  C       -1.3789950     0.2279050    -0.0301100
  C       -2.7361800    -0.3473490     0.2635940
  H        1.1531750     0.4718980     1.2294250
  H        1.6470430    -1.2298650     1.0038120
  H        3.6380680     0.2976270     0.9176960
  H        3.3895360    -0.4934290    -0.6504970
  H        2.8952950     1.1995690    -0.4169390
  H       -3.2299570    -0.5922870    -0.6804890
  H       -2.6567000    -1.2579100     0.8585660
  H       -3.3255750     0.4009600     0.7925810
units angstrom
no_reorient  #important for SAPT in psi4, default
symmetry c1  #important for SAPT in psi4, default
}

set PROPERTIES_ORIGIN ["COM"]
properties('MP2/aug-cc-pvtz', properties = ['dipole'])
--------------------------------------------------------------------------

    Molecular point group: c1
  Charge       = 0
  Multiplicity = 1
  Basis Set: AUG-CC-PVTZ
    Blend: AUG-CC-PVTZ
  Basis Set: (AUG-CC-PVTZ AUX)
    Blend: AUG-CC-PVTZ-JKFIT

    Orbital Energies [Eh]
    ---------------------

    Doubly Occupied:

       1A    -20.645092     2A    -20.631105     3A    -20.550094
       4A    -11.392602     5A    -11.286362     6A    -11.259202
       7A    -11.223429     8A     -1.560971     9A     -1.395706
      10A     -1.243510    11A     -1.040583    12A     -1.005145
      13A     -0.862272    14A     -0.808656    15A     -0.720292
      16A     -0.700947    17A     -0.689737    18A     -0.642642
      19A     -0.615919    20A     -0.600392    21A     -0.588706
      22A     -0.551182    23A     -0.530690    24A     -0.528312
      25A     -0.516088    26A     -0.473754    27A     -0.459361
      28A     -0.439740

  @DF-RHF Final Energy:  -380.76858260227976

   => Energetics <=

    Nuclear Repulsion Energy =            319.1957554045393408
    One-Electron Energy =               -1154.0036909935677159
    Two-Electron Energy =                 454.0393529867486109
    Total Energy =                       -380.7685826022797642
  Basis Set: (AUG-CC-PVTZ AUX)
    Blend: AUG-CC-PVTZ-RI
    Molecular point group: c1

    Geometry (in Angstrom), charge = 0, multiplicity = 1:

       Center              X                  Y                   Z               Mass
    ------------   -----------------  -----------------  -----------------  -----------------
         O            0.819120054419    -0.346211909319    -0.626544774572    15.994914619570
         O           -0.387846145581    -0.749278509319    -0.236502874572    15.994914619570
         O           -1.055114945581     1.372000090681    -0.064573774572    15.994914619570
         C            1.620915054419    -0.269399909319     0.566580225428    12.000000000000
         C            2.983489054419     0.192876090681     0.092327225428    12.000000000000
         C           -1.361242945581     0.201136090681     0.002653225428    12.000000000000
         C           -2.718427945581    -0.374117909319     0.296357225428    12.000000000000
         H            1.170927054419     0.445129090681     1.262188225428     1.007825032230
         H            1.664795054419    -1.256633909319     1.036575225428     1.007825032230
         H            3.655820054419     0.270858090681     0.950459225428     1.007825032230
         H            3.407288054419    -0.520197909319    -0.617733774572     1.007825032230
         H            2.913047054419     1.172800090681    -0.384175774572     1.007825032230
         H           -3.212204945581    -0.619055909319    -0.647725774572     1.007825032230
         H           -2.638947945581    -1.284678909319     0.891329225428     1.007825032230
         H           -3.307822945581     0.374191090681     0.825344225428     1.007825032230

  Basis Set: AUG-CC-PVTZ
    Blend: AUG-CC-PVTZ
  Basis Set: (AUG-CC-PVTZ AUX)
    Blend: AUG-CC-PVTZ-JKFIT
	 Reference Energy          =    -380.7685826022797642 [Eh]
	 Singles Energy            =      -0.0000000000000000 [Eh]
	 Same-Spin Energy          =      -0.3625745016680164 [Eh]
	 Opposite-Spin Energy      =      -1.1634079940225026 [Eh]
	 Correlation Energy        =      -1.5259824956905190 [Eh]
	 Total Energy              =    -382.2945650979702918 [Eh]

	 ================> DF-SCS-MP2 Energies <==================
	-----------------------------------------------------------
	 SCS Same-Spin Scale       =       0.3333333333333333 [-]
	 SCS Opposite-Spin Scale   =       1.2000000000000000 [-]
	 SCS Same-Spin Energy      =      -0.1208581672226721 [Eh]
	 SCS Opposite-Spin Energy  =      -1.3960895928270032 [Eh]
	 SCS Correlation Energy    =      -1.5169477600496752 [Eh]
	 SCS Total Energy          =    -382.2855303623294390 [Eh]
	-----------------------------------------------------------

  Dipole Moment: [D]
     X:    -0.4353      Y:    -1.6495      Z:     1.6787     Total:     2.3934

*** Psi4 exiting successfully. Buy a developer a beer!
