                               Psi4 1.3.2 release

  ==> Input File <==

--------------------------------------------------------------------------
#psi4
#
memory 32 gb

molecule  {
0 1
  O        0.8013680    -0.3194430    -0.6593080
  O       -0.5076550    -0.8220740    -0.2452740
  O       -0.9549081     1.3595935    -0.1227803
  C        1.6031630    -0.2426310     0.5338170
  C        2.9657370     0.2196450     0.0595640
  C       -1.3789950     0.2279050    -0.0301100
  C       -2.7361800    -0.3473490     0.2635940
  H        1.1531750     0.4718980     1.2294250
  H        1.6470430    -1.2298650     1.0038120
  H        3.6380680     0.2976270     0.9176960
  H        3.3895360    -0.4934290    -0.6504970
  H        2.8952950     1.1995690    -0.4169390
  H       -3.2299570    -0.5922870    -0.6804890
  H       -2.6567000    -1.2579100     0.8585660
  H       -3.3255750     0.4009600     0.7925810
units angstrom
no_reorient  #important for SAPT in psi4, default
symmetry c1  #important for SAPT in psi4, default
}

set PROPERTIES_ORIGIN ["COM"]
properties('MP2/aug-cc-pvtz', properties = ['dipole'])
--------------------------------------------------------------------------

    Molecular point group: c1
  Charge       = 0
  Multiplicity = 1
  Basis Set: AUG-CC-PVTZ
    Blend: AUG-CC-PVTZ
  Basis Set: (AUG-CC-PVTZ AUX)
    Blend: AUG-CC-PVTZ-JKFIT

    Orbital Energies [Eh]
    ---------------------

    Doubly Occupied:

       1A    -20.648277     2A    -20.635360     3A    -20.552577
       4A    -11.392540     5A    -11.286610     6A    -11.258666
       7A    -11.224790     8A     -1.505190     9A     -1.386491
      10A     -1.261965    11A     -1.036770    12A     -1.004504
      13A     -0.850679    14A     -0.793475    15A     -0.708157
      16A     -0.689839    17A     -0.673057    18A     -0.642513
      19A     -0.615106    20A     -0.598064    21A     -0.585801
      22A     -0.546568    23A     -0.533233    24A     -0.530476
      25A     -0.508792    26A     -0.477029    27A     -0.462976
      28A     -0.452972

  @DF-RHF Final Energy:  -380.76559609184278

   => Energetics <=

    Nuclear Repulsion Energy =            317.3694062823672084
    One-Electron Energy =               -1150.5450547722214196
    Two-Electron Energy =                 452.4100523980114303
    Total Energy =                       -380.7655960918427809
  Basis Set: (AUG-CC-PVTZ AUX)
    Blend: AUG-CC-PVTZ-RI
    Molecular point group: c1

    Geometry (in Angstrom), charge = 0, multiplicity = 1:

       Center              X                  Y                   Z               Mass
    ------------   -----------------  -----------------  -----------------  -----------------
         O            0.816675467928    -0.324883802642    -0.626321685552    15.994914619570
         O           -0.492347532072    -0.827514802642    -0.212287685552    15.994914619570
         O           -0.939600632072     1.354152697358    -0.089793985552    15.994914619570
         C            1.618470467928    -0.248071802642     0.566803314448    12.000000000000
         C            2.981044467928     0.214204197358     0.092550314448    12.000000000000
         C           -1.363687532072     0.222464197358     0.002876314448    12.000000000000
         C           -2.720872532072    -0.352789802642     0.296580314448    12.000000000000
         H            1.168482467928     0.466457197358     1.262411314448     1.007825032230
         H            1.662350467928    -1.235305802642     1.036798314448     1.007825032230
         H            3.653375467928     0.292186197358     0.950682314448     1.007825032230
         H            3.404843467928    -0.498869802642    -0.617510685552     1.007825032230
         H            2.910602467928     1.194128197358    -0.383952685552     1.007825032230
         H           -3.214649532072    -0.597727802642    -0.647502685552     1.007825032230
         H           -2.641392532072    -1.263350802642     0.891552314448     1.007825032230
         H           -3.310267532072     0.395519197358     0.825567314448     1.007825032230

  Basis Set: AUG-CC-PVTZ
    Blend: AUG-CC-PVTZ
  Basis Set: (AUG-CC-PVTZ AUX)
    Blend: AUG-CC-PVTZ-JKFIT
	 Reference Energy          =    -380.7655960918427809 [Eh]
	 Singles Energy            =      -0.0000000000000000 [Eh]
	 Same-Spin Energy          =      -0.3650123381099364 [Eh]
	 Opposite-Spin Energy      =      -1.1722413899982396 [Eh]
	 Correlation Energy        =      -1.5372537281081760 [Eh]
	 Total Energy              =    -382.3028498199509499 [Eh]

	 ================> DF-SCS-MP2 Energies <==================
	-----------------------------------------------------------
	 SCS Same-Spin Scale       =       0.3333333333333333 [-]
	 SCS Opposite-Spin Scale   =       1.2000000000000000 [-]
	 SCS Same-Spin Energy      =      -0.1216707793699788 [Eh]
	 SCS Opposite-Spin Energy  =      -1.4066896679978875 [Eh]
	 SCS Correlation Energy    =      -1.5283604473678662 [Eh]
	 SCS Total Energy          =    -382.2939565392106260 [Eh]
	-----------------------------------------------------------

  Dipole Moment: [D]
     X:    -0.6023      Y:    -1.4437      Z:     1.7332     Total:     2.3347

*** Psi4 exiting successfully. Buy a developer a beer!
