                               Psi4 1.3.2 release

  ==> Input File <==

--------------------------------------------------------------------------
#psi4
#
memory 32 gb

molecule  {
0 1
  O        0.8013680    -0.3194430    -0.6593080
  O       -0.5076550    -0.8220740    -0.2452740
  O       -1.1534511     1.4177800    -0.0799481
  C        1.6031630    -0.2426310     0.5338170
  C        2.9657370     0.2196450     0.0595640
  C       -1.3789950     0.2279050    -0.0301100
  C       -2.7361800    -0.3473490     0.2635940
  H        1.1531750     0.4718980     1.2294250
  H        1.6470430    -1.2298650     1.0038120
  H        3.6380680     0.2976270     0.9176960
  H        3.3895360    -0.4934290    -0.6504970
  H        2.8952950     1.1995690    -0.4169390
  H       -3.2299570    -0.5922870    -0.6804890
  H       -2.6567000    -1.2579100     0.8585660
  H       -3.3255750     0.4009600     0.7925810
units angstrom
no_reorient  #important for SAPT in psi4, default
symmetry c1  #important for SAPT in psi4, default
}

set PROPERTIES_ORIGIN ["COM"]
properties('MP2/aug-cc-pvtz', properties = ['dipole'])
--------------------------------------------------------------------------

    Molecular point group: c1
  Charge       = 0
  Multiplicity = 1
  Basis Set: AUG-CC-PVTZ
    Blend: AUG-CC-PVTZ
  Basis Set: (AUG-CC-PVTZ AUX)
    Blend: AUG-CC-PVTZ-JKFIT

    Orbital Energies [Eh]
    ---------------------

    Doubly Occupied:

       1A    -20.662083     2A    -20.643589     3A    -20.556610
       4A    -11.393663     5A    -11.292454     6A    -11.247322
       7A    -11.228963     8A     -1.509469     9A     -1.393654
      10A     -1.271731    11A     -1.033678    12A     -1.003303
      13A     -0.856159    14A     -0.798967    15A     -0.707246
      16A     -0.695724    17A     -0.677405    18A     -0.645421
      19A     -0.615232    20A     -0.598861    21A     -0.581386
      22A     -0.548951    23A     -0.537679    24A     -0.533596
      25A     -0.514757    26A     -0.484017    27A     -0.470864
      28A     -0.451124

  @DF-RHF Final Energy:  -380.76799157419759

   => Energetics <=

    Nuclear Repulsion Energy =            315.2853608215426107
    One-Electron Energy =               -1146.1988902560876795
    Two-Electron Energy =                 450.1455378603475310
    Total Energy =                       -380.7679915741975947
  Basis Set: (AUG-CC-PVTZ AUX)
    Blend: AUG-CC-PVTZ-RI
    Molecular point group: c1

    Geometry (in Angstrom), charge = 0, multiplicity = 1:

       Center              X                  Y                   Z               Mass
    ------------   -----------------  -----------------  -----------------  -----------------
         O            0.847196942170    -0.333828654693    -0.632906162914    15.994914619570
         O           -0.461826057830    -0.836459654693    -0.218872162914    15.994914619570
         O           -1.107622157830     1.403394345307    -0.053546262914    15.994914619570
         C            1.648991942170    -0.257016654693     0.560218837086    12.000000000000
         C            3.011565942170     0.205259345307     0.085965837086    12.000000000000
         C           -1.333166057830     0.213519345307    -0.003708162914    12.000000000000
         C           -2.690351057830    -0.361734654693     0.289995837086    12.000000000000
         H            1.199003942170     0.457512345307     1.255826837086     1.007825032230
         H            1.692871942170    -1.244250654693     1.030213837086     1.007825032230
         H            3.683896942170     0.283241345307     0.944097837086     1.007825032230
         H            3.435364942170    -0.507814654693    -0.624095162914     1.007825032230
         H            2.941123942170     1.185183345307    -0.390537162914     1.007825032230
         H           -3.184128057830    -0.606672654693    -0.654087162914     1.007825032230
         H           -2.610871057830    -1.272295654693     0.884967837086     1.007825032230
         H           -3.279746057830     0.386574345307     0.818982837086     1.007825032230

  Basis Set: AUG-CC-PVTZ
    Blend: AUG-CC-PVTZ
  Basis Set: (AUG-CC-PVTZ AUX)
    Blend: AUG-CC-PVTZ-JKFIT
	 Reference Energy          =    -380.7679915741975947 [Eh]
	 Singles Energy            =      -0.0000000000000000 [Eh]
	 Same-Spin Energy          =      -0.3646610725356848 [Eh]
	 Opposite-Spin Energy      =      -1.1722161517532395 [Eh]
	 Correlation Energy        =      -1.5368772242889244 [Eh]
	 Total Energy              =    -382.3048687984864955 [Eh]

	 ================> DF-SCS-MP2 Energies <==================
	-----------------------------------------------------------
	 SCS Same-Spin Scale       =       0.3333333333333333 [-]
	 SCS Opposite-Spin Scale   =       1.2000000000000000 [-]
	 SCS Same-Spin Energy      =      -0.1215536908452283 [Eh]
	 SCS Opposite-Spin Energy  =      -1.4066593821038873 [Eh]
	 SCS Correlation Energy    =      -1.5282130729491157 [Eh]
	 SCS Total Energy          =    -382.2962046471467374 [Eh]
	-----------------------------------------------------------

  Dipole Moment: [D]
     X:     0.0098      Y:    -1.5318      Z:     1.6417     Total:     2.2453

*** Psi4 exiting successfully. Buy a developer a beer!
