                               Psi4 1.3.2 release

  ==> Input File <==

--------------------------------------------------------------------------
#psi4
#
memory 32 gb

molecule  {
0 1
  O        0.8013680    -0.3194430    -0.6593080
  O       -0.5489470    -0.8123595    -0.3923136
  O       -1.0728670     1.3987690    -0.0973370
  C        1.6031630    -0.2426310     0.5338170
  C        2.9657370     0.2196450     0.0595640
  C       -1.3789950     0.2279050    -0.0301100
  C       -2.7361800    -0.3473490     0.2635940
  H        1.1531750     0.4718980     1.2294250
  H        1.6470430    -1.2298650     1.0038120
  H        3.6380680     0.2976270     0.9176960
  H        3.3895360    -0.4934290    -0.6504970
  H        2.8952950     1.1995690    -0.4169390
  H       -3.2299570    -0.5922870    -0.6804890
  H       -2.6567000    -1.2579100     0.8585660
  H       -3.3255750     0.4009600     0.7925810
units angstrom
no_reorient  #important for SAPT in psi4, default
symmetry c1  #important for SAPT in psi4, default
}

set PROPERTIES_ORIGIN ["COM"]
properties('MP2/aug-cc-pvtz', properties = ['dipole'])
--------------------------------------------------------------------------

    Molecular point group: c1
  Charge       = 0
  Multiplicity = 1
  Basis Set: AUG-CC-PVTZ
    Blend: AUG-CC-PVTZ
  Basis Set: (AUG-CC-PVTZ AUX)
    Blend: AUG-CC-PVTZ-JKFIT

    Orbital Energies [Eh]
    ---------------------

    Doubly Occupied:

       1A    -20.657718     2A    -20.636233     3A    -20.555629
       4A    -11.392834     5A    -11.291988     6A    -11.252063
       7A    -11.229065     8A     -1.505012     9A     -1.390289
      10A     -1.268807    11A     -1.036094    12A     -1.003953
      13A     -0.855955    14A     -0.793913    15A     -0.706441
      16A     -0.694392    17A     -0.674103    18A     -0.645902
      19A     -0.614553    20A     -0.598879    21A     -0.583737
      22A     -0.547889    23A     -0.537095    24A     -0.533504
      25A     -0.512355    26A     -0.475688    27A     -0.470225
      28A     -0.452052

  @DF-RHF Final Energy:  -380.76645806027710

   => Energetics <=

    Nuclear Repulsion Energy =            315.4590046886835353
    One-Electron Energy =               -1146.6181926959604880
    Two-Electron Energy =                 450.3927299469998502
    Total Energy =                       -380.7664580602771025
  Basis Set: (AUG-CC-PVTZ AUX)
    Blend: AUG-CC-PVTZ-RI
    Molecular point group: c1

    Geometry (in Angstrom), charge = 0, multiplicity = 1:

       Center              X                  Y                   Z               Mass
    ------------   -----------------  -----------------  -----------------  -----------------
         O            0.841156674731    -0.332399529087    -0.607629017775    15.994914619570
         O           -0.509158325269    -0.825316029087    -0.340634617775    15.994914619570
         O           -1.033078325269     1.385812470913    -0.045658017775    15.994914619570
         C            1.642951674731    -0.255587529087     0.585495982225    12.000000000000
         C            3.005525674731     0.206688470913     0.111242982225    12.000000000000
         C           -1.339206325269     0.214948470913     0.021568982225    12.000000000000
         C           -2.696391325269    -0.360305529087     0.315272982225    12.000000000000
         H            1.192963674731     0.458941470913     1.281103982225     1.007825032230
         H            1.686831674731    -1.242821529087     1.055490982225     1.007825032230
         H            3.677856674731     0.284670470913     0.969374982225     1.007825032230
         H            3.429324674731    -0.506385529087    -0.598818017775     1.007825032230
         H            2.935083674731     1.186612470913    -0.365260017775     1.007825032230
         H           -3.190168325269    -0.605243529087    -0.628810017775     1.007825032230
         H           -2.616911325269    -1.270866529087     0.910244982225     1.007825032230
         H           -3.285786325269     0.388003470913     0.844259982225     1.007825032230

  Basis Set: AUG-CC-PVTZ
    Blend: AUG-CC-PVTZ
  Basis Set: (AUG-CC-PVTZ AUX)
    Blend: AUG-CC-PVTZ-JKFIT
	 Reference Energy          =    -380.7664580602771025 [Eh]
	 Singles Energy            =      -0.0000000000000000 [Eh]
	 Same-Spin Energy          =      -0.3645299281095441 [Eh]
	 Opposite-Spin Energy      =      -1.1716889813401812 [Eh]
	 Correlation Energy        =      -1.5362189094497252 [Eh]
	 Total Energy              =    -382.3026769697268037 [Eh]

	 ================> DF-SCS-MP2 Energies <==================
	-----------------------------------------------------------
	 SCS Same-Spin Scale       =       0.3333333333333333 [-]
	 SCS Opposite-Spin Scale   =       1.2000000000000000 [-]
	 SCS Same-Spin Energy      =      -0.1215099760365147 [Eh]
	 SCS Opposite-Spin Energy  =      -1.4060267776082174 [Eh]
	 SCS Correlation Energy    =      -1.5275367536447320 [Eh]
	 SCS Total Energy          =    -382.2939948139218131 [Eh]
	-----------------------------------------------------------

  Dipole Moment: [D]
     X:    -0.1860      Y:    -1.5007      Z:     1.8010     Total:     2.3516

*** Psi4 exiting successfully. Buy a developer a beer!
