                               Psi4 1.4a3.dev225

  ==> Input File <==

--------------------------------------------------------------------------
#psi4
#
memory 32 gb

molecule  {
0 1
  O       -1.7104100     0.5323320    -0.0000080
  O        1.7104100    -0.5323320    -0.0000010
  C       -0.6421510    -0.4001880    -0.0000140
  C        0.6421510     0.4001890    -0.0000170
  C       -2.9687670    -0.1207390     0.0000150
  C        2.9687670     0.1207390     0.0000180
  H       -0.6784440    -1.0464640     0.8895520
  H       -0.6784560    -1.0464630    -0.8895800
  H        0.6784430     1.0464730     0.8895430
  H        0.6784570     1.0464550    -0.8895890
  H       -3.7295280     0.6607040     0.0000130
  H       -3.0932130    -0.7493130     0.8923640
  H       -3.0932330    -0.7493380    -0.8923130
  H        3.0932340     0.7493310    -0.8923150
  H        3.6999303    -0.6858111    -0.0654621
  H        3.0932120     0.7493200     0.8923620
units angstrom
no_reorient  #important for SAPT in psi4, default
symmetry c1  #important for SAPT in psi4, default
}

set PROPERTIES_ORIGIN ["COM"]
properties('MP2/aug-cc-pvtz', properties = ['dipole'])
--------------------------------------------------------------------------

    Molecular point group: c1
  Charge       = 0
  Multiplicity = 1
  Basis Set: AUG-CC-PVTZ
    Blend: AUG-CC-PVTZ
  Basis Set: (AUG-CC-PVTZ AUX)
    Blend: AUG-CC-PVTZ-JKFIT

    Orbital Energies [Eh]
    ---------------------

    Doubly Occupied:

       1A    -20.558698     2A    -20.558294     3A    -11.271977
       4A    -11.271393     5A    -11.271376     6A    -11.271277
       7A     -1.379098     8A     -1.367540     9A     -1.024073
      10A     -0.933318    11A     -0.883977    12A     -0.829500
      13A     -0.687177    14A     -0.666347    15A     -0.653612
      16A     -0.642561    17A     -0.611232    18A     -0.592702
      19A     -0.574185    20A     -0.515023    21A     -0.502639
      22A     -0.490010    23A     -0.474604    24A     -0.426770
      25A     -0.425121

  @DF-RHF Final Energy:  -307.09966577914076

   => Energetics <=

    Nuclear Repulsion Energy =            252.6761676540663757
    One-Electron Energy =                -919.7866580484183032
    Two-Electron Energy =                 360.0108246152111633
    Total Energy =                       -307.0996657791407642
  Basis Set: (AUG-CC-PVTZ AUX)
    Blend: AUG-CC-PVTZ-RI
    Molecular point group: c1

    Geometry (in Angstrom), charge = 0, multiplicity = 1:

       Center              X                  Y                   Z               Mass
    ------------   -----------------  -----------------  -----------------  -----------------
         O           -1.710078813823     0.532612793775     0.000725411971    15.994914619570
         O            1.710741186177    -0.532051206225     0.000732411971    15.994914619570
         C           -0.641819813823    -0.399907206225     0.000719411971    12.000000000000
         C            0.642482186177     0.400469793775     0.000716411971    12.000000000000
         C           -2.968435813823    -0.120458206225     0.000748411971    12.000000000000
         C            2.969098186177     0.121019793775     0.000751411971    12.000000000000
         H           -0.678112813823    -1.046183206225     0.890285411971     1.007825032230
         H           -0.678124813823    -1.046182206225    -0.888846588029     1.007825032230
         H            0.678774186177     1.046753793775     0.890276411971     1.007825032230
         H            0.678788186177     1.046735793775    -0.888855588029     1.007825032230
         H           -3.729196813823     0.660984793775     0.000746411971     1.007825032230
         H           -3.092881813823    -0.749032206225     0.893097411971     1.007825032230
         H           -3.092901813823    -0.749057206225    -0.891579588029     1.007825032230
         H            3.093565186177     0.749611793775    -0.891581588029     1.007825032230
         H            3.700261486177    -0.685530306225    -0.064728688029     1.007825032230
         H            3.093543186177     0.749600793775     0.893095411971     1.007825032230

  Basis Set: AUG-CC-PVTZ
    Blend: AUG-CC-PVTZ
  Basis Set: (AUG-CC-PVTZ AUX)
    Blend: AUG-CC-PVTZ-JKFIT
	 Reference Energy          =    -307.0996657791407642 [Eh]
	 Singles Energy            =      -0.0000000000000000 [Eh]
	 Same-Spin Energy          =      -0.2947827893023837 [Eh]
	 Opposite-Spin Energy      =      -1.0072810021821139 [Eh]
	 Correlation Energy        =      -1.3020637914844977 [Eh]
	 Total Energy              =    -308.4017295706252639 [Eh]

	 ================> DF-SCS-MP2 Energies <==================
	-----------------------------------------------------------
	 SCS Same-Spin Scale       =       0.3333333333333333 [-]
	 SCS Opposite-Spin Scale   =       1.2000000000000000 [-]
	 SCS Same-Spin Energy      =      -0.0982609297674612 [Eh]
	 SCS Opposite-Spin Energy  =      -1.2087372026185366 [Eh]
	 SCS Correlation Energy    =      -1.3069981323859978 [Eh]
	 SCS Total Energy          =    -308.4066639115267776 [Eh]
	-----------------------------------------------------------

  Dipole Moment: [D]
     X:    -0.0030      Y:    -0.0012      Z:    -0.0224     Total:     0.0226

*** Psi4 exiting successfully. Buy a developer a beer!
