                               Psi4 1.4a3.dev225

  ==> Input File <==

--------------------------------------------------------------------------
#psi4
#
memory 32 gb

molecule  {
0 1
  O       -1.7104100     0.5323320    -0.0000080
  O        1.7104100    -0.5323320    -0.0000010
  C       -0.6421510    -0.4001880    -0.0000140
  C        0.6421510     0.4001890    -0.0000170
  C       -2.9687670    -0.1207390     0.0000150
  C        2.9687670     0.1207390     0.0000180
  H       -0.6784440    -1.0464640     0.8895520
  H       -0.6784560    -1.0464630    -0.8895800
  H        0.6784430     1.0464730     0.8895430
  H        0.6784570     1.0464550    -0.8895890
  H       -3.7295280     0.6607040     0.0000130
  H       -3.0932130    -0.7493130     0.8923640
  H       -3.0932330    -0.7493380    -0.8923130
  H        3.0932340     0.7493310    -0.8923150
  H        3.7669350    -0.6159484     0.0981509
  H        3.0932120     0.7493200     0.8923620
units angstrom
no_reorient  #important for SAPT in psi4, default
symmetry c1  #important for SAPT in psi4, default
}

set PROPERTIES_ORIGIN ["COM"]
properties('MP2/aug-cc-pvtz', properties = ['dipole'])
--------------------------------------------------------------------------

    Molecular point group: c1
  Charge       = 0
  Multiplicity = 1
  Basis Set: AUG-CC-PVTZ
    Blend: AUG-CC-PVTZ
  Basis Set: (AUG-CC-PVTZ AUX)
    Blend: AUG-CC-PVTZ-JKFIT

    Orbital Energies [Eh]
    ---------------------

    Doubly Occupied:

       1A    -20.559622     2A    -20.558976     3A    -11.272633
       4A    -11.271908     5A    -11.271565     6A    -11.271553
       7A     -1.379339     8A     -1.367741     9A     -1.024025
      10A     -0.933767    11A     -0.885412    12A     -0.829770
      13A     -0.687564    14A     -0.666835    15A     -0.653287
      16A     -0.642665    17A     -0.611278    18A     -0.593815
      19A     -0.574032    20A     -0.515589    21A     -0.502879
      22A     -0.488590    23A     -0.474811    24A     -0.427095
      25A     -0.425467

  @DF-RHF Final Energy:  -307.09924450661464

   => Energetics <=

    Nuclear Repulsion Energy =            252.5784812851567835
    One-Electron Energy =                -919.5750137416761163
    Two-Electron Energy =                 359.8972879499047508
    Total Energy =                       -307.0992445066146388
  Basis Set: (AUG-CC-PVTZ AUX)
    Blend: AUG-CC-PVTZ-RI
    Molecular point group: c1

    Geometry (in Angstrom), charge = 0, multiplicity = 1:

       Center              X                  Y                   Z               Mass
    ------------   -----------------  -----------------  -----------------  -----------------
         O           -1.710828569055     0.531831058689    -0.001105350690    15.994914619570
         O            1.709991430945    -0.532832941311    -0.001098350690    15.994914619570
         C           -0.642569569055    -0.400688941311    -0.001111350690    12.000000000000
         C            0.641732430945     0.399688058689    -0.001114350690    12.000000000000
         C           -2.969185569055    -0.121239941311    -0.001082350690    12.000000000000
         C            2.968348430945     0.120238058689    -0.001079350690    12.000000000000
         H           -0.678862569055    -1.046964941311     0.888454649310     1.007825032230
         H           -0.678874569055    -1.046963941311    -0.890677350690     1.007825032230
         H            0.678024430945     1.045972058689     0.888445649310     1.007825032230
         H            0.678038430945     1.045954058689    -0.890686350690     1.007825032230
         H           -3.729946569055     0.660203058689    -0.001084350690     1.007825032230
         H           -3.093631569055    -0.749813941311     0.891266649310     1.007825032230
         H           -3.093651569055    -0.749838941311    -0.893410350690     1.007825032230
         H            3.092815430945     0.748830058689    -0.893412350690     1.007825032230
         H            3.766516430945    -0.616449341311     0.097053549310     1.007825032230
         H            3.092793430945     0.748819058689     0.891264649310     1.007825032230

  Basis Set: AUG-CC-PVTZ
    Blend: AUG-CC-PVTZ
  Basis Set: (AUG-CC-PVTZ AUX)
    Blend: AUG-CC-PVTZ-JKFIT
	 Reference Energy          =    -307.0992445066146388 [Eh]
	 Singles Energy            =      -0.0000000000000000 [Eh]
	 Same-Spin Energy          =      -0.2947599483825113 [Eh]
	 Opposite-Spin Energy      =      -1.0071640253352070 [Eh]
	 Correlation Energy        =      -1.3019239737177184 [Eh]
	 Total Energy              =    -308.4011684803323305 [Eh]

	 ================> DF-SCS-MP2 Energies <==================
	-----------------------------------------------------------
	 SCS Same-Spin Scale       =       0.3333333333333333 [-]
	 SCS Opposite-Spin Scale   =       1.2000000000000000 [-]
	 SCS Same-Spin Energy      =      -0.0982533161275038 [Eh]
	 SCS Opposite-Spin Energy  =      -1.2085968304022483 [Eh]
	 SCS Correlation Energy    =      -1.3068501465297520 [Eh]
	 SCS Total Energy          =    -308.4060946531444074 [Eh]
	-----------------------------------------------------------

  Dipole Moment: [D]
     X:     0.0021      Y:     0.0064      Z:     0.0363     Total:     0.0369

*** Psi4 exiting successfully. Buy a developer a beer!
