                               Psi4 1.4a3.dev225

  ==> Input File <==

--------------------------------------------------------------------------
#psi4
#
memory 32 gb

molecule  {
0 1
  O       -1.7104100     0.5323320    -0.0000080
  O        1.7104100    -0.5323320    -0.0000010
  C       -0.6421510    -0.4001880    -0.0000140
  C        0.6251773     0.3896110    -0.0000170
  C       -2.9687670    -0.1207390     0.0000150
  C        2.9687670     0.1207390     0.0000180
  H       -0.6784440    -1.0464640     0.8895520
  H       -0.6784560    -1.0464630    -0.8895800
  H        0.6784430     1.0464730     0.8895430
  H        0.6784570     1.0464550    -0.8895890
  H       -3.7295280     0.6607040     0.0000130
  H       -3.0932130    -0.7493130     0.8923640
  H       -3.0932330    -0.7493380    -0.8923130
  H        3.0932340     0.7493310    -0.8923150
  H        3.7295280    -0.6607040     0.0000230
  H        3.0932120     0.7493200     0.8923620
units angstrom
no_reorient  #important for SAPT in psi4, default
symmetry c1  #important for SAPT in psi4, default
}

set PROPERTIES_ORIGIN ["COM"]
properties('MP2/aug-cc-pvtz', properties = ['dipole'])
--------------------------------------------------------------------------

    Molecular point group: c1
  Charge       = 0
  Multiplicity = 1
  Basis Set: AUG-CC-PVTZ
    Blend: AUG-CC-PVTZ
  Basis Set: (AUG-CC-PVTZ AUX)
    Blend: AUG-CC-PVTZ-JKFIT

    Orbital Energies [Eh]
    ---------------------

    Doubly Occupied:

       1A    -20.559469     2A    -20.557792     3A    -11.272725
       4A    -11.271875     5A    -11.271561     6A    -11.271313
       7A     -1.378753     8A     -1.366316     9A     -1.027822
      10A     -0.933362    11A     -0.885073    12A     -0.828313
      13A     -0.687315    14A     -0.666805    15A     -0.654486
      16A     -0.641785    17A     -0.609820    18A     -0.592927
      19A     -0.574775    20A     -0.512777    21A     -0.505641
      22A     -0.489071    23A     -0.477699    24A     -0.426739
      25A     -0.424267

  @DF-RHF Final Energy:  -307.09988085289882

   => Energetics <=

    Nuclear Repulsion Energy =            252.7527841330610272
    One-Electron Energy =                -919.9283683716761288
    Two-Electron Energy =                 360.0757033857162810
    Total Energy =                       -307.0998808528988206
  Basis Set: (AUG-CC-PVTZ AUX)
    Blend: AUG-CC-PVTZ-RI
    Molecular point group: c1

    Geometry (in Angstrom), charge = 0, multiplicity = 1:

       Center              X                  Y                   Z               Mass
    ------------   -----------------  -----------------  -----------------  -----------------
         O           -1.708148550650     0.533741189502    -0.000007339558    15.994914619570
         O            1.712671449350    -0.530922810498    -0.000000339558    15.994914619570
         C           -0.639889550650    -0.398778810498    -0.000013339558    12.000000000000
         C            0.627438749350     0.391020189502    -0.000016339558    12.000000000000
         C           -2.966505550650    -0.119329810498     0.000015660442    12.000000000000
         C            2.971028449350     0.122148189502     0.000018660442    12.000000000000
         H           -0.676182550650    -1.045054810498     0.889552660442     1.007825032230
         H           -0.676194550650    -1.045053810498    -0.889579339558     1.007825032230
         H            0.680704449350     1.047882189502     0.889543660442     1.007825032230
         H            0.680718449350     1.047864189502    -0.889588339558     1.007825032230
         H           -3.727266550650     0.662113189502     0.000013660442     1.007825032230
         H           -3.090951550650    -0.747903810498     0.892364660442     1.007825032230
         H           -3.090971550650    -0.747928810498    -0.892312339558     1.007825032230
         H            3.095495449350     0.750740189502    -0.892314339558     1.007825032230
         H            3.731789449350    -0.659294810498     0.000023660442     1.007825032230
         H            3.095473449350     0.750729189502     0.892362660442     1.007825032230

  Basis Set: AUG-CC-PVTZ
    Blend: AUG-CC-PVTZ
  Basis Set: (AUG-CC-PVTZ AUX)
    Blend: AUG-CC-PVTZ-JKFIT
	 Reference Energy          =    -307.0998808528988206 [Eh]
	 Singles Energy            =      -0.0000000000000000 [Eh]
	 Same-Spin Energy          =      -0.2948056041582118 [Eh]
	 Opposite-Spin Energy      =      -1.0072481809759490 [Eh]
	 Correlation Energy        =      -1.3020537851341609 [Eh]
	 Total Energy              =    -308.4019346380329694 [Eh]

	 ================> DF-SCS-MP2 Energies <==================
	-----------------------------------------------------------
	 SCS Same-Spin Scale       =       0.3333333333333333 [-]
	 SCS Opposite-Spin Scale   =       1.2000000000000000 [-]
	 SCS Same-Spin Energy      =      -0.0982685347194039 [Eh]
	 SCS Opposite-Spin Energy  =      -1.2086978171711389 [Eh]
	 SCS Correlation Energy    =      -1.3069663518905428 [Eh]
	 SCS Total Energy          =    -308.4068472047893579 [Eh]
	-----------------------------------------------------------

  Dipole Moment: [D]
     X:    -0.0372      Y:    -0.0078      Z:     0.0000     Total:     0.0380

*** Psi4 exiting successfully. Buy a developer a beer!
