                               Psi4 1.4a3.dev225

  ==> Input File <==

--------------------------------------------------------------------------
#psi4
#
memory 32 gb

molecule  {
0 1
  O       -1.7104100     0.5323320    -0.0000080
  O        1.7104100    -0.5323320    -0.0000010
  C       -0.6421510    -0.4001880    -0.0000140
  C        0.6421510     0.4001890    -0.0000170
  C       -2.9687670    -0.1207390     0.0000150
  C        2.9687670     0.1207390     0.0000180
  H       -0.6784440    -1.0464640     0.8895520
  H       -0.6784560    -1.0464630    -0.8895800
  H        0.6784430     1.0464730     0.8895430
  H        0.6784570     1.0464550    -0.8895890
  H       -3.7295280     0.6607040     0.0000130
  H       -3.0932130    -0.7493130     0.8923640
  H       -3.0932330    -0.7493380    -0.8923130
  H        3.0932340     0.7493310    -0.8923150
  H        3.7295280    -0.6607040     0.0000230
  H        3.0954776     0.7607635     0.9086074
units angstrom
no_reorient  #important for SAPT in psi4, default
symmetry c1  #important for SAPT in psi4, default
}

set PROPERTIES_ORIGIN ["COM"]
properties('MP2/aug-cc-pvtz', properties = ['dipole'])
--------------------------------------------------------------------------

    Molecular point group: c1
  Charge       = 0
  Multiplicity = 1
  Basis Set: AUG-CC-PVTZ
    Blend: AUG-CC-PVTZ
  Basis Set: (AUG-CC-PVTZ AUX)
    Blend: AUG-CC-PVTZ-JKFIT

    Orbital Energies [Eh]
    ---------------------

    Doubly Occupied:

       1A    -20.559307     2A    -20.558874     3A    -11.273930
       4A    -11.272321     5A    -11.271656     6A    -11.271497
       7A     -1.379355     8A     -1.367778     9A     -1.023954
      10A     -0.932604    11A     -0.883574    12A     -0.829557
      13A     -0.687126    14A     -0.666084    15A     -0.653403
      16A     -0.642054    17A     -0.610879    18A     -0.593250
      19A     -0.573357    20A     -0.514124    21A     -0.503461
      22A     -0.489681    23A     -0.474838    24A     -0.426876
      25A     -0.425131

  @DF-RHF Final Energy:  -307.09982529473859

   => Energetics <=

    Nuclear Repulsion Energy =            252.5516415141615880
    One-Electron Energy =                -919.5335869552034183
    Two-Electron Energy =                 359.8821201463032367
    Total Energy =                       -307.0998252947385936
  Basis Set: (AUG-CC-PVTZ AUX)
    Blend: AUG-CC-PVTZ-RI
    Molecular point group: c1

    Geometry (in Angstrom), charge = 0, multiplicity = 1:

       Center              X                  Y                   Z               Mass
    ------------   -----------------  -----------------  -----------------  -----------------
         O           -1.710435351139     0.532203807486    -0.000189118951    15.994914619570
         O            1.710384648861    -0.532460192514    -0.000182118951    15.994914619570
         C           -0.642176351139    -0.400316192514    -0.000195118951    12.000000000000
         C            0.642125648861     0.400060807486    -0.000198118951    12.000000000000
         C           -2.968792351139    -0.120867192514    -0.000166118951    12.000000000000
         C            2.968741648861     0.120610807486    -0.000163118951    12.000000000000
         H           -0.678469351139    -1.046592192514     0.889370881049     1.007825032230
         H           -0.678481351139    -1.046591192514    -0.889761118951     1.007825032230
         H            0.678417648861     1.046344807486     0.889361881049     1.007825032230
         H            0.678431648861     1.046326807486    -0.889770118951     1.007825032230
         H           -3.729553351139     0.660575807486    -0.000168118951     1.007825032230
         H           -3.093238351139    -0.749441192514     0.892182881049     1.007825032230
         H           -3.093258351139    -0.749466192514    -0.892494118951     1.007825032230
         H            3.093208648861     0.749202807486    -0.892496118951     1.007825032230
         H            3.729502648861    -0.660832192514    -0.000158118951     1.007825032230
         H            3.095452248861     0.760635307486     0.908426281049     1.007825032230

  Basis Set: AUG-CC-PVTZ
    Blend: AUG-CC-PVTZ
  Basis Set: (AUG-CC-PVTZ AUX)
    Blend: AUG-CC-PVTZ-JKFIT
	 Reference Energy          =    -307.0998252947385936 [Eh]
	 Singles Energy            =      -0.0000000000000000 [Eh]
	 Same-Spin Energy          =      -0.2947532853541780 [Eh]
	 Opposite-Spin Energy      =      -1.0073197288785185 [Eh]
	 Correlation Energy        =      -1.3020730142326964 [Eh]
	 Total Energy              =    -308.4018983089712833 [Eh]

	 ================> DF-SCS-MP2 Energies <==================
	-----------------------------------------------------------
	 SCS Same-Spin Scale       =       0.3333333333333333 [-]
	 SCS Opposite-Spin Scale   =       1.2000000000000000 [-]
	 SCS Same-Spin Energy      =      -0.0982510951180593 [Eh]
	 SCS Opposite-Spin Energy  =      -1.2087836746542222 [Eh]
	 SCS Correlation Energy    =      -1.3070347697722815 [Eh]
	 SCS Total Energy          =    -308.4068600645108518 [Eh]
	-----------------------------------------------------------

  Dipole Moment: [D]
     X:    -0.0100      Y:    -0.0101      Z:    -0.0129     Total:     0.0192

*** Psi4 exiting successfully. Buy a developer a beer!
