                               Psi4 1.4a3.dev225

  ==> Input File <==

--------------------------------------------------------------------------
#psi4
#
memory 32 gb

molecule  {
0 1
  O       -1.7104100     0.5323320    -0.0000080
  O        1.7104100    -0.5323320    -0.0000010
  C       -0.6421510    -0.4001880    -0.0000140
  C        0.6591247     0.4107670    -0.0000170
  C       -2.9687670    -0.1207390     0.0000150
  C        2.9687670     0.1207390     0.0000180
  H       -0.6784440    -1.0464640     0.8895520
  H       -0.6784560    -1.0464630    -0.8895800
  H        0.6784430     1.0464730     0.8895430
  H        0.6784570     1.0464550    -0.8895890
  H       -3.7295280     0.6607040     0.0000130
  H       -3.0932130    -0.7493130     0.8923640
  H       -3.0932330    -0.7493380    -0.8923130
  H        3.0932340     0.7493310    -0.8923150
  H        3.7295280    -0.6607040     0.0000230
  H        3.0932120     0.7493200     0.8923620
units angstrom
no_reorient  #important for SAPT in psi4, default
symmetry c1  #important for SAPT in psi4, default
}

set PROPERTIES_ORIGIN ["COM"]
properties('MP2/aug-cc-pvtz', properties = ['dipole'])
--------------------------------------------------------------------------

    Molecular point group: c1
  Charge       = 0
  Multiplicity = 1
  Basis Set: AUG-CC-PVTZ
    Blend: AUG-CC-PVTZ
  Basis Set: (AUG-CC-PVTZ AUX)
    Blend: AUG-CC-PVTZ-JKFIT

    Orbital Energies [Eh]
    ---------------------

    Doubly Occupied:

       1A    -20.559838     2A    -20.558174     3A    -11.272169
       4A    -11.271604     5A    -11.271203     6A    -11.271037
       7A     -1.380162     8A     -1.368361     9A     -1.020476
      10A     -0.933473    11A     -0.883995    12A     -0.830799
      13A     -0.687335    14A     -0.666020    15A     -0.652250
      16A     -0.643483    17A     -0.612267    18A     -0.593367
      19A     -0.574078    20A     -0.516599    21A     -0.502429
      22A     -0.490484    23A     -0.470529    24A     -0.428271
      25A     -0.425034

  @DF-RHF Final Energy:  -307.09999378333623

   => Energetics <=

    Nuclear Repulsion Energy =            252.5150915877056264
    One-Electron Energy =                -919.4632992828688884
    Two-Electron Energy =                 359.8482139118270879
    Total Energy =                       -307.0999937833362310
  Basis Set: (AUG-CC-PVTZ AUX)
    Blend: AUG-CC-PVTZ-RI
    Molecular point group: c1

    Geometry (in Angstrom), charge = 0, multiplicity = 1:

       Center              X                  Y                   Z               Mass
    ------------   -----------------  -----------------  -----------------  -----------------
         O           -1.712671449350     0.530922521654    -0.000007339558    15.994914619570
         O            1.708148550650    -0.533741478346    -0.000000339558    15.994914619570
         C           -0.644412449350    -0.401597478346    -0.000013339558    12.000000000000
         C            0.656863250650     0.409357521654    -0.000016339558    12.000000000000
         C           -2.971028449350    -0.122148478346     0.000015660442    12.000000000000
         C            2.966505550650     0.119329521654     0.000018660442    12.000000000000
         H           -0.680705449350    -1.047873478346     0.889552660442     1.007825032230
         H           -0.680717449350    -1.047872478346    -0.889579339558     1.007825032230
         H            0.676181550650     1.045063521654     0.889543660442     1.007825032230
         H            0.676195550650     1.045045521654    -0.889588339558     1.007825032230
         H           -3.731789449350     0.659294521654     0.000013660442     1.007825032230
         H           -3.095474449350    -0.750722478346     0.892364660442     1.007825032230
         H           -3.095494449350    -0.750747478346    -0.892312339558     1.007825032230
         H            3.090972550650     0.747921521654    -0.892314339558     1.007825032230
         H            3.727266550650    -0.662113478346     0.000023660442     1.007825032230
         H            3.090950550650     0.747910521654     0.892362660442     1.007825032230

  Basis Set: AUG-CC-PVTZ
    Blend: AUG-CC-PVTZ
  Basis Set: (AUG-CC-PVTZ AUX)
    Blend: AUG-CC-PVTZ-JKFIT
	 Reference Energy          =    -307.0999937833362310 [Eh]
	 Singles Energy            =      -0.0000000000000000 [Eh]
	 Same-Spin Energy          =      -0.2947026593875260 [Eh]
	 Opposite-Spin Energy      =      -1.0071675999687131 [Eh]
	 Correlation Energy        =      -1.3018702593562392 [Eh]
	 Total Energy              =    -308.4018640426924662 [Eh]

	 ================> DF-SCS-MP2 Energies <==================
	-----------------------------------------------------------
	 SCS Same-Spin Scale       =       0.3333333333333333 [-]
	 SCS Opposite-Spin Scale   =       1.2000000000000000 [-]
	 SCS Same-Spin Energy      =      -0.0982342197958420 [Eh]
	 SCS Opposite-Spin Energy  =      -1.2086011199624556 [Eh]
	 SCS Correlation Energy    =      -1.3068353397582975 [Eh]
	 SCS Total Energy          =    -308.4068291230945533 [Eh]
	-----------------------------------------------------------

  Dipole Moment: [D]
     X:     0.0365      Y:     0.0073      Z:     0.0000     Total:     0.0372

*** Psi4 exiting successfully. Buy a developer a beer!
