                               Psi4 1.4a3.dev225

  ==> Input File <==

--------------------------------------------------------------------------
#psi4
#
memory 32 gb

molecule  {
0 1
  O       -1.7104100     0.5323320    -0.0000080
  O        1.7104100    -0.5323320    -0.0000010
  C       -0.6421510    -0.4001880    -0.0000140
  C        0.6421510     0.4001890    -0.0000170
  C       -2.9687670    -0.1207390     0.0000150
  C        2.9687670     0.1207390     0.0000180
  H       -0.6784440    -1.0464640     0.8895520
  H       -0.6784560    -1.0464630    -0.8895800
  H        0.6784430     1.0464730     0.8895430
  H        0.6784570     1.0464550    -0.8895890
  H       -3.7295280     0.6607040     0.0000130
  H       -3.0932130    -0.7493130     0.8923640
  H       -3.0932330    -0.7493380    -0.8923130
  H        3.0932340     0.7493310    -0.8923150
  H        3.7295280    -0.6607040     0.0000230
  H        3.0705564     0.6348848     0.7299080
units angstrom
no_reorient  #important for SAPT in psi4, default
symmetry c1  #important for SAPT in psi4, default
}

set PROPERTIES_ORIGIN ["COM"]
properties('MP2/aug-cc-pvtz', properties = ['dipole'])
--------------------------------------------------------------------------

    Molecular point group: c1
  Charge       = 0
  Multiplicity = 1
  Basis Set: AUG-CC-PVTZ
    Blend: AUG-CC-PVTZ
  Basis Set: (AUG-CC-PVTZ AUX)
    Blend: AUG-CC-PVTZ-JKFIT

    Orbital Energies [Eh]
    ---------------------

    Doubly Occupied:

       1A    -20.558365     2A    -20.555121     3A    -11.271609
       4A    -11.271135     5A    -11.270918     6A    -11.246248
       7A     -1.378176     8A     -1.366564     9A     -1.027119
      10A     -0.949728    11A     -0.894594    12A     -0.830294
      13A     -0.691403    14A     -0.672617    15A     -0.653546
      16A     -0.647953    17A     -0.614342    18A     -0.593139
      19A     -0.582190    20A     -0.520594    21A     -0.503614
      22A     -0.490051    23A     -0.473801    24A     -0.427710
      25A     -0.425586

  @DF-RHF Final Energy:  -307.06790879267351

   => Energetics <=

    Nuclear Repulsion Energy =            253.5773708271076998
    One-Electron Energy =                -921.4577244729923677
    Two-Electron Energy =                 360.8124448532112183
    Total Energy =                       -307.0679087926735065
  Basis Set: (AUG-CC-PVTZ AUX)
    Blend: AUG-CC-PVTZ-RI
    Molecular point group: c1

    Geometry (in Angstrom), charge = 0, multiplicity = 1:

       Center              X                  Y                   Z               Mass
    ------------   -----------------  -----------------  -----------------  -----------------
         O           -1.710156493087     0.533612338738     0.001810454366    15.994914619570
         O            1.710663506913    -0.531051661262     0.001817454366    15.994914619570
         C           -0.641897493087    -0.398907661262     0.001804454366    12.000000000000
         C            0.642404506913     0.401469338738     0.001801454366    12.000000000000
         C           -2.968513493087    -0.119458661262     0.001833454366    12.000000000000
         C            2.969020506913     0.122019338738     0.001836454366    12.000000000000
         H           -0.678190493087    -1.045183661262     0.891370454366     1.007825032230
         H           -0.678202493087    -1.045182661262    -0.887761545634     1.007825032230
         H            0.678696506913     1.047753338738     0.891361454366     1.007825032230
         H            0.678710506913     1.047735338738    -0.887770545634     1.007825032230
         H           -3.729274493087     0.661984338738     0.001831454366     1.007825032230
         H           -3.092959493087    -0.748032661262     0.894182454366     1.007825032230
         H           -3.092979493087    -0.748057661262    -0.890494545634     1.007825032230
         H            3.093487506913     0.750611338738    -0.890496545634     1.007825032230
         H            3.729781506913    -0.659423661262     0.001841454366     1.007825032230
         H            3.070809906913     0.636165138738     0.731726454366     1.007825032230

  Basis Set: AUG-CC-PVTZ
    Blend: AUG-CC-PVTZ
  Basis Set: (AUG-CC-PVTZ AUX)
    Blend: AUG-CC-PVTZ-JKFIT
	 Reference Energy          =    -307.0679087926735065 [Eh]
	 Singles Energy            =      -0.0000000000000000 [Eh]
	 Same-Spin Energy          =      -0.2947101583243076 [Eh]
	 Opposite-Spin Energy      =      -1.0064398773521570 [Eh]
	 Correlation Energy        =      -1.3011500356764647 [Eh]
	 Total Energy              =    -308.3690588283499778 [Eh]

	 ================> DF-SCS-MP2 Energies <==================
	-----------------------------------------------------------
	 SCS Same-Spin Scale       =       0.3333333333333333 [-]
	 SCS Opposite-Spin Scale   =       1.2000000000000000 [-]
	 SCS Same-Spin Energy      =      -0.0982367194414359 [Eh]
	 SCS Opposite-Spin Energy  =      -1.2077278528225883 [Eh]
	 SCS Correlation Energy    =      -1.3059645722640241 [Eh]
	 SCS Total Energy          =    -308.3738733649375376 [Eh]
	-----------------------------------------------------------

  Dipole Moment: [D]
     X:     0.0765      Y:     0.0738      Z:     0.0912     Total:     0.1401

*** Psi4 exiting successfully. Buy a developer a beer!
