                               Psi4 1.4a3.dev225

  ==> Input File <==

--------------------------------------------------------------------------
#psi4
#
memory 32 gb

molecule  {
0 1
  O       -1.7104100     0.5323320    -0.0000080
  O        1.7104100    -0.5323320    -0.0000010
  C       -0.6421510    -0.4001880    -0.0000140
  C        0.6421510     0.4001890    -0.0000170
  C       -2.9687670    -0.1207390     0.0000150
  C        2.9687670     0.1207390     0.0000180
  H       -0.6793092    -1.0618662     0.8781197
  H       -0.6784560    -1.0464630    -0.8895800
  H        0.6784430     1.0464730     0.8895430
  H        0.6784570     1.0464550    -0.8895890
  H       -3.7295280     0.6607040     0.0000130
  H       -3.0932130    -0.7493130     0.8923640
  H       -3.0932330    -0.7493380    -0.8923130
  H        3.0932340     0.7493310    -0.8923150
  H        3.7295280    -0.6607040     0.0000230
  H        3.0932120     0.7493200     0.8923620
units angstrom
no_reorient  #important for SAPT in psi4, default
symmetry c1  #important for SAPT in psi4, default
}

set PROPERTIES_ORIGIN ["COM"]
properties('MP2/aug-cc-pvtz', properties = ['dipole'])
--------------------------------------------------------------------------

    Molecular point group: c1
  Charge       = 0
  Multiplicity = 1
  Basis Set: AUG-CC-PVTZ
    Blend: AUG-CC-PVTZ
  Basis Set: (AUG-CC-PVTZ AUX)
    Blend: AUG-CC-PVTZ-JKFIT

    Orbital Energies [Eh]
    ---------------------

    Doubly Occupied:

       1A    -20.559069     2A    -20.558800     3A    -11.272287
       4A    -11.271607     5A    -11.271512     6A    -11.271446
       7A     -1.379205     8A     -1.367646     9A     -1.023958
      10A     -0.933440    11A     -0.884560    12A     -0.830033
      13A     -0.686666    14A     -0.666663    15A     -0.653363
      16A     -0.642538    17A     -0.611513    18A     -0.593230
      19A     -0.574049    20A     -0.514238    21A     -0.503585
      22A     -0.489921    23A     -0.475324    24A     -0.426741
      25A     -0.425187

  @DF-RHF Final Energy:  -307.10031432908704

   => Energetics <=

    Nuclear Repulsion Energy =            252.6214850196939494
    One-Electron Energy =                -919.6704343770370542
    Two-Electron Energy =                 359.9486350282560352
    Total Energy =                       -307.1003143290870412
  Basis Set: (AUG-CC-PVTZ AUX)
    Blend: AUG-CC-PVTZ-RI
    Molecular point group: c1

    Geometry (in Angstrom), charge = 0, multiplicity = 1:

       Center              X                  Y                   Z               Mass
    ------------   -----------------  -----------------  -----------------  -----------------
         O           -1.710400318765     0.532504199907     0.000120583211    15.994914619570
         O            1.710419681235    -0.532159800093     0.000127583211    15.994914619570
         C           -0.642141318765    -0.400015800093     0.000114583211    12.000000000000
         C            0.642160681235     0.400361199907     0.000111583211    12.000000000000
         C           -2.968757318765    -0.120566800093     0.000143583211    12.000000000000
         C            2.968776681235     0.120911199907     0.000146583211    12.000000000000
         H           -0.679299518765    -1.061694000093     0.878248283211     1.007825032230
         H           -0.678446318765    -1.046290800093    -0.889451416789     1.007825032230
         H            0.678452681235     1.046645199907     0.889671583211     1.007825032230
         H            0.678466681235     1.046627199907    -0.889460416789     1.007825032230
         H           -3.729518318765     0.660876199907     0.000141583211     1.007825032230
         H           -3.093203318765    -0.749140800093     0.892492583211     1.007825032230
         H           -3.093223318765    -0.749165800093    -0.892184416789     1.007825032230
         H            3.093243681235     0.749503199907    -0.892186416789     1.007825032230
         H            3.729537681235    -0.660531800093     0.000151583211     1.007825032230
         H            3.093221681235     0.749492199907     0.892490583211     1.007825032230

  Basis Set: AUG-CC-PVTZ
    Blend: AUG-CC-PVTZ
  Basis Set: (AUG-CC-PVTZ AUX)
    Blend: AUG-CC-PVTZ-JKFIT
	 Reference Energy          =    -307.1003143290870412 [Eh]
	 Singles Energy            =      -0.0000000000000000 [Eh]
	 Same-Spin Energy          =      -0.2947370644864667 [Eh]
	 Opposite-Spin Energy      =      -1.0071629352019431 [Eh]
	 Correlation Energy        =      -1.3018999996884100 [Eh]
	 Total Energy              =    -308.4022143287754716 [Eh]

	 ================> DF-SCS-MP2 Energies <==================
	-----------------------------------------------------------
	 SCS Same-Spin Scale       =       0.3333333333333333 [-]
	 SCS Opposite-Spin Scale   =       1.2000000000000000 [-]
	 SCS Same-Spin Energy      =      -0.0982456881621556 [Eh]
	 SCS Opposite-Spin Energy  =      -1.2085955222423317 [Eh]
	 SCS Correlation Energy    =      -1.3068412104044873 [Eh]
	 SCS Total Energy          =    -308.4071555394915549 [Eh]
	-----------------------------------------------------------

  Dipole Moment: [D]
     X:    -0.0027      Y:    -0.0028      Z:    -0.0001     Total:     0.0039

*** Psi4 exiting successfully. Buy a developer a beer!
