                               Psi4 1.4a3.dev225

  ==> Input File <==

--------------------------------------------------------------------------
#psi4
#
memory 32 gb

molecule  {
0 1
  O       -1.7104100     0.5323320    -0.0000080
  O        1.7104100    -0.5323320    -0.0000010
  C       -0.6102573    -0.3623382    -0.0000148
  C        0.6421510     0.4001890    -0.0000170
  C       -2.9687670    -0.1207390     0.0000150
  C        2.9687670     0.1207390     0.0000180
  H       -0.6784440    -1.0464640     0.8895520
  H       -0.6784560    -1.0464630    -0.8895800
  H        0.6784430     1.0464730     0.8895430
  H        0.6784570     1.0464550    -0.8895890
  H       -3.7295280     0.6607040     0.0000130
  H       -3.0932130    -0.7493130     0.8923640
  H       -3.0932330    -0.7493380    -0.8923130
  H        3.0932340     0.7493310    -0.8923150
  H        3.7295280    -0.6607040     0.0000230
  H        3.0932120     0.7493200     0.8923620
units angstrom
no_reorient  #important for SAPT in psi4, default
symmetry c1  #important for SAPT in psi4, default
}

set PROPERTIES_ORIGIN ["COM"]
properties('MP2/aug-cc-pvtz', properties = ['dipole'])
--------------------------------------------------------------------------

    Molecular point group: c1
  Charge       = 0
  Multiplicity = 1
  Basis Set: AUG-CC-PVTZ
    Blend: AUG-CC-PVTZ
  Basis Set: (AUG-CC-PVTZ AUX)
    Blend: AUG-CC-PVTZ-JKFIT

    Orbital Energies [Eh]
    ---------------------

    Doubly Occupied:

       1A    -20.560368     2A    -20.557784     3A    -11.274181
       4A    -11.272385     5A    -11.272222     6A    -11.270971
       7A     -1.380120     8A     -1.367499     9A     -1.033233
      10A     -0.934585    11A     -0.886477    12A     -0.825003
      13A     -0.687547    14A     -0.668896    15A     -0.657584
      16A     -0.641363    17A     -0.609467    18A     -0.592986
      19A     -0.574814    20A     -0.510924    21A     -0.508979
      22A     -0.489669    23A     -0.478517    24A     -0.427239
      25A     -0.420649

  @DF-RHF Final Energy:  -307.09768845340915

   => Energetics <=

    Nuclear Repulsion Energy =            253.0543326348784490
    One-Electron Energy =                -920.4971173463208061
    Two-Electron Energy =                 360.3450962580331520
    Total Energy =                       -307.0976884534091482
  Basis Set: (AUG-CC-PVTZ AUX)
    Blend: AUG-CC-PVTZ-RI
    Molecular point group: c1

    Geometry (in Angstrom), charge = 0, multiplicity = 1:

       Center              X                  Y                   Z               Mass
    ------------   -----------------  -----------------  -----------------  -----------------
         O           -1.714659279011     0.527289030171    -0.000007232972    15.994914619570
         O            1.706160720989    -0.537374969829    -0.000000232972    15.994914619570
         C           -0.614506579011    -0.367381169829    -0.000014032972    12.000000000000
         C            0.637901720989     0.395146030171    -0.000016232972    12.000000000000
         C           -2.973016279011    -0.125781969829     0.000015767028    12.000000000000
         C            2.964517720989     0.115696030171     0.000018767028    12.000000000000
         H           -0.682693279011    -1.051506969829     0.889552767028     1.007825032230
         H           -0.682705279011    -1.051505969829    -0.889579232972     1.007825032230
         H            0.674193720989     1.041430030171     0.889543767028     1.007825032230
         H            0.674207720989     1.041412030171    -0.889588232972     1.007825032230
         H           -3.733777279011     0.655661030171     0.000013767028     1.007825032230
         H           -3.097462279011    -0.754355969829     0.892364767028     1.007825032230
         H           -3.097482279011    -0.754380969829    -0.892312232972     1.007825032230
         H            3.088984720989     0.744288030171    -0.892314232972     1.007825032230
         H            3.725278720989    -0.665746969829     0.000023767028     1.007825032230
         H            3.088962720989     0.744277030171     0.892362767028     1.007825032230

  Basis Set: AUG-CC-PVTZ
    Blend: AUG-CC-PVTZ
  Basis Set: (AUG-CC-PVTZ AUX)
    Blend: AUG-CC-PVTZ-JKFIT
	 Reference Energy          =    -307.0976884534091482 [Eh]
	 Singles Energy            =      -0.0000000000000000 [Eh]
	 Same-Spin Energy          =      -0.2949523413899278 [Eh]
	 Opposite-Spin Energy      =      -1.0072448956716475 [Eh]
	 Correlation Energy        =      -1.3021972370615753 [Eh]
	 Total Energy              =    -308.3998856904707395 [Eh]

	 ================> DF-SCS-MP2 Energies <==================
	-----------------------------------------------------------
	 SCS Same-Spin Scale       =       0.3333333333333333 [-]
	 SCS Opposite-Spin Scale   =       1.2000000000000000 [-]
	 SCS Same-Spin Energy      =      -0.0983174471299759 [Eh]
	 SCS Opposite-Spin Energy  =      -1.2086938748059770 [Eh]
	 SCS Correlation Energy    =      -1.3070113219359529 [Eh]
	 SCS Total Energy          =    -308.4046997753450796 [Eh]
	-----------------------------------------------------------

  Dipole Moment: [D]
     X:     0.0407      Y:     0.0511      Z:     0.0000     Total:     0.0653

*** Psi4 exiting successfully. Buy a developer a beer!
