                               Psi4 1.4a3.dev225

  ==> Input File <==

--------------------------------------------------------------------------
#psi4
#
memory 32 gb

molecule  {
0 1
  O       -1.7104100     0.5323320    -0.0000080
  O        1.7104100    -0.5323320    -0.0000010
  C       -0.6421510    -0.4001880    -0.0000140
  C        0.6421510     0.4001890    -0.0000170
  C       -2.9687670    -0.1207390     0.0000150
  C        2.9687670     0.1207390     0.0000180
  H       -0.6775678    -1.0308649     0.9007134
  H       -0.6784560    -1.0464630    -0.8895800
  H        0.6784430     1.0464730     0.8895430
  H        0.6784570     1.0464550    -0.8895890
  H       -3.7295280     0.6607040     0.0000130
  H       -3.0932130    -0.7493130     0.8923640
  H       -3.0932330    -0.7493380    -0.8923130
  H        3.0932340     0.7493310    -0.8923150
  H        3.7295280    -0.6607040     0.0000230
  H        3.0932120     0.7493200     0.8923620
units angstrom
no_reorient  #important for SAPT in psi4, default
symmetry c1  #important for SAPT in psi4, default
}

set PROPERTIES_ORIGIN ["COM"]
properties('MP2/aug-cc-pvtz', properties = ['dipole'])
--------------------------------------------------------------------------

    Molecular point group: c1
  Charge       = 0
  Multiplicity = 1
  Basis Set: AUG-CC-PVTZ
    Blend: AUG-CC-PVTZ
  Basis Set: (AUG-CC-PVTZ AUX)
    Blend: AUG-CC-PVTZ-JKFIT

    Orbital Energies [Eh]
    ---------------------

    Doubly Occupied:

       1A    -20.558825     2A    -20.558554     3A    -11.272192
       4A    -11.271513     5A    -11.271460     6A    -11.271394
       7A     -1.379161     8A     -1.367567     9A     -1.024114
      10A     -0.933415    11A     -0.884427    12A     -0.829180
      13A     -0.687833    14A     -0.666083    15A     -0.653236
      16A     -0.642805    17A     -0.610697    18A     -0.593083
      19A     -0.574728    20A     -0.515251    21A     -0.503524
      22A     -0.489628    23A     -0.474102    24A     -0.427059
      25A     -0.425338

  @DF-RHF Final Energy:  -307.10036481106499

   => Energetics <=

    Nuclear Repulsion Energy =            252.6441239562780652
    One-Electron Energy =                -919.7186380605139675
    Two-Electron Energy =                 359.9741492931709672
    Total Energy =                       -307.1003648110649920
  Basis Set: (AUG-CC-PVTZ AUX)
    Blend: AUG-CC-PVTZ-RI
    Molecular point group: c1

    Geometry (in Angstrom), charge = 0, multiplicity = 1:

       Center              X                  Y                   Z               Mass
    ------------   -----------------  -----------------  -----------------  -----------------
         O           -1.710419804320     0.532157308019    -0.000132231067    15.994914619570
         O            1.710400195680    -0.532506691981    -0.000125231067    15.994914619570
         C           -0.642160804320    -0.400362691981    -0.000138231067    12.000000000000
         C            0.642141195680     0.400014308019    -0.000141231067    12.000000000000
         C           -2.968776804320    -0.120913691981    -0.000109231067    12.000000000000
         C            2.968757195680     0.120564308019    -0.000106231067    12.000000000000
         H           -0.677577604320    -1.031039591981     0.900589168933     1.007825032230
         H           -0.678465804320    -1.046637691981    -0.889704231067     1.007825032230
         H            0.678433195680     1.046298308019     0.889418768933     1.007825032230
         H            0.678447195680     1.046280308019    -0.889713231067     1.007825032230
         H           -3.729537804320     0.660529308019    -0.000111231067     1.007825032230
         H           -3.093222804320    -0.749487691981     0.892239768933     1.007825032230
         H           -3.093242804320    -0.749512691981    -0.892437231067     1.007825032230
         H            3.093224195680     0.749156308019    -0.892439231067     1.007825032230
         H            3.729518195680    -0.660878691981    -0.000101231067     1.007825032230
         H            3.093202195680     0.749145308019     0.892237768933     1.007825032230

  Basis Set: AUG-CC-PVTZ
    Blend: AUG-CC-PVTZ
  Basis Set: (AUG-CC-PVTZ AUX)
    Blend: AUG-CC-PVTZ-JKFIT
	 Reference Energy          =    -307.1003648110649920 [Eh]
	 Singles Energy            =      -0.0000000000000000 [Eh]
	 Same-Spin Energy          =      -0.2947365449248174 [Eh]
	 Opposite-Spin Energy      =      -1.0071896020521889 [Eh]
	 Correlation Energy        =      -1.3019261469770063 [Eh]
	 Total Energy              =    -308.4022909580419878 [Eh]

	 ================> DF-SCS-MP2 Energies <==================
	-----------------------------------------------------------
	 SCS Same-Spin Scale       =       0.3333333333333333 [-]
	 SCS Opposite-Spin Scale   =       1.2000000000000000 [-]
	 SCS Same-Spin Energy      =      -0.0982455149749391 [Eh]
	 SCS Opposite-Spin Energy  =      -1.2086275224626266 [Eh]
	 SCS Correlation Energy    =      -1.3068730374375657 [Eh]
	 SCS Total Energy          =    -308.4072378485025752 [Eh]
	-----------------------------------------------------------

  Dipole Moment: [D]
     X:     0.0027      Y:     0.0028      Z:    -0.0000     Total:     0.0039

*** Psi4 exiting successfully. Buy a developer a beer!
