                               Psi4 1.4a3.dev225

  ==> Input File <==

--------------------------------------------------------------------------
#psi4
#
memory 32 gb

molecule  {
0 1
  O       -1.7104100     0.5323320    -0.0000080
  O        1.7104100    -0.5323320    -0.0000010
  C       -0.6421510    -0.4001880    -0.0000140
  C        0.6675704     0.3524304    -0.0907352
  C       -2.9687670    -0.1207390     0.0000150
  C        2.9687670     0.1207390     0.0000180
  H       -0.6784440    -1.0464640     0.8895520
  H       -0.6784560    -1.0464630    -0.8895800
  H        0.6784430     1.0464730     0.8895430
  H        0.6784570     1.0464550    -0.8895890
  H       -3.7295280     0.6607040     0.0000130
  H       -3.0932130    -0.7493130     0.8923640
  H       -3.0932330    -0.7493380    -0.8923130
  H        3.0932340     0.7493310    -0.8923150
  H        3.7295280    -0.6607040     0.0000230
  H        3.0932120     0.7493200     0.8923620
units angstrom
no_reorient  #important for SAPT in psi4, default
symmetry c1  #important for SAPT in psi4, default
}

set PROPERTIES_ORIGIN ["COM"]
properties('MP2/aug-cc-pvtz', properties = ['dipole'])
--------------------------------------------------------------------------

    Molecular point group: c1
  Charge       = 0
  Multiplicity = 1
  Basis Set: AUG-CC-PVTZ
    Blend: AUG-CC-PVTZ
  Basis Set: (AUG-CC-PVTZ AUX)
    Blend: AUG-CC-PVTZ-JKFIT

    Orbital Energies [Eh]
    ---------------------

    Doubly Occupied:

       1A    -20.564034     2A    -20.558956     3A    -11.275326
       4A    -11.275173     5A    -11.271593     6A    -11.271355
       7A     -1.393892     8A     -1.371149     9A     -1.024654
      10A     -0.938331    11A     -0.886181    12A     -0.827334
      13A     -0.688781    14A     -0.672086    15A     -0.659524
      16A     -0.645138    17A     -0.617088    18A     -0.595402
      19A     -0.570143    20A     -0.515281    21A     -0.509795
      22A     -0.491732    23A     -0.469063    24A     -0.425785
      25A     -0.415052

  @DF-RHF Final Energy:  -307.09040582332636

   => Energetics <=

    Nuclear Repulsion Energy =            253.0974098733672122
    One-Electron Energy =                -920.5099318361777705
    Two-Electron Energy =                 360.3221161394842511
    Total Energy =                       -307.0904058233263640
  Basis Set: (AUG-CC-PVTZ AUX)
    Blend: AUG-CC-PVTZ-RI
    Molecular point group: c1

    Geometry (in Angstrom), charge = 0, multiplicity = 1:

       Center              X                  Y                   Z               Mass
    ------------   -----------------  -----------------  -----------------  -----------------
         O           -1.713796691506     0.538694855686     0.012079277646    15.994914619570
         O            1.707023308494    -0.525969144314     0.012086277646    15.994914619570
         C           -0.645537691506    -0.393825144314     0.012073277646    12.000000000000
         C            0.664183708494     0.358793255686    -0.078647922354    12.000000000000
         C           -2.972153691506    -0.114376144314     0.012102277646    12.000000000000
         C            2.965380308494     0.127101855686     0.012105277646    12.000000000000
         H           -0.681830691506    -1.040101144314     0.901639277646     1.007825032230
         H           -0.681842691506    -1.040100144314    -0.877492722354     1.007825032230
         H            0.675056308494     1.052835855686     0.901630277646     1.007825032230
         H            0.675070308494     1.052817855686    -0.877501722354     1.007825032230
         H           -3.732914691506     0.667066855686     0.012100277646     1.007825032230
         H           -3.096599691506    -0.742950144314     0.904451277646     1.007825032230
         H           -3.096619691506    -0.742975144314    -0.880225722354     1.007825032230
         H            3.089847308494     0.755693855686    -0.880227722354     1.007825032230
         H            3.726141308494    -0.654341144314     0.012110277646     1.007825032230
         H            3.089825308494     0.755682855686     0.904449277646     1.007825032230

  Basis Set: AUG-CC-PVTZ
    Blend: AUG-CC-PVTZ
  Basis Set: (AUG-CC-PVTZ AUX)
    Blend: AUG-CC-PVTZ-JKFIT
	 Reference Energy          =    -307.0904058233263640 [Eh]
	 Singles Energy            =      -0.0000000000000000 [Eh]
	 Same-Spin Energy          =      -0.2949235806279376 [Eh]
	 Opposite-Spin Energy      =      -1.0069780172453395 [Eh]
	 Correlation Energy        =      -1.3019015978732771 [Eh]
	 Total Energy              =    -308.3923074211996322 [Eh]

	 ================> DF-SCS-MP2 Energies <==================
	-----------------------------------------------------------
	 SCS Same-Spin Scale       =       0.3333333333333333 [-]
	 SCS Opposite-Spin Scale   =       1.2000000000000000 [-]
	 SCS Same-Spin Energy      =      -0.0983078602093125 [Eh]
	 SCS Opposite-Spin Energy  =      -1.2083736206944073 [Eh]
	 SCS Correlation Energy    =      -1.3066814809037199 [Eh]
	 SCS Total Energy          =    -308.3970873042300695 [Eh]
	-----------------------------------------------------------

  Dipole Moment: [D]
     X:     0.1696      Y:    -0.1394      Z:    -0.1834     Total:     0.2861

*** Psi4 exiting successfully. Buy a developer a beer!
