                               Psi4 1.4a3.dev225

  ==> Input File <==

--------------------------------------------------------------------------
#psi4
#
memory 32 gb

molecule  {
0 1
  O       -1.7104100     0.5323320    -0.0000080
  O        1.7104100    -0.5323320    -0.0000010
  C       -0.6421510    -0.4001880    -0.0000140
  C        0.6421510     0.4001890    -0.0000170
  C       -2.9687670    -0.1207390     0.0000150
  C        2.9687670     0.1207390     0.0000180
  H       -0.6784440    -1.0464640     0.8895520
  H       -0.6784560    -1.0464630    -0.8895800
  H        0.6784430     1.0464730     0.8895430
  H        0.6784570     1.0464550    -0.8895890
  H       -3.7295280     0.6607040     0.0000130
  H       -3.0932130    -0.7493130     0.8923640
  H       -3.0932330    -0.7493380    -0.8923130
  H        3.0932340     0.7493310    -0.8923150
  H        3.7295280    -0.6607040     0.0000230
  H        3.1045398     0.8065376     0.9735890
units angstrom
no_reorient  #important for SAPT in psi4, default
symmetry c1  #important for SAPT in psi4, default
}

set PROPERTIES_ORIGIN ["COM"]
properties('MP2/aug-cc-pvtz', properties = ['dipole'])
--------------------------------------------------------------------------

    Molecular point group: c1
  Charge       = 0
  Multiplicity = 1
  Basis Set: AUG-CC-PVTZ
    Blend: AUG-CC-PVTZ
  Basis Set: (AUG-CC-PVTZ AUX)
    Blend: AUG-CC-PVTZ-JKFIT

    Orbital Energies [Eh]
    ---------------------

    Doubly Occupied:

       1A    -20.561511     2A    -20.559153     3A    -11.283573
       4A    -11.272744     5A    -11.272062     6A    -11.271697
       7A     -1.380200     8A     -1.368564     9A     -1.023888
      10A     -0.930251    11A     -0.880395    12A     -0.829446
      13A     -0.686931    14A     -0.665477    15A     -0.654005
      16A     -0.639858    17A     -0.610284    18A     -0.593790
      19A     -0.569133    20A     -0.512046    21A     -0.502611
      22A     -0.489003    23A     -0.475356    24A     -0.426908
      25A     -0.424159

  @DF-RHF Final Energy:  -307.09381955235460

   => Energetics <=

    Nuclear Repulsion Energy =            252.2464574236717567
    One-Electron Energy =                -918.9144648562571547
    Two-Electron Energy =                 359.5741878802308520
    Total Energy =                       -307.0938195523546028
  Basis Set: (AUG-CC-PVTZ AUX)
    Blend: AUG-CC-PVTZ-RI
    Molecular point group: c1

    Geometry (in Angstrom), charge = 0, multiplicity = 1:

       Center              X                  Y                   Z               Mass
    ------------   -----------------  -----------------  -----------------  -----------------
         O           -1.710536753456     0.531691613998    -0.000916236520    15.994914619570
         O            1.710283246544    -0.532972386002    -0.000909236520    15.994914619570
         C           -0.642277753456    -0.400828386002    -0.000922236520    12.000000000000
         C            0.642024246544     0.399548613998    -0.000925236520    12.000000000000
         C           -2.968893753456    -0.121379386002    -0.000893236520    12.000000000000
         C            2.968640246544     0.120098613998    -0.000890236520    12.000000000000
         H           -0.678570753456    -1.047104386002     0.888643763480     1.007825032230
         H           -0.678582753456    -1.047103386002    -0.890488236520     1.007825032230
         H            0.678316246544     1.045832613998     0.888634763480     1.007825032230
         H            0.678330246544     1.045814613998    -0.890497236520     1.007825032230
         H           -3.729654753456     0.660063613998    -0.000895236520     1.007825032230
         H           -3.093339753456    -0.749953386002     0.891455763480     1.007825032230
         H           -3.093359753456    -0.749978386002    -0.893221236520     1.007825032230
         H            3.093107246544     0.748690613998    -0.893223236520     1.007825032230
         H            3.729401246544    -0.661344386002    -0.000885236520     1.007825032230
         H            3.104413046544     0.805897213998     0.972680763480     1.007825032230

  Basis Set: AUG-CC-PVTZ
    Blend: AUG-CC-PVTZ
  Basis Set: (AUG-CC-PVTZ AUX)
    Blend: AUG-CC-PVTZ-JKFIT
	 Reference Energy          =    -307.0938195523546028 [Eh]
	 Singles Energy            =      -0.0000000000000000 [Eh]
	 Same-Spin Energy          =      -0.2948400947796187 [Eh]
	 Opposite-Spin Energy      =      -1.0079964393863037 [Eh]
	 Correlation Energy        =      -1.3028365341659223 [Eh]
	 Total Energy              =    -308.3966560865205224 [Eh]

	 ================> DF-SCS-MP2 Energies <==================
	-----------------------------------------------------------
	 SCS Same-Spin Scale       =       0.3333333333333333 [-]
	 SCS Opposite-Spin Scale   =       1.2000000000000000 [-]
	 SCS Same-Spin Energy      =      -0.0982800315932062 [Eh]
	 SCS Opposite-Spin Energy  =      -1.2095957272635645 [Eh]
	 SCS Correlation Energy    =      -1.3078757588567707 [Eh]
	 SCS Total Energy          =    -308.4016953112113697 [Eh]
	-----------------------------------------------------------

  Dipole Moment: [D]
     X:    -0.0545      Y:    -0.0552      Z:    -0.0714     Total:     0.1055

*** Psi4 exiting successfully. Buy a developer a beer!
