                               Psi4 1.4a3.dev225

  ==> Input File <==

--------------------------------------------------------------------------
#psi4
#
memory 32 gb

molecule  {
0 1
  O       -1.7104100     0.5323320    -0.0000080
  O        1.7104100    -0.5323320    -0.0000010
  C       -0.6421510    -0.4001880    -0.0000140
  C        0.6421510     0.4001890    -0.0000170
  C       -2.9687670    -0.1207390     0.0000150
  C        2.9687670     0.1207390     0.0000180
  H       -0.6784440    -1.0464640     0.8895520
  H       -0.6784560    -1.0464630    -0.8895800
  H        0.6784430     1.0464730     0.8895430
  H        0.6784570     1.0464550    -0.8895890
  H       -3.7295280     0.6607040     0.0000130
  H       -3.0932130    -0.7493130     0.8923640
  H       -3.0932330    -0.7493380    -0.8923130
  H        3.0932340     0.7493310    -0.8923150
  H        3.7429453    -0.6467144     0.0327855
  H        3.0932120     0.7493200     0.8923620
units angstrom
no_reorient  #important for SAPT in psi4, default
symmetry c1  #important for SAPT in psi4, default
}

set PROPERTIES_ORIGIN ["COM"]
properties('MP2/aug-cc-pvtz', properties = ['dipole'])
--------------------------------------------------------------------------

    Molecular point group: c1
  Charge       = 0
  Multiplicity = 1
  Basis Set: AUG-CC-PVTZ
    Blend: AUG-CC-PVTZ
  Basis Set: (AUG-CC-PVTZ AUX)
    Blend: AUG-CC-PVTZ-JKFIT

    Orbital Energies [Eh]
    ---------------------

    Doubly Occupied:

       1A    -20.559079     2A    -20.558869     3A    -11.272364
       4A    -11.271692     5A    -11.271492     6A    -11.271486
       7A     -1.379231     8A     -1.367647     9A     -1.024024
      10A     -0.933516    11A     -0.884779    12A     -0.829658
      13A     -0.687322    14A     -0.666468    15A     -0.653235
      16A     -0.642692    17A     -0.611111    18A     -0.593385
      19A     -0.574354    20A     -0.514875    21A     -0.503579
      22A     -0.489498    23A     -0.474763    24A     -0.426973
      25A     -0.425345

  @DF-RHF Final Energy:  -307.10029547273552

   => Energetics <=

    Nuclear Repulsion Energy =            252.6131087872450109
    One-Electron Energy =                -919.6519385315236832
    Two-Electron Energy =                 359.9385342715431761
    Total Energy =                       -307.1002954727355245
  Basis Set: (AUG-CC-PVTZ AUX)
    Blend: AUG-CC-PVTZ-RI
    Molecular point group: c1

    Geometry (in Angstrom), charge = 0, multiplicity = 1:

       Center              X                  Y                   Z               Mass
    ------------   -----------------  -----------------  -----------------  -----------------
         O           -1.710560134108     0.532175317666    -0.000373938555    15.994914619570
         O            1.710259865892    -0.532488682334    -0.000366938555    15.994914619570
         C           -0.642301134108    -0.400344682334    -0.000379938555    12.000000000000
         C            0.642000865892     0.400032317666    -0.000382938555    12.000000000000
         C           -2.968917134108    -0.120895682334    -0.000350938555    12.000000000000
         C            2.968616865892     0.120582317666    -0.000347938555    12.000000000000
         H           -0.678594134108    -1.046620682334     0.889186061445     1.007825032230
         H           -0.678606134108    -1.046619682334    -0.889945938555     1.007825032230
         H            0.678292865892     1.046316317666     0.889177061445     1.007825032230
         H            0.678306865892     1.046298317666    -0.889954938555     1.007825032230
         H           -3.729678134108     0.660547317666    -0.000352938555     1.007825032230
         H           -3.093363134108    -0.749469682334     0.891998061445     1.007825032230
         H           -3.093383134108    -0.749494682334    -0.892678938555     1.007825032230
         H            3.093083865892     0.749174317666    -0.892680938555     1.007825032230
         H            3.742795165892    -0.646871082334     0.032419561445     1.007825032230
         H            3.093061865892     0.749163317666     0.891996061445     1.007825032230

  Basis Set: AUG-CC-PVTZ
    Blend: AUG-CC-PVTZ
  Basis Set: (AUG-CC-PVTZ AUX)
    Blend: AUG-CC-PVTZ-JKFIT
	 Reference Energy          =    -307.1002954727355245 [Eh]
	 Singles Energy            =      -0.0000000000000000 [Eh]
	 Same-Spin Energy          =      -0.2947305452023351 [Eh]
	 Opposite-Spin Energy      =      -1.0071496732576581 [Eh]
	 Correlation Energy        =      -1.3018802184599934 [Eh]
	 Total Energy              =    -308.4021756911955094 [Eh]

	 ================> DF-SCS-MP2 Energies <==================
	-----------------------------------------------------------
	 SCS Same-Spin Scale       =       0.3333333333333333 [-]
	 SCS Opposite-Spin Scale   =       1.2000000000000000 [-]
	 SCS Same-Spin Energy      =      -0.0982435150674450 [Eh]
	 SCS Opposite-Spin Energy  =      -1.2085796079091897 [Eh]
	 SCS Correlation Energy    =      -1.3068231229766347 [Eh]
	 SCS Total Energy          =    -308.4071185957121770 [Eh]
	-----------------------------------------------------------

  Dipole Moment: [D]
     X:     0.0010      Y:     0.0015      Z:     0.0117     Total:     0.0118

*** Psi4 exiting successfully. Buy a developer a beer!
