                               Psi4 1.4a3.dev225

  ==> Input File <==

--------------------------------------------------------------------------
#psi4
#
memory 32 gb

molecule  {
0 1
  O       -1.7104100     0.5323320    -0.0000080
  O        1.7104100    -0.5323320    -0.0000010
  C       -0.6421510    -0.4001880    -0.0000140
  C        0.4724142     0.2944090    -0.0000166
  C       -2.9687670    -0.1207390     0.0000150
  C        2.9687670     0.1207390     0.0000180
  H       -0.6784440    -1.0464640     0.8895520
  H       -0.6784560    -1.0464630    -0.8895800
  H        0.6784430     1.0464730     0.8895430
  H        0.6784570     1.0464550    -0.8895890
  H       -3.7295280     0.6607040     0.0000130
  H       -3.0932130    -0.7493130     0.8923640
  H       -3.0932330    -0.7493380    -0.8923130
  H        3.0932340     0.7493310    -0.8923150
  H        3.7295280    -0.6607040     0.0000230
  H        3.0932120     0.7493200     0.8923620
units angstrom
no_reorient  #important for SAPT in psi4, default
symmetry c1  #important for SAPT in psi4, default
}

set PROPERTIES_ORIGIN ["COM"]
properties('MP2/aug-cc-pvtz', properties = ['dipole'])
--------------------------------------------------------------------------

    Molecular point group: c1
  Charge       = 0
  Multiplicity = 1
  Basis Set: AUG-CC-PVTZ
    Blend: AUG-CC-PVTZ
  Basis Set: (AUG-CC-PVTZ AUX)
    Blend: AUG-CC-PVTZ-JKFIT

    Orbital Energies [Eh]
    ---------------------

    Doubly Occupied:

       1A    -20.566590     2A    -20.548608     3A    -11.283078
       4A    -11.276034     5A    -11.270166     6A    -11.267483
       7A     -1.386362     8A     -1.344965     9A     -1.073987
      10A     -0.932167    11A     -0.892448    12A     -0.813337
      13A     -0.695315    14A     -0.674710    15A     -0.670012
      16A     -0.632064    17A     -0.595420    18A     -0.588391
      19A     -0.581439    20A     -0.541177    21A     -0.496273
      22A     -0.490816    23A     -0.461697    24A     -0.432344
      25A     -0.404880

  @DF-RHF Final Energy:  -307.04554077590666

   => Energetics <=

    Nuclear Repulsion Energy =            254.0183921554988444
    One-Electron Energy =                -922.2883419921547556
    Two-Electron Energy =                 361.2244090607492240
    Total Energy =                       -307.0455407759066588
  Basis Set: (AUG-CC-PVTZ AUX)
    Blend: AUG-CC-PVTZ-RI
    Molecular point group: c1

    Geometry (in Angstrom), charge = 0, multiplicity = 1:

       Center              X                  Y                   Z               Mass
    ------------   -----------------  -----------------  -----------------  -----------------
         O           -1.687795533144     0.546425194818    -0.000007392851    15.994914619570
         O            1.733024466856    -0.518238805182    -0.000000392851    15.994914619570
         C           -0.619536533144    -0.386094805182    -0.000013392851    12.000000000000
         C            0.495028666856     0.308502194818    -0.000015992851    12.000000000000
         C           -2.946152533144    -0.106645805182     0.000015607149    12.000000000000
         C            2.991381466856     0.134832194818     0.000018607149    12.000000000000
         H           -0.655829533144    -1.032370805182     0.889552607149     1.007825032230
         H           -0.655841533144    -1.032369805182    -0.889579392851     1.007825032230
         H            0.701057466856     1.060566194818     0.889543607149     1.007825032230
         H            0.701071466856     1.060548194818    -0.889588392851     1.007825032230
         H           -3.706913533144     0.674797194818     0.000013607149     1.007825032230
         H           -3.070598533144    -0.735219805182     0.892364607149     1.007825032230
         H           -3.070618533144    -0.735244805182    -0.892312392851     1.007825032230
         H            3.115848466856     0.763424194818    -0.892314392851     1.007825032230
         H            3.752142466856    -0.646610805182     0.000023607149     1.007825032230
         H            3.115826466856     0.763413194818     0.892362607149     1.007825032230

  Basis Set: AUG-CC-PVTZ
    Blend: AUG-CC-PVTZ
  Basis Set: (AUG-CC-PVTZ AUX)
    Blend: AUG-CC-PVTZ-JKFIT
	 Reference Energy          =    -307.0455407759066588 [Eh]
	 Singles Energy            =      -0.0000000000000000 [Eh]
	 Same-Spin Energy          =      -0.2973126159387823 [Eh]
	 Opposite-Spin Energy      =      -1.0112103896393796 [Eh]
	 Correlation Energy        =      -1.3085230055781620 [Eh]
	 Total Energy              =    -308.3540637814847969 [Eh]

	 ================> DF-SCS-MP2 Energies <==================
	-----------------------------------------------------------
	 SCS Same-Spin Scale       =       0.3333333333333333 [-]
	 SCS Opposite-Spin Scale   =       1.2000000000000000 [-]
	 SCS Same-Spin Energy      =      -0.0991042053129274 [Eh]
	 SCS Opposite-Spin Energy  =      -1.2134524675672556 [Eh]
	 SCS Correlation Energy    =      -1.3125566728801830 [Eh]
	 SCS Total Energy          =    -308.3580974487868502 [Eh]
	-----------------------------------------------------------

  Dipole Moment: [D]
     X:    -0.4087      Y:    -0.1060      Z:     0.0000     Total:     0.4222

*** Psi4 exiting successfully. Buy a developer a beer!
