                               Psi4 1.4a3.dev225

  ==> Input File <==

--------------------------------------------------------------------------
#psi4
#
memory 32 gb

molecule  {
0 1
  O       -1.7104100     0.5323320    -0.0000080
  O        1.7104100    -0.5323320    -0.0000010
  C       -0.6421510    -0.4001880    -0.0000140
  C        0.6348130     0.4115280     0.0226798
  C       -2.9687670    -0.1207390     0.0000150
  C        2.9687670     0.1207390     0.0000180
  H       -0.6784440    -1.0464640     0.8895520
  H       -0.6784560    -1.0464630    -0.8895800
  H        0.6784430     1.0464730     0.8895430
  H        0.6784570     1.0464550    -0.8895890
  H       -3.7295280     0.6607040     0.0000130
  H       -3.0932130    -0.7493130     0.8923640
  H       -3.0932330    -0.7493380    -0.8923130
  H        3.0932340     0.7493310    -0.8923150
  H        3.7295280    -0.6607040     0.0000230
  H        3.0932120     0.7493200     0.8923620
units angstrom
no_reorient  #important for SAPT in psi4, default
symmetry c1  #important for SAPT in psi4, default
}

set PROPERTIES_ORIGIN ["COM"]
properties('MP2/aug-cc-pvtz', properties = ['dipole'])
--------------------------------------------------------------------------

    Molecular point group: c1
  Charge       = 0
  Multiplicity = 1
  Basis Set: AUG-CC-PVTZ
    Blend: AUG-CC-PVTZ
  Basis Set: (AUG-CC-PVTZ AUX)
    Blend: AUG-CC-PVTZ-JKFIT

    Orbital Energies [Eh]
    ---------------------

    Doubly Occupied:

       1A    -20.558859     2A    -20.557659     3A    -11.272437
       4A    -11.271539     5A    -11.271522     6A    -11.270521
       7A     -1.377546     8A     -1.364846     9A     -1.024209
      10A     -0.932299    11A     -0.884238    12A     -0.831015
      13A     -0.687437    14A     -0.665068    15A     -0.652179
      16A     -0.641979    17A     -0.610064    18A     -0.592719
      19A     -0.574912    20A     -0.516051    21A     -0.501964
      22A     -0.488612    23A     -0.476090    24A     -0.427654
      25A     -0.425189

  @DF-RHF Final Energy:  -307.09933233800211

   => Energetics <=

    Nuclear Repulsion Energy =            252.5063049306298240
    One-Electron Energy =                -919.4580574302664218
    Two-Electron Energy =                 359.8524201616344271
    Total Energy =                       -307.0993323380021138
  Basis Set: (AUG-CC-PVTZ AUX)
    Blend: AUG-CC-PVTZ-RI
    Molecular point group: c1

    Geometry (in Angstrom), charge = 0, multiplicity = 1:

       Center              X                  Y                   Z               Mass
    ------------   -----------------  -----------------  -----------------  -----------------
         O           -1.709432339541     0.530821131683    -0.003031292121    15.994914619570
         O            1.711387660459    -0.533842868317    -0.003024292121    15.994914619570
         C           -0.641173339541    -0.401698868317    -0.003037292121    12.000000000000
         C            0.635790660459     0.410017131683     0.019656507879    12.000000000000
         C           -2.967789339541    -0.122249868317    -0.003008292121    12.000000000000
         C            2.969744660459     0.119228131683    -0.003005292121    12.000000000000
         H           -0.677466339541    -1.047974868317     0.886528707879     1.007825032230
         H           -0.677478339541    -1.047973868317    -0.892603292121     1.007825032230
         H            0.679420660459     1.044962131683     0.886519707879     1.007825032230
         H            0.679434660459     1.044944131683    -0.892612292121     1.007825032230
         H           -3.728550339541     0.659193131683    -0.003010292121     1.007825032230
         H           -3.092235339541    -0.750823868317     0.889340707879     1.007825032230
         H           -3.092255339541    -0.750848868317    -0.895336292121     1.007825032230
         H            3.094211660459     0.747820131683    -0.895338292121     1.007825032230
         H            3.730505660459    -0.662214868317    -0.003000292121     1.007825032230
         H            3.094189660459     0.747809131683     0.889338707879     1.007825032230

  Basis Set: AUG-CC-PVTZ
    Blend: AUG-CC-PVTZ
  Basis Set: (AUG-CC-PVTZ AUX)
    Blend: AUG-CC-PVTZ-JKFIT
	 Reference Energy          =    -307.0993323380021138 [Eh]
	 Singles Energy            =      -0.0000000000000000 [Eh]
	 Same-Spin Energy          =      -0.2947572321062447 [Eh]
	 Opposite-Spin Energy      =      -1.0074204764577659 [Eh]
	 Correlation Energy        =      -1.3021777085640105 [Eh]
	 Total Energy              =    -308.4015100465661021 [Eh]

	 ================> DF-SCS-MP2 Energies <==================
	-----------------------------------------------------------
	 SCS Same-Spin Scale       =       0.3333333333333333 [-]
	 SCS Opposite-Spin Scale   =       1.2000000000000000 [-]
	 SCS Same-Spin Energy      =      -0.0982524107020816 [Eh]
	 SCS Opposite-Spin Energy  =      -1.2089045717493190 [Eh]
	 SCS Correlation Energy    =      -1.3071569824514004 [Eh]
	 SCS Total Energy          =    -308.4064893204534883 [Eh]
	-----------------------------------------------------------

  Dipole Moment: [D]
     X:    -0.0425      Y:     0.0255      Z:     0.0395     Total:     0.0633

*** Psi4 exiting successfully. Buy a developer a beer!
