                               Psi4 1.4a3.dev225

  ==> Input File <==

--------------------------------------------------------------------------
#psi4
#
memory 32 gb

molecule  {
0 1
  O       -1.7104100     0.5323320    -0.0000080
  O        1.7104100    -0.5323320    -0.0000010
  C       -0.6421510    -0.4001880    -0.0000140
  C        0.6421510     0.4001890    -0.0000170
  C       -2.9687670    -0.1207390     0.0000150
  C        2.9687670     0.1207390     0.0000180
  H       -0.6784440    -1.0464640     0.8895520
  H       -0.6784560    -1.0464630    -0.8895800
  H        0.6767936     1.0171003     0.8491138
  H        0.6784570     1.0464550    -0.8895890
  H       -3.7295280     0.6607040     0.0000130
  H       -3.0932130    -0.7493130     0.8923640
  H       -3.0932330    -0.7493380    -0.8923130
  H        3.0932340     0.7493310    -0.8923150
  H        3.7295280    -0.6607040     0.0000230
  H        3.0932120     0.7493200     0.8923620
units angstrom
no_reorient  #important for SAPT in psi4, default
symmetry c1  #important for SAPT in psi4, default
}

set PROPERTIES_ORIGIN ["COM"]
properties('MP2/aug-cc-pvtz', properties = ['dipole'])
--------------------------------------------------------------------------

    Molecular point group: c1
  Charge       = 0
  Multiplicity = 1
  Basis Set: AUG-CC-PVTZ
    Blend: AUG-CC-PVTZ
  Basis Set: (AUG-CC-PVTZ AUX)
    Blend: AUG-CC-PVTZ-JKFIT

    Orbital Energies [Eh]
    ---------------------

    Doubly Occupied:

       1A    -20.558771     2A    -20.557796     3A    -11.271416
       4A    -11.271395     5A    -11.271285     6A    -11.265675
       7A     -1.378964     8A     -1.367269     9A     -1.025484
      10A     -0.933400    11A     -0.885263    12A     -0.833554
      13A     -0.689307    14A     -0.666797    15A     -0.653106
      16A     -0.643061    17A     -0.612187    18A     -0.593364
      19A     -0.575616    20A     -0.516940    21A     -0.503290
      22A     -0.489668    23A     -0.474895    24A     -0.427699
      25A     -0.425374

  @DF-RHF Final Energy:  -307.09966280453187

   => Energetics <=

    Nuclear Repulsion Energy =            252.8770555777918787
    One-Electron Energy =                -920.1702816954932587
    Two-Electron Energy =                 360.1935633131694772
    Total Energy =                       -307.0996628045318744
  Basis Set: (AUG-CC-PVTZ AUX)
    Blend: AUG-CC-PVTZ-RI
    Molecular point group: c1

    Geometry (in Angstrom), charge = 0, multiplicity = 1:

       Center              X                  Y                   Z               Mass
    ------------   -----------------  -----------------  -----------------  -----------------
         O           -1.710391543888     0.532660524097     0.000445046681    15.994914619570
         O            1.710428456112    -0.532003475903     0.000452046681    15.994914619570
         C           -0.642132543888    -0.399859475903     0.000439046681    12.000000000000
         C            0.642169456112     0.400517524097     0.000436046681    12.000000000000
         C           -2.968748543888    -0.120410475903     0.000468046681    12.000000000000
         C            2.968785456112     0.121067524097     0.000471046681    12.000000000000
         H           -0.678425543888    -1.046135475903     0.890005046681     1.007825032230
         H           -0.678437543888    -1.046134475903    -0.889126953319     1.007825032230
         H            0.676812056112     1.017428824097     0.849566846681     1.007825032230
         H            0.678475456112     1.046783524097    -0.889135953319     1.007825032230
         H           -3.729509543888     0.661032524097     0.000466046681     1.007825032230
         H           -3.093194543888    -0.748984475903     0.892817046681     1.007825032230
         H           -3.093214543888    -0.749009475903    -0.891859953319     1.007825032230
         H            3.093252456112     0.749659524097    -0.891861953319     1.007825032230
         H            3.729546456112    -0.660375475903     0.000476046681     1.007825032230
         H            3.093230456112     0.749648524097     0.892815046681     1.007825032230

  Basis Set: AUG-CC-PVTZ
    Blend: AUG-CC-PVTZ
  Basis Set: (AUG-CC-PVTZ AUX)
    Blend: AUG-CC-PVTZ-JKFIT
	 Reference Energy          =    -307.0996628045318744 [Eh]
	 Singles Energy            =      -0.0000000000000000 [Eh]
	 Same-Spin Energy          =      -0.2946604175022837 [Eh]
	 Opposite-Spin Energy      =      -1.0068196349519547 [Eh]
	 Correlation Energy        =      -1.3014800524542385 [Eh]
	 Total Energy              =    -308.4011428569860982 [Eh]

	 ================> DF-SCS-MP2 Energies <==================
	-----------------------------------------------------------
	 SCS Same-Spin Scale       =       0.3333333333333333 [-]
	 SCS Opposite-Spin Scale   =       1.2000000000000000 [-]
	 SCS Same-Spin Energy      =      -0.0982201391674279 [Eh]
	 SCS Opposite-Spin Energy  =      -1.2081835619423456 [Eh]
	 SCS Correlation Energy    =      -1.3064037011097736 [Eh]
	 SCS Total Energy          =    -308.4060665056416610 [Eh]
	-----------------------------------------------------------

  Dipole Moment: [D]
     X:    -0.0049      Y:     0.0270      Z:     0.0256     Total:     0.0375

*** Psi4 exiting successfully. Buy a developer a beer!
