                               Psi4 1.4a3.dev225

  ==> Input File <==

--------------------------------------------------------------------------
#psi4
#
memory 32 gb

molecule  {
0 1
  O       -1.7104100     0.5323320    -0.0000080
  O        1.6490389    -0.3972203    -0.0000010
  C       -0.6421510    -0.4001880    -0.0000140
  C        0.6421510     0.4001890    -0.0000170
  C       -2.9687670    -0.1207390     0.0000150
  C        2.9687670     0.1207390     0.0000180
  H       -0.6784440    -1.0464640     0.8895520
  H       -0.6784560    -1.0464630    -0.8895800
  H        0.6784430     1.0464730     0.8895430
  H        0.6784570     1.0464550    -0.8895890
  H       -3.7295280     0.6607040     0.0000130
  H       -3.0932130    -0.7493130     0.8923640
  H       -3.0932330    -0.7493380    -0.8923130
  H        3.0932340     0.7493310    -0.8923150
  H        3.7295280    -0.6607040     0.0000230
  H        3.0932120     0.7493200     0.8923620
units angstrom
no_reorient  #important for SAPT in psi4, default
symmetry c1  #important for SAPT in psi4, default
}

set PROPERTIES_ORIGIN ["COM"]
properties('MP2/aug-cc-pvtz', properties = ['dipole'])
--------------------------------------------------------------------------

    Molecular point group: c1
  Charge       = 0
  Multiplicity = 1
  Basis Set: AUG-CC-PVTZ
    Blend: AUG-CC-PVTZ
  Basis Set: (AUG-CC-PVTZ AUX)
    Blend: AUG-CC-PVTZ-JKFIT

    Orbital Energies [Eh]
    ---------------------

    Doubly Occupied:

       1A    -20.555213     2A    -20.551576     3A    -11.280836
       4A    -11.268936     5A    -11.267602     6A    -11.259913
       7A     -1.420251     8A     -1.368865     9A     -1.028512
      10A     -0.946272    11A     -0.880732    12A     -0.825027
      13A     -0.699922    14A     -0.680992    15A     -0.666028
      16A     -0.648141    17A     -0.619967    18A     -0.595727
      19A     -0.572812    20A     -0.523227    21A     -0.519533
      22A     -0.486333    23A     -0.451577    24A     -0.423150
      25A     -0.409479

  @DF-RHF Final Energy:  -307.08842200163298

   => Energetics <=

    Nuclear Repulsion Energy =            255.4853432806117723
    One-Electron Energy =                -925.2462896772000249
    Two-Electron Energy =                 362.6725243949552464
    Total Energy =                       -307.0884220016329778
  Basis Set: (AUG-CC-PVTZ AUX)
    Blend: AUG-CC-PVTZ-RI
    Molecular point group: c1

    Geometry (in Angstrom), charge = 0, multiplicity = 1:

       Center              X                  Y                   Z               Mass
    ------------   -----------------  -----------------  -----------------  -----------------
         O           -1.699511294161     0.508337782249    -0.000007339558    15.994914619570
         O            1.659937605839    -0.421214517751    -0.000000339558    15.994914619570
         C           -0.631252294161    -0.424182217751    -0.000013339558    12.000000000000
         C            0.653049705839     0.376194782249    -0.000016339558    12.000000000000
         C           -2.957868294161    -0.144733217751     0.000015660442    12.000000000000
         C            2.979665705839     0.096744782249     0.000018660442    12.000000000000
         H           -0.667545294161    -1.070458217751     0.889552660442     1.007825032230
         H           -0.667557294161    -1.070457217751    -0.889579339558     1.007825032230
         H            0.689341705839     1.022478782249     0.889543660442     1.007825032230
         H            0.689355705839     1.022460782249    -0.889588339558     1.007825032230
         H           -3.718629294161     0.636709782249     0.000013660442     1.007825032230
         H           -3.082314294161    -0.773307217751     0.892364660442     1.007825032230
         H           -3.082334294161    -0.773332217751    -0.892312339558     1.007825032230
         H            3.104132705839     0.725336782249    -0.892314339558     1.007825032230
         H            3.740426705839    -0.684698217751     0.000023660442     1.007825032230
         H            3.104110705839     0.725325782249     0.892362660442     1.007825032230

  Basis Set: AUG-CC-PVTZ
    Blend: AUG-CC-PVTZ
  Basis Set: (AUG-CC-PVTZ AUX)
    Blend: AUG-CC-PVTZ-JKFIT
	 Reference Energy          =    -307.0884220016329778 [Eh]
	 Singles Energy            =      -0.0000000000000000 [Eh]
	 Same-Spin Energy          =      -0.2944403662141080 [Eh]
	 Opposite-Spin Energy      =      -1.0041455139973277 [Eh]
	 Correlation Energy        =      -1.2985858802114356 [Eh]
	 Total Energy              =    -308.3870078818443972 [Eh]

	 ================> DF-SCS-MP2 Energies <==================
	-----------------------------------------------------------
	 SCS Same-Spin Scale       =       0.3333333333333333 [-]
	 SCS Opposite-Spin Scale   =       1.2000000000000000 [-]
	 SCS Same-Spin Energy      =      -0.0981467887380360 [Eh]
	 SCS Opposite-Spin Energy  =      -1.2049746167967932 [Eh]
	 SCS Correlation Energy    =      -1.3031214055348292 [Eh]
	 SCS Total Energy          =    -308.3915434071678305 [Eh]
	-----------------------------------------------------------

  Dipole Moment: [D]
     X:     0.4977      Y:    -0.4094      Z:     0.0000     Total:     0.6445

*** Psi4 exiting successfully. Buy a developer a beer!
