                               Psi4 1.4a3.dev225

  ==> Input File <==

--------------------------------------------------------------------------
#psi4
#
memory 32 gb

molecule  {
0 1
  O       -1.7104100     0.5323320    -0.0000080
  O        1.7104100    -0.5323320    -0.0000010
  C       -0.6421510    -0.4001880    -0.0000140
  C        0.6421510     0.4001890    -0.0000170
  C       -2.9687670    -0.1207390     0.0000150
  C        2.9687670     0.1207390     0.0000180
  H       -0.6784440    -1.0464640     0.8895520
  H       -0.6784560    -1.0464630    -0.8895800
  H        0.6850407     1.1639638     1.0512600
  H        0.6784570     1.0464550    -0.8895890
  H       -3.7295280     0.6607040     0.0000130
  H       -3.0932130    -0.7493130     0.8923640
  H       -3.0932330    -0.7493380    -0.8923130
  H        3.0932340     0.7493310    -0.8923150
  H        3.7295280    -0.6607040     0.0000230
  H        3.0932120     0.7493200     0.8923620
units angstrom
no_reorient  #important for SAPT in psi4, default
symmetry c1  #important for SAPT in psi4, default
}

set PROPERTIES_ORIGIN ["COM"]
properties('MP2/aug-cc-pvtz', properties = ['dipole'])
--------------------------------------------------------------------------

    Molecular point group: c1
  Charge       = 0
  Multiplicity = 1
  Basis Set: AUG-CC-PVTZ
    Blend: AUG-CC-PVTZ
  Basis Set: (AUG-CC-PVTZ AUX)
    Blend: AUG-CC-PVTZ-JKFIT

    Orbital Energies [Eh]
    ---------------------

    Doubly Occupied:

       1A    -20.564163     2A    -20.559240     3A    -11.294971
       4A    -11.274713     5A    -11.272448     6A    -11.271814
       7A     -1.381117     8A     -1.369474     9A     -1.021734
      10A     -0.934250    11A     -0.883598    12A     -0.819471
      13A     -0.682983    14A     -0.665138    15A     -0.654755
      16A     -0.641648    17A     -0.609025    18A     -0.592921
      19A     -0.569062    20A     -0.507604    21A     -0.504029
      22A     -0.490056    23A     -0.473143    24A     -0.426549
      25A     -0.419436

  @DF-RHF Final Energy:  -307.08039170271462

   => Energetics <=

    Nuclear Repulsion Energy =            251.7721088658495887
    One-Electron Energy =                -917.9383200958056932
    Two-Electron Energy =                 359.0858195272415401
    Total Energy =                       -307.0803917027146213
  Basis Set: (AUG-CC-PVTZ AUX)
    Blend: AUG-CC-PVTZ-RI
    Molecular point group: c1

    Geometry (in Angstrom), charge = 0, multiplicity = 1:

       Center              X                  Y                   Z               Mass
    ------------   -----------------  -----------------  -----------------  -----------------
         O           -1.710483825569     0.531017181502    -0.001816886753    15.994914619570
         O            1.710336174431    -0.533646818498    -0.001809886753    15.994914619570
         C           -0.642224825569    -0.401502818498    -0.001822886753    12.000000000000
         C            0.642077174431     0.398874181502    -0.001825886753    12.000000000000
         C           -2.968840825569    -0.122053818498    -0.001793886753    12.000000000000
         C            2.968693174431     0.119424181502    -0.001790886753    12.000000000000
         H           -0.678517825569    -1.047778818498     0.887743113247     1.007825032230
         H           -0.678529825569    -1.047777818498    -0.891388886753     1.007825032230
         H            0.684966874431     1.162648981502     1.049451113247     1.007825032230
         H            0.678383174431     1.045140181502    -0.891397886753     1.007825032230
         H           -3.729601825569     0.659389181502    -0.001795886753     1.007825032230
         H           -3.093286825569    -0.750627818498     0.890555113247     1.007825032230
         H           -3.093306825569    -0.750652818498    -0.894121886753     1.007825032230
         H            3.093160174431     0.748016181502    -0.894123886753     1.007825032230
         H            3.729454174431    -0.662018818498    -0.001785886753     1.007825032230
         H            3.093138174431     0.748005181502     0.890553113247     1.007825032230

  Basis Set: AUG-CC-PVTZ
    Blend: AUG-CC-PVTZ
  Basis Set: (AUG-CC-PVTZ AUX)
    Blend: AUG-CC-PVTZ-JKFIT
	 Reference Energy          =    -307.0803917027146213 [Eh]
	 Singles Energy            =      -0.0000000000000000 [Eh]
	 Same-Spin Energy          =      -0.2951327503362939 [Eh]
	 Opposite-Spin Energy      =      -1.0091570649952308 [Eh]
	 Correlation Energy        =      -1.3042898153315248 [Eh]
	 Total Energy              =    -308.3846815180461363 [Eh]

	 ================> DF-SCS-MP2 Energies <==================
	-----------------------------------------------------------
	 SCS Same-Spin Scale       =       0.3333333333333333 [-]
	 SCS Opposite-Spin Scale   =       1.2000000000000000 [-]
	 SCS Same-Spin Energy      =      -0.0983775834454313 [Eh]
	 SCS Opposite-Spin Energy  =      -1.2109884779942770 [Eh]
	 SCS Correlation Energy    =      -1.3093660614397082 [Eh]
	 SCS Total Energy          =    -308.3897577641543535 [Eh]
	-----------------------------------------------------------

  Dipole Moment: [D]
     X:     0.0236      Y:    -0.1456      Z:    -0.1447     Total:     0.2066

*** Psi4 exiting successfully. Buy a developer a beer!
