                               Psi4 1.4a3.dev225

  ==> Input File <==

--------------------------------------------------------------------------
#psi4
#
memory 32 gb

molecule  {
0 1
  O       -1.7104100     0.5323320    -0.0000080
  O        1.7104100    -0.5323320    -0.0000010
  C       -0.6421510    -0.4001880    -0.0000140
  C        0.7270194     0.4530790    -0.0000172
  C       -2.9687670    -0.1207390     0.0000150
  C        2.9687670     0.1207390     0.0000180
  H       -0.6784440    -1.0464640     0.8895520
  H       -0.6784560    -1.0464630    -0.8895800
  H        0.6784430     1.0464730     0.8895430
  H        0.6784570     1.0464550    -0.8895890
  H       -3.7295280     0.6607040     0.0000130
  H       -3.0932130    -0.7493130     0.8923640
  H       -3.0932330    -0.7493380    -0.8923130
  H        3.0932340     0.7493310    -0.8923150
  H        3.7295280    -0.6607040     0.0000230
  H        3.0932120     0.7493200     0.8923620
units angstrom
no_reorient  #important for SAPT in psi4, default
symmetry c1  #important for SAPT in psi4, default
}

set PROPERTIES_ORIGIN ["COM"]
properties('MP2/aug-cc-pvtz', properties = ['dipole'])
--------------------------------------------------------------------------

    Molecular point group: c1
  Charge       = 0
  Multiplicity = 1
  Basis Set: AUG-CC-PVTZ
    Blend: AUG-CC-PVTZ
  Basis Set: (AUG-CC-PVTZ AUX)
    Blend: AUG-CC-PVTZ-JKFIT

    Orbital Energies [Eh]
    ---------------------

    Doubly Occupied:

       1A    -20.563995     2A    -20.555782     3A    -11.272341
       4A    -11.272219     5A    -11.270216     6A    -11.269409
       7A     -1.387720     8A     -1.367794     9A     -1.008286
      10A     -0.933463    11A     -0.882948    12A     -0.834573
      13A     -0.689237    14A     -0.665469    15A     -0.649396
      16A     -0.645855    17A     -0.615600    18A     -0.594023
      19A     -0.573551    20A     -0.522611    21A     -0.505388
      22A     -0.490236    23A     -0.447495    24A     -0.434539
      25A     -0.422823

  @DF-RHF Final Energy:  -307.09063839148223

   => Energetics <=

    Nuclear Repulsion Energy =            252.0633419203630297
    One-Electron Energy =                -918.5580205521448534
    Two-Electron Energy =                 359.4040402402996506
    Total Energy =                       -307.0906383914822300
  Basis Set: (AUG-CC-PVTZ AUX)
    Blend: AUG-CC-PVTZ-RI
    Molecular point group: c1

    Geometry (in Angstrom), charge = 0, multiplicity = 1:

       Center              X                  Y                   Z               Mass
    ------------   -----------------  -----------------  -----------------  -----------------
         O           -1.721717233428     0.525285185958    -0.000007312912    15.994914619570
         O            1.699102766572    -0.539378814042    -0.000000312912    15.994914619570
         C           -0.653458233428    -0.407234814042    -0.000013312912    12.000000000000
         C            0.715712166572     0.446032185958    -0.000016512912    12.000000000000
         C           -2.980074233428    -0.127785814042     0.000015687088    12.000000000000
         C            2.957459766572     0.113692185958     0.000018687088    12.000000000000
         H           -0.689751233428    -1.053510814042     0.889552687088     1.007825032230
         H           -0.689763233428    -1.053509814042    -0.889579312912     1.007825032230
         H            0.667135766572     1.039426185958     0.889543687088     1.007825032230
         H            0.667149766572     1.039408185958    -0.889588312912     1.007825032230
         H           -3.740835233428     0.653657185958     0.000013687088     1.007825032230
         H           -3.104520233428    -0.756359814042     0.892364687088     1.007825032230
         H           -3.104540233428    -0.756384814042    -0.892312312912     1.007825032230
         H            3.081926766572     0.742284185958    -0.892314312912     1.007825032230
         H            3.718220766572    -0.667750814042     0.000023687088     1.007825032230
         H            3.081904766572     0.742273185958     0.892362687088     1.007825032230

  Basis Set: AUG-CC-PVTZ
    Blend: AUG-CC-PVTZ
  Basis Set: (AUG-CC-PVTZ AUX)
    Blend: AUG-CC-PVTZ-JKFIT
	 Reference Energy          =    -307.0906383914822300 [Eh]
	 Singles Energy            =      -0.0000000000000000 [Eh]
	 Same-Spin Energy          =      -0.2949354355587159 [Eh]
	 Opposite-Spin Energy      =      -1.0078147062584086 [Eh]
	 Correlation Energy        =      -1.3027501418171246 [Eh]
	 Total Energy              =    -308.3933885332993441 [Eh]

	 ================> DF-SCS-MP2 Energies <==================
	-----------------------------------------------------------
	 SCS Same-Spin Scale       =       0.3333333333333333 [-]
	 SCS Opposite-Spin Scale   =       1.2000000000000000 [-]
	 SCS Same-Spin Energy      =      -0.0983118118529053 [Eh]
	 SCS Opposite-Spin Energy  =      -1.2093776475100904 [Eh]
	 SCS Correlation Energy    =      -1.3076894593629957 [Eh]
	 SCS Total Energy          =    -308.3983278508452486 [Eh]
	-----------------------------------------------------------

  Dipole Moment: [D]
     X:     0.1757      Y:     0.0313      Z:     0.0000     Total:     0.1785

*** Psi4 exiting successfully. Buy a developer a beer!
