                               Psi4 1.4a3.dev225

  ==> Input File <==

--------------------------------------------------------------------------
#psi4
#
memory 32 gb

molecule  {
0 1
  O       -1.7104100     0.5323320    -0.0000080
  O        1.6992040    -0.5102712    -0.0000010
  C       -0.6421510    -0.4001880    -0.0000140
  C        0.6421510     0.4001890    -0.0000170
  C       -2.9687670    -0.1207390     0.0000150
  C        2.9687670     0.1207390     0.0000180
  H       -0.6784440    -1.0464640     0.8895520
  H       -0.6784560    -1.0464630    -0.8895800
  H        0.6784430     1.0464730     0.8895430
  H        0.6784570     1.0464550    -0.8895890
  H       -3.7295280     0.6607040     0.0000130
  H       -3.0932130    -0.7493130     0.8923640
  H       -3.0932330    -0.7493380    -0.8923130
  H        3.0932340     0.7493310    -0.8923150
  H        3.7295280    -0.6607040     0.0000230
  H        3.0932120     0.7493200     0.8923620
units angstrom
no_reorient  #important for SAPT in psi4, default
symmetry c1  #important for SAPT in psi4, default
}

set PROPERTIES_ORIGIN ["COM"]
properties('MP2/aug-cc-pvtz', properties = ['dipole'])
--------------------------------------------------------------------------

    Molecular point group: c1
  Charge       = 0
  Multiplicity = 1
  Basis Set: AUG-CC-PVTZ
    Blend: AUG-CC-PVTZ
  Basis Set: (AUG-CC-PVTZ AUX)
    Blend: AUG-CC-PVTZ-JKFIT

    Orbital Energies [Eh]
    ---------------------

    Doubly Occupied:

       1A    -20.558232     2A    -20.557714     3A    -11.272755
       4A    -11.271282     5A    -11.271048     6A    -11.269704
       7A     -1.383398     8A     -1.369509     9A     -1.024365
      10A     -0.935481    11A     -0.883832    12A     -0.828902
      13A     -0.688605    14A     -0.668080    15A     -0.655135
      16A     -0.643802    17A     -0.612520    18A     -0.594165
      19A     -0.573981    20A     -0.515277    21A     -0.506715
      22A     -0.489301    23A     -0.471663    24A     -0.425789
      25A     -0.423725

  @DF-RHF Final Energy:  -307.10107777099478

   => Energetics <=

    Nuclear Repulsion Energy =            253.0996564002078628
    One-Electron Energy =                -920.6115030261271386
    Two-Electron Energy =                 360.4107688549244699
    Total Energy =                       -307.1010777709947774
  Basis Set: (AUG-CC-PVTZ AUX)
    Blend: AUG-CC-PVTZ-RI
    Molecular point group: c1

    Geometry (in Angstrom), charge = 0, multiplicity = 1:

       Center              X                  Y                   Z               Mass
    ------------   -----------------  -----------------  -----------------  -----------------
         O           -1.708419960753     0.528414145617    -0.000007339558    15.994914619570
         O            1.701194039247    -0.514189054383    -0.000000339558    15.994914619570
         C           -0.640160960753    -0.404105854383    -0.000013339558    12.000000000000
         C            0.644141039247     0.396271145617    -0.000016339558    12.000000000000
         C           -2.966776960753    -0.124656854383     0.000015660442    12.000000000000
         C            2.970757039247     0.116821145617     0.000018660442    12.000000000000
         H           -0.676453960753    -1.050381854383     0.889552660442     1.007825032230
         H           -0.676465960753    -1.050380854383    -0.889579339558     1.007825032230
         H            0.680433039247     1.042555145617     0.889543660442     1.007825032230
         H            0.680447039247     1.042537145617    -0.889588339558     1.007825032230
         H           -3.727537960753     0.656786145617     0.000013660442     1.007825032230
         H           -3.091222960753    -0.753230854383     0.892364660442     1.007825032230
         H           -3.091242960753    -0.753255854383    -0.892312339558     1.007825032230
         H            3.095224039247     0.745413145617    -0.892314339558     1.007825032230
         H            3.731518039247    -0.664621854383     0.000023660442     1.007825032230
         H            3.095202039247     0.745402145617     0.892362660442     1.007825032230

  Basis Set: AUG-CC-PVTZ
    Blend: AUG-CC-PVTZ
  Basis Set: (AUG-CC-PVTZ AUX)
    Blend: AUG-CC-PVTZ-JKFIT
	 Reference Energy          =    -307.1010777709947774 [Eh]
	 Singles Energy            =      -0.0000000000000000 [Eh]
	 Same-Spin Energy          =      -0.2946163141680526 [Eh]
	 Opposite-Spin Energy      =      -1.0065172823860353 [Eh]
	 Correlation Energy        =      -1.3011335965540880 [Eh]
	 Total Energy              =    -308.4022113675488868 [Eh]

	 ================> DF-SCS-MP2 Energies <==================
	-----------------------------------------------------------
	 SCS Same-Spin Scale       =       0.3333333333333333 [-]
	 SCS Opposite-Spin Scale   =       1.2000000000000000 [-]
	 SCS Same-Spin Energy      =      -0.0982054380560175 [Eh]
	 SCS Opposite-Spin Energy  =      -1.2078207388632423 [Eh]
	 SCS Correlation Energy    =      -1.3060261769192598 [Eh]
	 SCS Total Energy          =    -308.4071039479140381 [Eh]
	-----------------------------------------------------------

  Dipole Moment: [D]
     X:     0.0764      Y:    -0.0615      Z:     0.0000     Total:     0.0981

*** Psi4 exiting successfully. Buy a developer a beer!
