                               Psi4 1.4a3.dev225

  ==> Input File <==

--------------------------------------------------------------------------
#psi4
#
memory 32 gb

molecule  {
0 1
  O       -1.7104100     0.5323320    -0.0000080
  O        1.7104100    -0.5323320    -0.0000010
  C       -0.6421510    -0.4001880    -0.0000140
  C        0.6421510     0.4001890    -0.0000170
  C       -2.9687670    -0.1207390     0.0000150
  C        2.9687670     0.1207390     0.0000180
  H       -0.6818357    -1.1068450     0.8422321
  H       -0.6784560    -1.0464630    -0.8895800
  H        0.6784430     1.0464730     0.8895430
  H        0.6784570     1.0464550    -0.8895890
  H       -3.7295280     0.6607040     0.0000130
  H       -3.0932130    -0.7493130     0.8923640
  H       -3.0932330    -0.7493380    -0.8923130
  H        3.0932340     0.7493310    -0.8923150
  H        3.7295280    -0.6607040     0.0000230
  H        3.0932120     0.7493200     0.8923620
units angstrom
no_reorient  #important for SAPT in psi4, default
symmetry c1  #important for SAPT in psi4, default
}

set PROPERTIES_ORIGIN ["COM"]
properties('MP2/aug-cc-pvtz', properties = ['dipole'])
--------------------------------------------------------------------------

    Molecular point group: c1
  Charge       = 0
  Multiplicity = 1
  Basis Set: AUG-CC-PVTZ
    Blend: AUG-CC-PVTZ
  Basis Set: (AUG-CC-PVTZ AUX)
    Blend: AUG-CC-PVTZ-JKFIT

    Orbital Energies [Eh]
    ---------------------

    Doubly Occupied:

       1A    -20.559831     2A    -20.558769     3A    -11.272549
       4A    -11.271692     5A    -11.271641     6A    -11.271426
       7A     -1.379285     8A     -1.367770     9A     -1.023766
      10A     -0.933486    11A     -0.884778    12A     -0.831355
      13A     -0.685004    14A     -0.667585    15A     -0.653549
      16A     -0.642131    17A     -0.612737    18A     -0.593452
      19A     -0.573028    20A     -0.512601    21A     -0.503680
      22A     -0.490438    23A     -0.477055    24A     -0.426276
      25A     -0.424678

  @DF-RHF Final Energy:  -307.09963185693039

   => Energetics <=

    Nuclear Repulsion Energy =            252.5899471459572965
    One-Electron Energy =                -919.6020277964422576
    Two-Electron Energy =                 359.9124487935545176
    Total Energy =                       -307.0996318569303867
  Basis Set: (AUG-CC-PVTZ AUX)
    Blend: AUG-CC-PVTZ-RI
    Molecular point group: c1

    Geometry (in Angstrom), charge = 0, multiplicity = 1:

       Center              X                  Y                   Z               Mass
    ------------   -----------------  -----------------  -----------------  -----------------
         O           -1.710372048262     0.533007494312     0.000522150800    15.994914619570
         O            1.710447951738    -0.531656505688     0.000529150800    15.994914619570
         C           -0.642113048262    -0.399512505688     0.000516150800    12.000000000000
         C            0.642188951738     0.400864494312     0.000513150800    12.000000000000
         C           -2.968729048262    -0.120063505688     0.000545150800    12.000000000000
         C            2.968804951738     0.121414494312     0.000548150800    12.000000000000
         H           -0.681797748262    -1.106169505688     0.842762250800     1.007825032230
         H           -0.678418048262    -1.045787505688    -0.889049849200     1.007825032230
         H            0.678480951738     1.047148494312     0.890073150800     1.007825032230
         H            0.678494951738     1.047130494312    -0.889058849200     1.007825032230
         H           -3.729490048262     0.661379494312     0.000543150800     1.007825032230
         H           -3.093175048262    -0.748637505688     0.892894150800     1.007825032230
         H           -3.093195048262    -0.748662505688    -0.891782849200     1.007825032230
         H            3.093271951738     0.750006494312    -0.891784849200     1.007825032230
         H            3.729565951738    -0.660028505688     0.000553150800     1.007825032230
         H            3.093249951738     0.749995494312     0.892892150800     1.007825032230

  Basis Set: AUG-CC-PVTZ
    Blend: AUG-CC-PVTZ
  Basis Set: (AUG-CC-PVTZ AUX)
    Blend: AUG-CC-PVTZ-JKFIT
	 Reference Energy          =    -307.0996318569303867 [Eh]
	 Singles Energy            =      -0.0000000000000000 [Eh]
	 Same-Spin Energy          =      -0.2947619056088286 [Eh]
	 Opposite-Spin Energy      =      -1.0071654964747956 [Eh]
	 Correlation Energy        =      -1.3019274020836242 [Eh]
	 Total Energy              =    -308.4015592590139931 [Eh]

	 ================> DF-SCS-MP2 Energies <==================
	-----------------------------------------------------------
	 SCS Same-Spin Scale       =       0.3333333333333333 [-]
	 SCS Opposite-Spin Scale   =       1.2000000000000000 [-]
	 SCS Same-Spin Energy      =      -0.0982539685362762 [Eh]
	 SCS Opposite-Spin Energy  =      -1.2085985957697547 [Eh]
	 SCS Correlation Energy    =      -1.3068525643060309 [Eh]
	 SCS Total Energy          =    -308.4064844212364278 [Eh]
	-----------------------------------------------------------

  Dipole Moment: [D]
     X:    -0.0109      Y:    -0.0113      Z:    -0.0015     Total:     0.0158

*** Psi4 exiting successfully. Buy a developer a beer!
