                               Psi4 1.4a3.dev225

  ==> Input File <==

--------------------------------------------------------------------------
#psi4
#
memory 32 gb

molecule  {
0 1
  O       -1.7104100     0.5323320    -0.0000080
  O        1.7104100    -0.5323320    -0.0000010
  C       -0.6421510    -0.4001880    -0.0000140
  C        0.6421510     0.4001890    -0.0000170
  C       -2.9687670    -0.1207390     0.0000150
  C        2.9687670     0.1207390     0.0000180
  H       -0.6784440    -1.0464640     0.8895520
  H       -0.6784560    -1.0464630    -0.8895800
  H        0.6784430     1.0464730     0.8895430
  H        0.6784570     1.0464550    -0.8895890
  H       -3.7295280     0.6607040     0.0000130
  H       -3.0932130    -0.7493130     0.8923640
  H       -3.0932330    -0.7493380    -0.8923130
  H        3.0932340     0.7493310    -0.8923150
  H        3.7295280    -0.6607040     0.0000230
  H        3.1158676     0.8637552     1.0548160
units angstrom
no_reorient  #important for SAPT in psi4, default
symmetry c1  #important for SAPT in psi4, default
}

set PROPERTIES_ORIGIN ["COM"]
properties('MP2/aug-cc-pvtz', properties = ['dipole'])
--------------------------------------------------------------------------

    Molecular point group: c1
  Charge       = 0
  Multiplicity = 1
  Basis Set: AUG-CC-PVTZ
    Blend: AUG-CC-PVTZ
  Basis Set: (AUG-CC-PVTZ AUX)
    Blend: AUG-CC-PVTZ-JKFIT

    Orbital Energies [Eh]
    ---------------------

    Doubly Occupied:

       1A    -20.564765     2A    -20.559580     3A    -11.294965
       4A    -11.273426     5A    -11.272672     6A    -11.272002
       7A     -1.381642     8A     -1.369706     9A     -1.024255
      10A     -0.928838    11A     -0.877670    12A     -0.829520
      13A     -0.687140    14A     -0.665606    15A     -0.655121
      16A     -0.637939    17A     -0.610249    18A     -0.594807
      19A     -0.564337    20A     -0.511206    21A     -0.500639
      22A     -0.486852    23A     -0.476046    24A     -0.427188
      25A     -0.421845

  @DF-RHF Final Energy:  -307.08052517087981

   => Energetics <=

    Nuclear Repulsion Energy =            251.9014112764781999
    One-Electron Energy =                -918.1878420962942755
    Two-Electron Energy =                 359.2059056489363229
    Total Energy =                       -307.0805251708798096
  Basis Set: (AUG-CC-PVTZ AUX)
    Blend: AUG-CC-PVTZ-RI
    Molecular point group: c1

    Geometry (in Angstrom), charge = 0, multiplicity = 1:

       Center              X                  Y                   Z               Mass
    ------------   -----------------  -----------------  -----------------  -----------------
         O           -1.710663506913     0.531051372418    -0.001825133482    15.994914619570
         O            1.710156493087    -0.533612627582    -0.001818133482    15.994914619570
         C           -0.642404506913    -0.401468627582    -0.001831133482    12.000000000000
         C            0.641897493087     0.398908372418    -0.001834133482    12.000000000000
         C           -2.969020506913    -0.122019627582    -0.001802133482    12.000000000000
         C            2.968513493087     0.119458372418    -0.001799133482    12.000000000000
         H           -0.678697506913    -1.047744627582     0.887734866518     1.007825032230
         H           -0.678709506913    -1.047743627582    -0.891397133482     1.007825032230
         H            0.678189493087     1.045192372418     0.887725866518     1.007825032230
         H            0.678203493087     1.045174372418    -0.891406133482     1.007825032230
         H           -3.729781506913     0.659423372418    -0.001804133482     1.007825032230
         H           -3.093466506913    -0.750593627582     0.890546866518     1.007825032230
         H           -3.093486506913    -0.750618627582    -0.894130133482     1.007825032230
         H            3.092980493087     0.748050372418    -0.894132133482     1.007825032230
         H            3.729274493087    -0.661984627582    -0.001794133482     1.007825032230
         H            3.115614093087     0.862474572418     1.052998866518     1.007825032230

  Basis Set: AUG-CC-PVTZ
    Blend: AUG-CC-PVTZ
  Basis Set: (AUG-CC-PVTZ AUX)
    Blend: AUG-CC-PVTZ-JKFIT
	 Reference Energy          =    -307.0805251708798096 [Eh]
	 Singles Energy            =      -0.0000000000000000 [Eh]
	 Same-Spin Energy          =      -0.2949661941973136 [Eh]
	 Opposite-Spin Energy      =      -1.0090103940427406 [Eh]
	 Correlation Energy        =      -1.3039765882400542 [Eh]
	 Total Energy              =    -308.3845017591198712 [Eh]

	 ================> DF-SCS-MP2 Energies <==================
	-----------------------------------------------------------
	 SCS Same-Spin Scale       =       0.3333333333333333 [-]
	 SCS Opposite-Spin Scale   =       1.2000000000000000 [-]
	 SCS Same-Spin Energy      =      -0.0983220647324379 [Eh]
	 SCS Opposite-Spin Energy  =      -1.2108124728512888 [Eh]
	 SCS Correlation Energy    =      -1.3091345375837267 [Eh]
	 SCS Total Energy          =    -308.3896597084635118 [Eh]
	-----------------------------------------------------------

  Dipole Moment: [D]
     X:    -0.1202      Y:    -0.1222      Z:    -0.1589     Total:     0.2337

*** Psi4 exiting successfully. Buy a developer a beer!
