                               Psi4 1.4a3.dev225

  ==> Input File <==

--------------------------------------------------------------------------
#psi4
#
memory 32 gb

molecule  {
0 1
  O       -1.7161783     0.5429771    -0.0215872
  O        1.7104100    -0.5323320    -0.0000010
  C       -0.6421510    -0.4001880    -0.0000140
  C        0.6421510     0.4001890    -0.0000170
  C       -2.9687670    -0.1207390     0.0000150
  C        2.9687670     0.1207390     0.0000180
  H       -0.6784440    -1.0464640     0.8895520
  H       -0.6784560    -1.0464630    -0.8895800
  H        0.6784430     1.0464730     0.8895430
  H        0.6784570     1.0464550    -0.8895890
  H       -3.7295280     0.6607040     0.0000130
  H       -3.0932130    -0.7493130     0.8923640
  H       -3.0932330    -0.7493380    -0.8923130
  H        3.0932340     0.7493310    -0.8923150
  H        3.7295280    -0.6607040     0.0000230
  H        3.0932120     0.7493200     0.8923620
units angstrom
no_reorient  #important for SAPT in psi4, default
symmetry c1  #important for SAPT in psi4, default
}

set PROPERTIES_ORIGIN ["COM"]
properties('MP2/aug-cc-pvtz', properties = ['dipole'])
--------------------------------------------------------------------------

    Molecular point group: c1
  Charge       = 0
  Multiplicity = 1
  Basis Set: AUG-CC-PVTZ
    Blend: AUG-CC-PVTZ
  Basis Set: (AUG-CC-PVTZ AUX)
    Blend: AUG-CC-PVTZ-JKFIT

    Orbital Energies [Eh]
    ---------------------

    Doubly Occupied:

       1A    -20.559329     2A    -20.559102     3A    -11.273096
       4A    -11.272116     5A    -11.271656     6A    -11.270836
       7A     -1.377930     8A     -1.365949     9A     -1.023920
      10A     -0.932432    11A     -0.884822    12A     -0.829942
      13A     -0.686657    14A     -0.665615    15A     -0.652450
      16A     -0.642071    17A     -0.610484    18A     -0.592569
      19A     -0.574541    20A     -0.514557    21A     -0.502133
      22A     -0.489891    23A     -0.476097    24A     -0.427658
      25A     -0.425696

  @DF-RHF Final Energy:  -307.09961565549622

   => Energetics <=

    Nuclear Repulsion Energy =            252.4008277826662265
    One-Electron Energy =                -919.2377858202706875
    Two-Electron Energy =                 359.7373423821082952
    Total Energy =                       -307.0996156554962226
  Basis Set: (AUG-CC-PVTZ AUX)
    Blend: AUG-CC-PVTZ-RI
    Molecular point group: c1

    Geometry (in Angstrom), charge = 0, multiplicity = 1:

       Center              X                  Y                   Z               Mass
    ------------   -----------------  -----------------  -----------------  -----------------
         O           -1.715153925255     0.541086524845    -0.017754355468    15.994914619570
         O            1.711434374745    -0.534222575155     0.003831844532    15.994914619570
         C           -0.641126625255    -0.402078575155     0.003818844532    12.000000000000
         C            0.643175374745     0.398298424845     0.003815844532    12.000000000000
         C           -2.967742625255    -0.122629575155     0.003847844532    12.000000000000
         C            2.969791374745     0.118848424845     0.003850844532    12.000000000000
         H           -0.677419625255    -1.048354575155     0.893384844532     1.007825032230
         H           -0.677431625255    -1.048353575155    -0.885747155468     1.007825032230
         H            0.679467374745     1.044582424845     0.893375844532     1.007825032230
         H            0.679481374745     1.044564424845    -0.885756155468     1.007825032230
         H           -3.728503625255     0.658813424845     0.003845844532     1.007825032230
         H           -3.092188625255    -0.751203575155     0.896196844532     1.007825032230
         H           -3.092208625255    -0.751228575155    -0.888480155468     1.007825032230
         H            3.094258374745     0.747440424845    -0.888482155468     1.007825032230
         H            3.730552374745    -0.662594575155     0.003855844532     1.007825032230
         H            3.094236374745     0.747429424845     0.896194844532     1.007825032230

  Basis Set: AUG-CC-PVTZ
    Blend: AUG-CC-PVTZ
  Basis Set: (AUG-CC-PVTZ AUX)
    Blend: AUG-CC-PVTZ-JKFIT
	 Reference Energy          =    -307.0996156554962226 [Eh]
	 Singles Energy            =      -0.0000000000000000 [Eh]
	 Same-Spin Energy          =      -0.2948063359157943 [Eh]
	 Opposite-Spin Energy      =      -1.0075261291722299 [Eh]
	 Correlation Energy        =      -1.3023324650880244 [Eh]
	 Total Energy              =    -308.4019481205842226 [Eh]

	 ================> DF-SCS-MP2 Energies <==================
	-----------------------------------------------------------
	 SCS Same-Spin Scale       =       0.3333333333333333 [-]
	 SCS Opposite-Spin Scale   =       1.2000000000000000 [-]
	 SCS Same-Spin Energy      =      -0.0982687786385981 [Eh]
	 SCS Opposite-Spin Energy  =      -1.2090313550066758 [Eh]
	 SCS Correlation Energy    =      -1.3073001336452739 [Eh]
	 SCS Total Energy          =    -308.4069157891415216 [Eh]
	-----------------------------------------------------------

  Dipole Moment: [D]
     X:     0.0374      Y:    -0.0292      Z:     0.0423     Total:     0.0635

*** Psi4 exiting successfully. Buy a developer a beer!
