                               Psi4 1.4a3.dev225

  ==> Input File <==

--------------------------------------------------------------------------
#psi4
#
memory 32 gb

molecule  {
0 1
  O       -1.7104100     0.5323320    -0.0000080
  O        1.7104100    -0.5323320    -0.0000010
  C       -0.6421510    -0.4001880    -0.0000140
  C        0.6104746     0.4440482     0.0907012
  C       -2.9687670    -0.1207390     0.0000150
  C        2.9687670     0.1207390     0.0000180
  H       -0.6784440    -1.0464640     0.8895520
  H       -0.6784560    -1.0464630    -0.8895800
  H        0.6784430     1.0464730     0.8895430
  H        0.6784570     1.0464550    -0.8895890
  H       -3.7295280     0.6607040     0.0000130
  H       -3.0932130    -0.7493130     0.8923640
  H       -3.0932330    -0.7493380    -0.8923130
  H        3.0932340     0.7493310    -0.8923150
  H        3.7295280    -0.6607040     0.0000230
  H        3.0932120     0.7493200     0.8923620
units angstrom
no_reorient  #important for SAPT in psi4, default
symmetry c1  #important for SAPT in psi4, default
}

set PROPERTIES_ORIGIN ["COM"]
properties('MP2/aug-cc-pvtz', properties = ['dipole'])
--------------------------------------------------------------------------

    Molecular point group: c1
  Charge       = 0
  Multiplicity = 1
  Basis Set: AUG-CC-PVTZ
    Blend: AUG-CC-PVTZ
  Basis Set: (AUG-CC-PVTZ AUX)
    Blend: AUG-CC-PVTZ-JKFIT

    Orbital Energies [Eh]
    ---------------------

    Doubly Occupied:

       1A    -20.559206     2A    -20.554414     3A    -11.274299
       4A    -11.272305     5A    -11.271848     6A    -11.267789
       7A     -1.376499     8A     -1.353283     9A     -1.025566
      10A     -0.929308    11A     -0.883933    12A     -0.837637
      13A     -0.688588    14A     -0.662128    15A     -0.650996
      16A     -0.639279    17A     -0.608969    18A     -0.590937
      19A     -0.574416    20A     -0.522351    21A     -0.497998
      22A     -0.483521    23A     -0.477528    24A     -0.427740
      25A     -0.423951

  @DF-RHF Final Energy:  -307.08599130555848

   => Energetics <=

    Nuclear Repulsion Energy =            252.1156439062819175
    One-Electron Energy =                -918.6942919018792963
    Two-Electron Energy =                 359.4926566900389275
    Total Energy =                       -307.0859913055584798
  Basis Set: (AUG-CC-PVTZ AUX)
    Blend: AUG-CC-PVTZ-RI
    Molecular point group: c1

    Geometry (in Angstrom), charge = 0, multiplicity = 1:

       Center              X                  Y                   Z               Mass
    ------------   -----------------  -----------------  -----------------  -----------------
         O           -1.706189672423     0.526488382479    -0.012093956763    15.994914619570
         O            1.714630327577    -0.538175617521    -0.012086956763    15.994914619570
         C           -0.637930672423    -0.406031617521    -0.012099956763    12.000000000000
         C            0.614694927577     0.438204582479     0.078615243237    12.000000000000
         C           -2.964546672423    -0.126582617521    -0.012070956763    12.000000000000
         C            2.972987327577     0.114895382479    -0.012067956763    12.000000000000
         H           -0.674223672423    -1.052307617521     0.877466043237     1.007825032230
         H           -0.674235672423    -1.052306617521    -0.901665956763     1.007825032230
         H            0.682663327577     1.040629382479     0.877457043237     1.007825032230
         H            0.682677327577     1.040611382479    -0.901674956763     1.007825032230
         H           -3.725307672423     0.654860382479    -0.012072956763     1.007825032230
         H           -3.088992672423    -0.755156617521     0.880278043237     1.007825032230
         H           -3.089012672423    -0.755181617521    -0.904398956763     1.007825032230
         H            3.097454327577     0.743487382479    -0.904400956763     1.007825032230
         H            3.733748327577    -0.666547617521    -0.012062956763     1.007825032230
         H            3.097432327577     0.743476382479     0.880276043237     1.007825032230

  Basis Set: AUG-CC-PVTZ
    Blend: AUG-CC-PVTZ
  Basis Set: (AUG-CC-PVTZ AUX)
    Blend: AUG-CC-PVTZ-JKFIT
	 Reference Energy          =    -307.0859913055584798 [Eh]
	 Singles Energy            =      -0.0000000000000000 [Eh]
	 Same-Spin Energy          =      -0.2950006486602796 [Eh]
	 Opposite-Spin Energy      =      -1.0086744498847868 [Eh]
	 Correlation Energy        =      -1.3036750985450665 [Eh]
	 Total Energy              =    -308.3896664041035365 [Eh]

	 ================> DF-SCS-MP2 Energies <==================
	-----------------------------------------------------------
	 SCS Same-Spin Scale       =       0.3333333333333333 [-]
	 SCS Opposite-Spin Scale   =       1.2000000000000000 [-]
	 SCS Same-Spin Energy      =      -0.0983335495534265 [Eh]
	 SCS Opposite-Spin Energy  =      -1.2104093398617441 [Eh]
	 SCS Correlation Energy    =      -1.3087428894151707 [Eh]
	 SCS Total Energy          =    -308.3947341949736369 [Eh]
	-----------------------------------------------------------

  Dipole Moment: [D]
     X:    -0.1709      Y:     0.0811      Z:     0.1431     Total:     0.2372

*** Psi4 exiting successfully. Buy a developer a beer!
