                               Psi4 1.4a3.dev225

  ==> Input File <==

--------------------------------------------------------------------------
#psi4
#
memory 32 gb

molecule  {
0 1
  O       -1.7104100     0.5323320    -0.0000080
  O        1.7104100    -0.5323320    -0.0000010
  C       -0.6421510    -0.4001880    -0.0000140
  C        0.6270860     0.4226198     0.0453698
  C       -2.9687670    -0.1207390     0.0000150
  C        2.9687670     0.1207390     0.0000180
  H       -0.6784440    -1.0464640     0.8895520
  H       -0.6784560    -1.0464630    -0.8895800
  H        0.6784430     1.0464730     0.8895430
  H        0.6784570     1.0464550    -0.8895890
  H       -3.7295280     0.6607040     0.0000130
  H       -3.0932130    -0.7493130     0.8923640
  H       -3.0932330    -0.7493380    -0.8923130
  H        3.0932340     0.7493310    -0.8923150
  H        3.7295280    -0.6607040     0.0000230
  H        3.0932120     0.7493200     0.8923620
units angstrom
no_reorient  #important for SAPT in psi4, default
symmetry c1  #important for SAPT in psi4, default
}

set PROPERTIES_ORIGIN ["COM"]
properties('MP2/aug-cc-pvtz', properties = ['dipole'])
--------------------------------------------------------------------------

    Molecular point group: c1
  Charge       = 0
  Multiplicity = 1
  Basis Set: AUG-CC-PVTZ
    Blend: AUG-CC-PVTZ
  Basis Set: (AUG-CC-PVTZ AUX)
    Blend: AUG-CC-PVTZ-JKFIT

    Orbital Energies [Eh]
    ---------------------

    Doubly Occupied:

       1A    -20.558940     2A    -20.556547     3A    -11.272904
       4A    -11.271614     5A    -11.271600     6A    -11.269601
       7A     -1.376761     8A     -1.361325     9A     -1.024521
      10A     -0.931228    11A     -0.884056    12A     -0.832817
      13A     -0.687754    14A     -0.663910    15A     -0.651367
      16A     -0.641204    17A     -0.609360    18A     -0.592244
      19A     -0.575084    20A     -0.517845    21A     -0.500482
      22A     -0.487124    23A     -0.477106    24A     -0.427926
      25A     -0.424974

  @DF-RHF Final Energy:  -307.09665375397168

   => Energetics <=

    Nuclear Repulsion Energy =            252.3775251319856352
    One-Electron Energy =                -919.2117625381739572
    Two-Electron Energy =                 359.7375836522166423
    Total Energy =                       -307.0966537539716796
  Basis Set: (AUG-CC-PVTZ AUX)
    Blend: AUG-CC-PVTZ-RI
    Molecular point group: c1

    Geometry (in Angstrom), charge = 0, multiplicity = 1:

       Center              X                  Y                   Z               Mass
    ------------   -----------------  -----------------  -----------------  -----------------
         O           -1.708402851620     0.529343342874    -0.006054338702    15.994914619570
         O            1.712417148380    -0.535320657126    -0.006047338702    15.994914619570
         C           -0.640143851620    -0.403176657126    -0.006060338702    12.000000000000
         C            0.629093148380     0.419631142874     0.039323461298    12.000000000000
         C           -2.966759851620    -0.123727657126    -0.006031338702    12.000000000000
         C            2.970774148380     0.117750342874    -0.006028338702    12.000000000000
         H           -0.676436851620    -1.049452657126     0.883505661298     1.007825032230
         H           -0.676448851620    -1.049451657126    -0.895626338702     1.007825032230
         H            0.680450148380     1.043484342874     0.883496661298     1.007825032230
         H            0.680464148380     1.043466342874    -0.895635338702     1.007825032230
         H           -3.727520851620     0.657715342874    -0.006033338702     1.007825032230
         H           -3.091205851620    -0.752301657126     0.886317661298     1.007825032230
         H           -3.091225851620    -0.752326657126    -0.898359338702     1.007825032230
         H            3.095241148380     0.746342342874    -0.898361338702     1.007825032230
         H            3.731535148380    -0.663692657126    -0.006023338702     1.007825032230
         H            3.095219148380     0.746331342874     0.886315661298     1.007825032230

  Basis Set: AUG-CC-PVTZ
    Blend: AUG-CC-PVTZ
  Basis Set: (AUG-CC-PVTZ AUX)
    Blend: AUG-CC-PVTZ-JKFIT
	 Reference Energy          =    -307.0966537539716796 [Eh]
	 Singles Energy            =      -0.0000000000000000 [Eh]
	 Same-Spin Energy          =      -0.2948084037887077 [Eh]
	 Opposite-Spin Energy      =      -1.0077514081549634 [Eh]
	 Correlation Energy        =      -1.3025598119436710 [Eh]
	 Total Energy              =    -308.3992135659153746 [Eh]

	 ================> DF-SCS-MP2 Energies <==================
	-----------------------------------------------------------
	 SCS Same-Spin Scale       =       0.3333333333333333 [-]
	 SCS Opposite-Spin Scale   =       1.2000000000000000 [-]
	 SCS Same-Spin Energy      =      -0.0982694679295692 [Eh]
	 SCS Opposite-Spin Energy  =      -1.2093016897859561 [Eh]
	 SCS Correlation Energy    =      -1.3075711577155253 [Eh]
	 SCS Total Energy          =    -308.4042249116872085 [Eh]
	-----------------------------------------------------------

  Dipole Moment: [D]
     X:    -0.0851      Y:     0.0474      Z:     0.0764     Total:     0.1238

*** Psi4 exiting successfully. Buy a developer a beer!
