                               Psi4 1.4a3.dev225

  ==> Input File <==

--------------------------------------------------------------------------
#psi4
#
memory 32 gb

molecule  {
0 1
  O       -1.7104100     0.5323320    -0.0000080
  O        1.7104100    -0.5323320    -0.0000010
  C       -0.6421510    -0.4001880    -0.0000140
  C        0.6421510     0.4001890    -0.0000170
  C       -2.9687670    -0.1207390     0.0000150
  C        2.9687670     0.1207390     0.0000180
  H       -0.6748755    -0.9829344     0.9325380
  H       -0.6784560    -1.0464630    -0.8895800
  H        0.6784430     1.0464730     0.8895430
  H        0.6784570     1.0464550    -0.8895890
  H       -3.7295280     0.6607040     0.0000130
  H       -3.0932130    -0.7493130     0.8923640
  H       -3.0932330    -0.7493380    -0.8923130
  H        3.0932340     0.7493310    -0.8923150
  H        3.7295280    -0.6607040     0.0000230
  H        3.0932120     0.7493200     0.8923620
units angstrom
no_reorient  #important for SAPT in psi4, default
symmetry c1  #important for SAPT in psi4, default
}

set PROPERTIES_ORIGIN ["COM"]
properties('MP2/aug-cc-pvtz', properties = ['dipole'])
--------------------------------------------------------------------------

    Molecular point group: c1
  Charge       = 0
  Multiplicity = 1
  Basis Set: AUG-CC-PVTZ
    Blend: AUG-CC-PVTZ
  Basis Set: (AUG-CC-PVTZ AUX)
    Blend: AUG-CC-PVTZ-JKFIT

    Orbital Energies [Eh]
    ---------------------

    Doubly Occupied:

       1A    -20.558870     2A    -20.557773     3A    -11.272156
       4A    -11.271487     5A    -11.271284     6A    -11.271219
       7A     -1.379109     8A     -1.367455     9A     -1.024389
      10A     -0.933386    11A     -0.884247    12A     -0.827937
      13A     -0.689670    14A     -0.665265    15A     -0.653045
      16A     -0.643196    17A     -0.609482    18A     -0.592864
      19A     -0.575734    20A     -0.516646    21A     -0.503437
      22A     -0.489254    23A     -0.472199    24A     -0.427374
      25A     -0.425456

  @DF-RHF Final Energy:  -307.09983173851521

   => Energetics <=

    Nuclear Repulsion Energy =            252.6805163992754046
    One-Electron Energy =                -919.7948258675219222
    Two-Electron Energy =                 360.0144777297313681
    Total Energy =                       -307.0998317385152063
  Basis Set: (AUG-CC-PVTZ AUX)
    Blend: AUG-CC-PVTZ-RI
    Molecular point group: c1

    Geometry (in Angstrom), charge = 0, multiplicity = 1:

       Center              X                  Y                   Z               Mass
    ------------   -----------------  -----------------  -----------------  -----------------
         O           -1.710449930058     0.531620985295    -0.000488335345    15.994914619570
         O            1.710370069942    -0.533043014705    -0.000481335345    15.994914619570
         C           -0.642190930058    -0.400899014705    -0.000494335345    12.000000000000
         C            0.642111069942     0.399477985295    -0.000497335345    12.000000000000
         C           -2.968806930058    -0.121450014705    -0.000465335345    12.000000000000
         C            2.968727069942     0.120027985295    -0.000462335345    12.000000000000
         H           -0.674915430058    -0.983645414705     0.932057664655     1.007825032230
         H           -0.678495930058    -1.047174014705    -0.890060335345     1.007825032230
         H            0.678403069942     1.045761985295     0.889062664655     1.007825032230
         H            0.678417069942     1.045743985295    -0.890069335345     1.007825032230
         H           -3.729567930058     0.659992985295    -0.000467335345     1.007825032230
         H           -3.093252930058    -0.750024014705     0.891883664655     1.007825032230
         H           -3.093272930058    -0.750049014705    -0.892793335345     1.007825032230
         H            3.093194069942     0.748619985295    -0.892795335345     1.007825032230
         H            3.729488069942    -0.661415014705    -0.000457335345     1.007825032230
         H            3.093172069942     0.748608985295     0.891881664655     1.007825032230

  Basis Set: AUG-CC-PVTZ
    Blend: AUG-CC-PVTZ
  Basis Set: (AUG-CC-PVTZ AUX)
    Blend: AUG-CC-PVTZ-JKFIT
	 Reference Energy          =    -307.0998317385152063 [Eh]
	 Singles Energy            =      -0.0000000000000000 [Eh]
	 Same-Spin Energy          =      -0.2947597863869160 [Eh]
	 Opposite-Spin Energy      =      -1.0072695762254387 [Eh]
	 Correlation Energy        =      -1.3020293626123547 [Eh]
	 Total Energy              =    -308.4018611011275652 [Eh]

	 ================> DF-SCS-MP2 Energies <==================
	-----------------------------------------------------------
	 SCS Same-Spin Scale       =       0.3333333333333333 [-]
	 SCS Opposite-Spin Scale   =       1.2000000000000000 [-]
	 SCS Same-Spin Energy      =      -0.0982532621289720 [Eh]
	 SCS Opposite-Spin Energy  =      -1.2087234914705263 [Eh]
	 SCS Correlation Energy    =      -1.3069767535994983 [Eh]
	 SCS Total Energy          =    -308.4068084921146919 [Eh]
	-----------------------------------------------------------

  Dipole Moment: [D]
     X:     0.0110      Y:     0.0112      Z:    -0.0012     Total:     0.0158

*** Psi4 exiting successfully. Buy a developer a beer!
