                               Psi4 1.4a3.dev225

  ==> Input File <==

--------------------------------------------------------------------------
#psi4
#
memory 32 gb

molecule  {
0 1
  O       -1.7104100     0.5323320    -0.0000080
  O        1.7104100    -0.5323320    -0.0000010
  C       -0.6421510    -0.4001880    -0.0000140
  C        0.5923371     0.4644480     0.1359222
  C       -2.9687670    -0.1207390     0.0000150
  C        2.9687670     0.1207390     0.0000180
  H       -0.6784440    -1.0464640     0.8895520
  H       -0.6784560    -1.0464630    -0.8895800
  H        0.6784430     1.0464730     0.8895430
  H        0.6784570     1.0464550    -0.8895890
  H       -3.7295280     0.6607040     0.0000130
  H       -3.0932130    -0.7493130     0.8923640
  H       -3.0932330    -0.7493380    -0.8923130
  H        3.0932340     0.7493310    -0.8923150
  H        3.7295280    -0.6607040     0.0000230
  H        3.0932120     0.7493200     0.8923620
units angstrom
no_reorient  #important for SAPT in psi4, default
symmetry c1  #important for SAPT in psi4, default
}

set PROPERTIES_ORIGIN ["COM"]
properties('MP2/aug-cc-pvtz', properties = ['dipole'])
--------------------------------------------------------------------------

    Molecular point group: c1
  Charge       = 0
  Multiplicity = 1
  Basis Set: AUG-CC-PVTZ
    Blend: AUG-CC-PVTZ
  Basis Set: (AUG-CC-PVTZ AUX)
    Blend: AUG-CC-PVTZ-JKFIT

    Orbital Energies [Eh]
    ---------------------

    Doubly Occupied:

       1A    -20.559619     2A    -20.552331     3A    -11.276235
       4A    -11.273827     5A    -11.272168     6A    -11.266000
       7A     -1.377017     8A     -1.344924     9A     -1.027189
      10A     -0.927817    11A     -0.884187    12A     -0.843992
      13A     -0.689481    14A     -0.661207    15A     -0.652502
      16A     -0.636812    17A     -0.609284    18A     -0.589111
      19A     -0.572816    20A     -0.527065    21A     -0.496343
      22A     -0.480327    23A     -0.474735    24A     -0.427533
      25A     -0.421746

  @DF-RHF Final Energy:  -307.06759733433648

   => Energetics <=

    Nuclear Repulsion Energy =            251.8525840834062706
    One-Electron Energy =                -918.1518310769630489
    Two-Electron Energy =                 359.2316496592203521
    Total Energy =                       -307.0675973343364831
  Basis Set: (AUG-CC-PVTZ AUX)
    Blend: AUG-CC-PVTZ-RI
    Molecular point group: c1

    Geometry (in Angstrom), charge = 0, multiplicity = 1:

       Center              X                  Y                   Z               Mass
    ------------   -----------------  -----------------  -----------------  -----------------
         O           -1.703773167030     0.523770465086    -0.018118865950    15.994914619570
         O            1.717046832970    -0.540893534914    -0.018111865950    15.994914619570
         C           -0.635514167030    -0.408749534914    -0.018124865950    12.000000000000
         C            0.598973932970     0.455886465086     0.117811334050    12.000000000000
         C           -2.962130167030    -0.129300534914    -0.018095865950    12.000000000000
         C            2.975403832970     0.112177465086    -0.018092865950    12.000000000000
         H           -0.671807167030    -1.055025534914     0.871441134050     1.007825032230
         H           -0.671819167030    -1.055024534914    -0.907690865950     1.007825032230
         H            0.685079832970     1.037911465086     0.871432134050     1.007825032230
         H            0.685093832970     1.037893465086    -0.907699865950     1.007825032230
         H           -3.722891167030     0.652142465086    -0.018097865950     1.007825032230
         H           -3.086576167030    -0.757874534914     0.874253134050     1.007825032230
         H           -3.086596167030    -0.757899534914    -0.910423865950     1.007825032230
         H            3.099870832970     0.740769465086    -0.910425865950     1.007825032230
         H            3.736164832970    -0.669265534914    -0.018087865950     1.007825032230
         H            3.099848832970     0.740758465086     0.874251134050     1.007825032230

  Basis Set: AUG-CC-PVTZ
    Blend: AUG-CC-PVTZ
  Basis Set: (AUG-CC-PVTZ AUX)
    Blend: AUG-CC-PVTZ-JKFIT
	 Reference Energy          =    -307.0675973343364831 [Eh]
	 Singles Energy            =      -0.0000000000000000 [Eh]
	 Same-Spin Energy          =      -0.2953160597414368 [Eh]
	 Opposite-Spin Energy      =      -1.0099610363552602 [Eh]
	 Correlation Energy        =      -1.3052770960966971 [Eh]
	 Total Energy              =    -308.3728744304331713 [Eh]

	 ================> DF-SCS-MP2 Energies <==================
	-----------------------------------------------------------
	 SCS Same-Spin Scale       =       0.3333333333333333 [-]
	 SCS Opposite-Spin Scale   =       1.2000000000000000 [-]
	 SCS Same-Spin Energy      =      -0.0984386865804789 [Eh]
	 SCS Opposite-Spin Energy  =      -1.2119532436263123 [Eh]
	 SCS Correlation Energy    =      -1.3103919302067912 [Eh]
	 SCS Total Energy          =    -308.3779892645432597 [Eh]
	-----------------------------------------------------------

  Dipole Moment: [D]
     X:    -0.2581      Y:     0.1021      Z:     0.2009     Total:     0.3427

*** Psi4 exiting successfully. Buy a developer a beer!
