                               Psi4 1.4a3.dev225

  ==> Input File <==

--------------------------------------------------------------------------
#psi4
#
memory 32 gb

molecule  {
0 1
  O       -1.7104100     0.5323320    -0.0000080
  O        1.6883847    -0.4880181    -0.0000010
  C       -0.6421510    -0.4001880    -0.0000140
  C        0.6421510     0.4001890    -0.0000170
  C       -2.9687670    -0.1207390     0.0000150
  C        2.9687670     0.1207390     0.0000180
  H       -0.6784440    -1.0464640     0.8895520
  H       -0.6784560    -1.0464630    -0.8895800
  H        0.6784430     1.0464730     0.8895430
  H        0.6784570     1.0464550    -0.8895890
  H       -3.7295280     0.6607040     0.0000130
  H       -3.0932130    -0.7493130     0.8923640
  H       -3.0932330    -0.7493380    -0.8923130
  H        3.0932340     0.7493310    -0.8923150
  H        3.7295280    -0.6607040     0.0000230
  H        3.0932120     0.7493200     0.8923620
units angstrom
no_reorient  #important for SAPT in psi4, default
symmetry c1  #important for SAPT in psi4, default
}

set PROPERTIES_ORIGIN ["COM"]
properties('MP2/aug-cc-pvtz', properties = ['dipole'])
--------------------------------------------------------------------------

    Molecular point group: c1
  Charge       = 0
  Multiplicity = 1
  Basis Set: AUG-CC-PVTZ
    Blend: AUG-CC-PVTZ
  Basis Set: (AUG-CC-PVTZ AUX)
    Blend: AUG-CC-PVTZ-JKFIT

    Orbital Energies [Eh]
    ---------------------

    Doubly Occupied:

       1A    -20.557647     2A    -20.556562     3A    -11.274151
       4A    -11.270640     5A    -11.270551     6A    -11.267656
       7A     -1.389321     8A     -1.370081     9A     -1.024844
      10A     -0.937594    11A     -0.883176    12A     -0.828173
      13A     -0.690239    14A     -0.670059    15A     -0.657104
      16A     -0.644864    17A     -0.614044    18A     -0.594896
      19A     -0.573622    20A     -0.515921    21A     -0.510066
      22A     -0.488701    23A     -0.468220    24A     -0.425155
      25A     -0.421454

  @DF-RHF Final Energy:  -307.10081439362187

   => Energetics <=

    Nuclear Repulsion Energy =            253.5705125546237468
    One-Electron Energy =                -921.5331688747736507
    Two-Electron Energy =                 360.8618419265280295
    Total Energy =                       -307.1008143936218744
  Basis Set: (AUG-CC-PVTZ AUX)
    Blend: AUG-CC-PVTZ-RI
    Molecular point group: c1

    Geometry (in Angstrom), charge = 0, multiplicity = 1:

       Center              X                  Y                   Z               Mass
    ------------   -----------------  -----------------  -----------------  -----------------
         O           -1.706498594376     0.524462285688    -0.000007339558    15.994914619570
         O            1.692296105624    -0.495887814312    -0.000000339558    15.994914619570
         C           -0.638239594376    -0.408057714312    -0.000013339558    12.000000000000
         C            0.646062405624     0.392319285688    -0.000016339558    12.000000000000
         C           -2.964855594376    -0.128608714312     0.000015660442    12.000000000000
         C            2.972678405624     0.112869285688     0.000018660442    12.000000000000
         H           -0.674532594376    -1.054333714312     0.889552660442     1.007825032230
         H           -0.674544594376    -1.054332714312    -0.889579339558     1.007825032230
         H            0.682354405624     1.038603285688     0.889543660442     1.007825032230
         H            0.682368405624     1.038585285688    -0.889588339558     1.007825032230
         H           -3.725616594376     0.652834285688     0.000013660442     1.007825032230
         H           -3.089301594376    -0.757182714312     0.892364660442     1.007825032230
         H           -3.089321594376    -0.757207714312    -0.892312339558     1.007825032230
         H            3.097145405624     0.741461285688    -0.892314339558     1.007825032230
         H            3.733439405624    -0.668573714312     0.000023660442     1.007825032230
         H            3.097123405624     0.741450285688     0.892362660442     1.007825032230

  Basis Set: AUG-CC-PVTZ
    Blend: AUG-CC-PVTZ
  Basis Set: (AUG-CC-PVTZ AUX)
    Blend: AUG-CC-PVTZ-JKFIT
	 Reference Energy          =    -307.1008143936218744 [Eh]
	 Singles Energy            =      -0.0000000000000000 [Eh]
	 Same-Spin Energy          =      -0.2945242712535697 [Eh]
	 Opposite-Spin Energy      =      -1.0059194737518116 [Eh]
	 Correlation Energy        =      -1.3004437450053814 [Eh]
	 Total Energy              =    -308.4012581386272700 [Eh]

	 ================> DF-SCS-MP2 Energies <==================
	-----------------------------------------------------------
	 SCS Same-Spin Scale       =       0.3333333333333333 [-]
	 SCS Opposite-Spin Scale   =       1.2000000000000000 [-]
	 SCS Same-Spin Energy      =      -0.0981747570845232 [Eh]
	 SCS Opposite-Spin Energy  =      -1.2071033685021739 [Eh]
	 SCS Correlation Energy    =      -1.3052781255866972 [Eh]
	 SCS Total Energy          =    -308.4060925192085847 [Eh]
	-----------------------------------------------------------

  Dipole Moment: [D]
     X:     0.1551      Y:    -0.1256      Z:     0.0000     Total:     0.1996

*** Psi4 exiting successfully. Buy a developer a beer!
