                               Psi4 1.4a3.dev225

  ==> Input File <==

--------------------------------------------------------------------------
#psi4
#
memory 32 gb

molecule  {
0 1
  O       -1.7104100     0.5323320    -0.0000080
  O        1.7104100    -0.5323320    -0.0000010
  C       -0.7454779    -0.5067430    -0.0000116
  C        0.6421510     0.4001890    -0.0000170
  C       -2.9687670    -0.1207390     0.0000150
  C        2.9687670     0.1207390     0.0000180
  H       -0.6784440    -1.0464640     0.8895520
  H       -0.6784560    -1.0464630    -0.8895800
  H        0.6784430     1.0464730     0.8895430
  H        0.6784570     1.0464550    -0.8895890
  H       -3.7295280     0.6607040     0.0000130
  H       -3.0932130    -0.7493130     0.8923640
  H       -3.0932330    -0.7493380    -0.8923130
  H        3.0932340     0.7493310    -0.8923150
  H        3.7295280    -0.6607040     0.0000230
  H        3.0932120     0.7493200     0.8923620
units angstrom
no_reorient  #important for SAPT in psi4, default
symmetry c1  #important for SAPT in psi4, default
}

set PROPERTIES_ORIGIN ["COM"]
properties('MP2/aug-cc-pvtz', properties = ['dipole'])
--------------------------------------------------------------------------

    Molecular point group: c1
  Charge       = 0
  Multiplicity = 1
  Basis Set: AUG-CC-PVTZ
    Blend: AUG-CC-PVTZ
  Basis Set: (AUG-CC-PVTZ AUX)
    Blend: AUG-CC-PVTZ-JKFIT

    Orbital Energies [Eh]
    ---------------------

    Doubly Occupied:

       1A    -20.563378     2A    -20.554797     3A    -11.273461
       4A    -11.270482     5A    -11.269683     6A    -11.268774
       7A     -1.380255     8A     -1.366252     9A     -1.003105
      10A     -0.930630    11A     -0.883690    12A     -0.838413
      13A     -0.691675    14A     -0.660639    15A     -0.645828
      16A     -0.644551    17A     -0.614687    18A     -0.592875
      19A     -0.576996    20A     -0.527993    21A     -0.502261
      22A     -0.489392    23A     -0.438506    24A     -0.436231
      25A     -0.421931

  @DF-RHF Final Energy:  -307.07831690876264

   => Energetics <=

    Nuclear Repulsion Energy =            251.4463848626177196
    One-Electron Energy =                -917.3564361031161525
    Two-Electron Energy =                 358.8317343317357881
    Total Energy =                       -307.0783169087626447
  Basis Set: (AUG-CC-PVTZ AUX)
    Blend: AUG-CC-PVTZ-RI
    Molecular point group: c1

    Geometry (in Angstrom), charge = 0, multiplicity = 1:

       Center              X                  Y                   Z               Mass
    ------------   -----------------  -----------------  -----------------  -----------------
         O           -1.696643493530     0.546528450045    -0.000007659316    15.994914619570
         O            1.724176506470    -0.518135549955    -0.000000659316    15.994914619570
         C           -0.731711393530    -0.492546549955    -0.000011259316    12.000000000000
         C            0.655917506470     0.414385450045    -0.000016659316    12.000000000000
         C           -2.955000493530    -0.106542549955     0.000015340684    12.000000000000
         C            2.982533506470     0.134935450045     0.000018340684    12.000000000000
         H           -0.664677493530    -1.032267549955     0.889552340684     1.007825032230
         H           -0.664689493530    -1.032266549955    -0.889579659316     1.007825032230
         H            0.692209506470     1.060669450045     0.889543340684     1.007825032230
         H            0.692223506470     1.060651450045    -0.889588659316     1.007825032230
         H           -3.715761493530     0.674900450045     0.000013340684     1.007825032230
         H           -3.079446493530    -0.735116549955     0.892364340684     1.007825032230
         H           -3.079466493530    -0.735141549955    -0.892312659316     1.007825032230
         H            3.107000506470     0.763527450045    -0.892314659316     1.007825032230
         H            3.743294506470    -0.646507549955     0.000023340684     1.007825032230
         H            3.106978506470     0.763516450045     0.892362340684     1.007825032230

  Basis Set: AUG-CC-PVTZ
    Blend: AUG-CC-PVTZ
  Basis Set: (AUG-CC-PVTZ AUX)
    Blend: AUG-CC-PVTZ-JKFIT
	 Reference Energy          =    -307.0783169087626447 [Eh]
	 Singles Energy            =      -0.0000000000000000 [Eh]
	 Same-Spin Energy          =      -0.2953005681727230 [Eh]
	 Opposite-Spin Energy      =      -1.0092540325904102 [Eh]
	 Correlation Energy        =      -1.3045546007631332 [Eh]
	 Total Energy              =    -308.3828715095257849 [Eh]

	 ================> DF-SCS-MP2 Energies <==================
	-----------------------------------------------------------
	 SCS Same-Spin Scale       =       0.3333333333333333 [-]
	 SCS Opposite-Spin Scale   =       1.2000000000000000 [-]
	 SCS Same-Spin Energy      =      -0.0984335227242410 [Eh]
	 SCS Opposite-Spin Energy  =      -1.2111048391084922 [Eh]
	 SCS Correlation Energy    =      -1.3095383618327332 [Eh]
	 SCS Total Energy          =    -308.3878552705953666 [Eh]
	-----------------------------------------------------------

  Dipole Moment: [D]
     X:    -0.1294      Y:    -0.1047      Z:     0.0000     Total:     0.1664

*** Psi4 exiting successfully. Buy a developer a beer!
