                               Psi4 1.4a3.dev225

  ==> Input File <==

--------------------------------------------------------------------------
#psi4
#
memory 32 gb

molecule  {
0 1
  O       -1.7104100     0.5323320    -0.0000080
  O        1.7104100    -0.5323320    -0.0000010
  C       -0.6421510    -0.4001880    -0.0000140
  C        0.5572826     0.3472990    -0.0000168
  C       -2.9687670    -0.1207390     0.0000150
  C        2.9687670     0.1207390     0.0000180
  H       -0.6784440    -1.0464640     0.8895520
  H       -0.6784560    -1.0464630    -0.8895800
  H        0.6784430     1.0464730     0.8895430
  H        0.6784570     1.0464550    -0.8895890
  H       -3.7295280     0.6607040     0.0000130
  H       -3.0932130    -0.7493130     0.8923640
  H       -3.0932330    -0.7493380    -0.8923130
  H        3.0932340     0.7493310    -0.8923150
  H        3.7295280    -0.6607040     0.0000230
  H        3.0932120     0.7493200     0.8923620
units angstrom
no_reorient  #important for SAPT in psi4, default
symmetry c1  #important for SAPT in psi4, default
}

set PROPERTIES_ORIGIN ["COM"]
properties('MP2/aug-cc-pvtz', properties = ['dipole'])
--------------------------------------------------------------------------

    Molecular point group: c1
  Charge       = 0
  Multiplicity = 1
  Basis Set: AUG-CC-PVTZ
    Blend: AUG-CC-PVTZ
  Basis Set: (AUG-CC-PVTZ AUX)
    Blend: AUG-CC-PVTZ-JKFIT

    Orbital Energies [Eh]
    ---------------------

    Doubly Occupied:

       1A    -20.562317     2A    -20.553739     3A    -11.276498
       4A    -11.273618     5A    -11.270816     6A    -11.270266
       7A     -1.380635     8A     -1.357831     9A     -1.045526
      10A     -0.932924    11A     -0.888050    12A     -0.822305
      13A     -0.689242    14A     -0.669408    15A     -0.660502
      16A     -0.637678    17A     -0.603656    18A     -0.591730
      19A     -0.577057    20A     -0.520499    21A     -0.503739
      22A     -0.491530    23A     -0.475210    24A     -0.429067
      25A     -0.416645

  @DF-RHF Final Energy:  -307.08789108324532

   => Energetics <=

    Nuclear Repulsion Energy =            253.2672142624993512
    One-Electron Energy =                -920.9092300386288343
    Two-Electron Energy =                 360.5541246928841588
    Total Energy =                       -307.0878910832453244
  Basis Set: (AUG-CC-PVTZ AUX)
    Blend: AUG-CC-PVTZ-RI
    Molecular point group: c1

    Geometry (in Angstrom), charge = 0, multiplicity = 1:

       Center              X                  Y                   Z               Mass
    ------------   -----------------  -----------------  -----------------  -----------------
         O           -1.699102766572     0.539378525198    -0.000007366205    15.994914619570
         O            1.721717233428    -0.525285474802    -0.000000366205    15.994914619570
         C           -0.630843766572    -0.393141474802    -0.000013366205    12.000000000000
         C            0.568589833428     0.354345525198    -0.000016166205    12.000000000000
         C           -2.957459766572    -0.113692474802     0.000015633795    12.000000000000
         C            2.980074233428     0.127785525198     0.000018633795    12.000000000000
         H           -0.667136766572    -1.039417474802     0.889552633795     1.007825032230
         H           -0.667148766572    -1.039416474802    -0.889579366205     1.007825032230
         H            0.689750233428     1.053519525198     0.889543633795     1.007825032230
         H            0.689764233428     1.053501525198    -0.889588366205     1.007825032230
         H           -3.718220766572     0.667750525198     0.000013633795     1.007825032230
         H           -3.081905766572    -0.742266474802     0.892364633795     1.007825032230
         H           -3.081925766572    -0.742291474802    -0.892312366205     1.007825032230
         H            3.104541233428     0.756377525198    -0.892314366205     1.007825032230
         H            3.740835233428    -0.653657474802     0.000023633795     1.007825032230
         H            3.104519233428     0.756366525198     0.892362633795     1.007825032230

  Basis Set: AUG-CC-PVTZ
    Blend: AUG-CC-PVTZ
  Basis Set: (AUG-CC-PVTZ AUX)
    Blend: AUG-CC-PVTZ-JKFIT
	 Reference Energy          =    -307.0878910832453244 [Eh]
	 Singles Energy            =      -0.0000000000000000 [Eh]
	 Same-Spin Energy          =      -0.2954844178900613 [Eh]
	 Opposite-Spin Energy      =      -1.0082559375369828 [Eh]
	 Correlation Energy        =      -1.3037403554270441 [Eh]
	 Total Energy              =    -308.3916314386723911 [Eh]

	 ================> DF-SCS-MP2 Energies <==================
	-----------------------------------------------------------
	 SCS Same-Spin Scale       =       0.3333333333333333 [-]
	 SCS Opposite-Spin Scale   =       1.2000000000000000 [-]
	 SCS Same-Spin Energy      =      -0.0984948059633538 [Eh]
	 SCS Opposite-Spin Energy  =      -1.2099071250443794 [Eh]
	 SCS Correlation Energy    =      -1.3084019310077331 [Eh]
	 SCS Total Energy          =    -308.3962930142530467 [Eh]
	-----------------------------------------------------------

  Dipole Moment: [D]
     X:    -0.1928      Y:    -0.0444      Z:     0.0000     Total:     0.1978

*** Psi4 exiting successfully. Buy a developer a beer!
