                               Psi4 1.4a3.dev225

  ==> Input File <==

--------------------------------------------------------------------------
#psi4
#
memory 32 gb

molecule  {
0 1
  O       -1.7104100     0.5323320    -0.0000080
  O        1.7104100    -0.5323320    -0.0000010
  C       -0.7098025    -0.4724344    -0.0000124
  C        0.6421510     0.4001890    -0.0000170
  C       -2.9687670    -0.1207390     0.0000150
  C        2.9687670     0.1207390     0.0000180
  H       -0.6784440    -1.0464640     0.8895520
  H       -0.6784560    -1.0464630    -0.8895800
  H        0.6784430     1.0464730     0.8895430
  H        0.6784570     1.0464550    -0.8895890
  H       -3.7295280     0.6607040     0.0000130
  H       -3.0932130    -0.7493130     0.8923640
  H       -3.0932330    -0.7493380    -0.8923130
  H        3.0932340     0.7493310    -0.8923150
  H        3.7295280    -0.6607040     0.0000230
  H        3.0932120     0.7493200     0.8923620
units angstrom
no_reorient  #important for SAPT in psi4, default
symmetry c1  #important for SAPT in psi4, default
}

set PROPERTIES_ORIGIN ["COM"]
properties('MP2/aug-cc-pvtz', properties = ['dipole'])
--------------------------------------------------------------------------

    Molecular point group: c1
  Charge       = 0
  Multiplicity = 1
  Basis Set: AUG-CC-PVTZ
    Blend: AUG-CC-PVTZ
  Basis Set: (AUG-CC-PVTZ AUX)
    Blend: AUG-CC-PVTZ-JKFIT

    Orbital Energies [Eh]
    ---------------------

    Doubly Occupied:

       1A    -20.561636     2A    -20.556026     3A    -11.273122
       4A    -11.270581     5A    -11.269639     6A    -11.269634
       7A     -1.379228     8A     -1.366998     9A     -1.009114
      10A     -0.931451    11A     -0.883080    12A     -0.836389
      13A     -0.689367    14A     -0.662208    15A     -0.646729
      16A     -0.645009    17A     -0.613888    18A     -0.593011
      19A     -0.575546    20A     -0.524535    21A     -0.500317
      22A     -0.490287    23A     -0.451479    24A     -0.435155
      25A     -0.423099

  @DF-RHF Final Energy:  -307.08996244230207

   => Energetics <=

    Nuclear Repulsion Energy =            251.8298227138569700
    One-Electron Energy =                -918.1245134132767589
    Two-Electron Energy =                 359.2047282571177220
    Total Energy =                       -307.0899624423020668
  Basis Set: (AUG-CC-PVTZ AUX)
    Blend: AUG-CC-PVTZ-RI
    Molecular point group: c1

    Geometry (in Angstrom), charge = 0, multiplicity = 1:

       Center              X                  Y                   Z               Mass
    ------------   -----------------  -----------------  -----------------  -----------------
         O           -1.701396618079     0.541957427748    -0.000007552730    15.994914619570
         O            1.719423381921    -0.522706572252    -0.000000552730    15.994914619570
         C           -0.700789118079    -0.462808972252    -0.000011952730    12.000000000000
         C            0.651164381921     0.409814427748    -0.000016552730    12.000000000000
         C           -2.959753618079    -0.111113572252     0.000015447270    12.000000000000
         C            2.977780381921     0.130364427748     0.000018447270    12.000000000000
         H           -0.669430618079    -1.036838572252     0.889552447270     1.007825032230
         H           -0.669442618079    -1.036837572252    -0.889579552730     1.007825032230
         H            0.687456381921     1.056098427748     0.889543447270     1.007825032230
         H            0.687470381921     1.056080427748    -0.889588552730     1.007825032230
         H           -3.720514618079     0.670329427748     0.000013447270     1.007825032230
         H           -3.084199618079    -0.739687572252     0.892364447270     1.007825032230
         H           -3.084219618079    -0.739712572252    -0.892312552730     1.007825032230
         H            3.102247381921     0.758956427748    -0.892314552730     1.007825032230
         H            3.738541381921    -0.651078572252     0.000023447270     1.007825032230
         H            3.102225381921     0.758945427748     0.892362447270     1.007825032230

  Basis Set: AUG-CC-PVTZ
    Blend: AUG-CC-PVTZ
  Basis Set: (AUG-CC-PVTZ AUX)
    Blend: AUG-CC-PVTZ-JKFIT
	 Reference Energy          =    -307.0899624423020668 [Eh]
	 Singles Energy            =      -0.0000000000000000 [Eh]
	 Same-Spin Energy          =      -0.2949140955914511 [Eh]
	 Opposite-Spin Energy      =      -1.0081874332661573 [Eh]
	 Correlation Energy        =      -1.3031015288576084 [Eh]
	 Total Energy              =    -308.3930639711596768 [Eh]

	 ================> DF-SCS-MP2 Energies <==================
	-----------------------------------------------------------
	 SCS Same-Spin Scale       =       0.3333333333333333 [-]
	 SCS Opposite-Spin Scale   =       1.2000000000000000 [-]
	 SCS Same-Spin Energy      =      -0.0983046985304837 [Eh]
	 SCS Opposite-Spin Energy  =      -1.2098249199193887 [Eh]
	 SCS Correlation Energy    =      -1.3081296184498723 [Eh]
	 SCS Total Energy          =    -308.3980920607519352 [Eh]
	-----------------------------------------------------------

  Dipole Moment: [D]
     X:    -0.0866      Y:    -0.0780      Z:     0.0000     Total:     0.1166

*** Psi4 exiting successfully. Buy a developer a beer!
