                               Psi4 1.4a3.dev225

  ==> Input File <==

--------------------------------------------------------------------------
#psi4
#
memory 32 gb

molecule  {
0 1
  O       -1.7104100     0.5323320    -0.0000080
  O        1.7104100    -0.5323320    -0.0000010
  C       -0.6421510    -0.4001880    -0.0000140
  C        0.6421510     0.4001890    -0.0000170
  C       -2.9687670    -0.1207390     0.0000150
  C        2.9687670     0.1207390     0.0000180
  H       -0.6784440    -1.0464640     0.8895520
  H       -0.6784560    -1.0464630    -0.8895800
  H        0.6784430     1.0464730     0.8895430
  H        0.6784570     1.0464550    -0.8895890
  H       -3.7295280     0.6607040     0.0000130
  H       -3.0932130    -0.7493130     0.8923640
  H       -3.0932330    -0.7493380    -0.8923130
  H        3.0932340     0.7493310    -0.8923150
  H        3.7151839    -0.6737415    -0.0327395
  H        3.0932120     0.7493200     0.8923620
units angstrom
no_reorient  #important for SAPT in psi4, default
symmetry c1  #important for SAPT in psi4, default
}

set PROPERTIES_ORIGIN ["COM"]
properties('MP2/aug-cc-pvtz', properties = ['dipole'])
--------------------------------------------------------------------------

    Molecular point group: c1
  Charge       = 0
  Multiplicity = 1
  Basis Set: AUG-CC-PVTZ
    Blend: AUG-CC-PVTZ
  Basis Set: (AUG-CC-PVTZ AUX)
    Blend: AUG-CC-PVTZ-JKFIT

    Orbital Energies [Eh]
    ---------------------

    Doubly Occupied:

       1A    -20.558755     2A    -20.558551     3A    -11.272101
       4A    -11.271436     5A    -11.271419     6A    -11.271410
       7A     -1.379137     8A     -1.367570     9A     -1.024050
      10A     -0.933362    11A     -0.884225    12A     -0.829551
      13A     -0.687195    14A     -0.666329    15A     -0.653426
      16A     -0.642628    17A     -0.611146    18A     -0.592927
      19A     -0.574333    20A     -0.514808    21A     -0.503237
      22A     -0.489938    23A     -0.474665    24A     -0.426838
      25A     -0.425199

  @DF-RHF Final Energy:  -307.10017031427873

   => Energetics <=

    Nuclear Repulsion Energy =            252.6536607896431406
    One-Electron Energy =                -919.7391864005575144
    Two-Electron Energy =                 359.9853552966356460
    Total Energy =                       -307.1001703142787278
  Basis Set: (AUG-CC-PVTZ AUX)
    Blend: AUG-CC-PVTZ-RI
    Molecular point group: c1

    Geometry (in Angstrom), charge = 0, multiplicity = 1:

       Center              X                  Y                   Z               Mass
    ------------   -----------------  -----------------  -----------------  -----------------
         O           -1.710249495378     0.532477739879     0.000359259439    15.994914619570
         O            1.710570504622    -0.532186260121     0.000366259439    15.994914619570
         C           -0.641990495378    -0.400042260121     0.000353259439    12.000000000000
         C            0.642311504622     0.400334739879     0.000350259439    12.000000000000
         C           -2.968606495378    -0.120593260121     0.000382259439    12.000000000000
         C            2.968927504622     0.120884739879     0.000385259439    12.000000000000
         H           -0.678283495378    -1.046318260121     0.889919259439     1.007825032230
         H           -0.678295495378    -1.046317260121    -0.889212740561     1.007825032230
         H            0.678603504622     1.046618739879     0.889910259439     1.007825032230
         H            0.678617504622     1.046600739879    -0.889221740561     1.007825032230
         H           -3.729367495378     0.660849739879     0.000380259439     1.007825032230
         H           -3.093052495378    -0.749167260121     0.892731259439     1.007825032230
         H           -3.093072495378    -0.749192260121    -0.891945740561     1.007825032230
         H            3.093394504622     0.749476739879    -0.891947740561     1.007825032230
         H            3.715344404622    -0.673595760121    -0.032372240561     1.007825032230
         H            3.093372504622     0.749465739879     0.892729259439     1.007825032230

  Basis Set: AUG-CC-PVTZ
    Blend: AUG-CC-PVTZ
  Basis Set: (AUG-CC-PVTZ AUX)
    Blend: AUG-CC-PVTZ-JKFIT
	 Reference Energy          =    -307.1001703142787278 [Eh]
	 Singles Energy            =      -0.0000000000000000 [Eh]
	 Same-Spin Energy          =      -0.2947526353673517 [Eh]
	 Opposite-Spin Energy      =      -1.0072174200160104 [Eh]
	 Correlation Energy        =      -1.3019700553833622 [Eh]
	 Total Energy              =    -308.4021403696621064 [Eh]

	 ================> DF-SCS-MP2 Energies <==================
	-----------------------------------------------------------
	 SCS Same-Spin Scale       =       0.3333333333333333 [-]
	 SCS Opposite-Spin Scale   =       1.2000000000000000 [-]
	 SCS Same-Spin Energy      =      -0.0982508784557839 [Eh]
	 SCS Opposite-Spin Energy  =      -1.2086609040192124 [Eh]
	 SCS Correlation Energy    =      -1.3069117824749963 [Eh]
	 SCS Total Energy          =    -308.4070820967536974 [Eh]
	-----------------------------------------------------------

  Dipole Moment: [D]
     X:    -0.0013      Y:    -0.0009      Z:    -0.0113     Total:     0.0114

*** Psi4 exiting successfully. Buy a developer a beer!
