                               Psi4 1.4a3.dev225

  ==> Input File <==

--------------------------------------------------------------------------
#psi4
#
memory 32 gb

molecule  {
0 1
  O       -1.7104100     0.5323320    -0.0000080
  O        1.7590312    -0.6185197    -0.0000009
  C       -0.6421510    -0.4001880    -0.0000140
  C        0.6421510     0.4001890    -0.0000170
  C       -2.9687670    -0.1207390     0.0000150
  C        2.9687670     0.1207390     0.0000180
  H       -0.6784440    -1.0464640     0.8895520
  H       -0.6784560    -1.0464630    -0.8895800
  H        0.6784430     1.0464730     0.8895430
  H        0.6784570     1.0464550    -0.8895890
  H       -3.7295280     0.6607040     0.0000130
  H       -3.0932130    -0.7493130     0.8923640
  H       -3.0932330    -0.7493380    -0.8923130
  H        3.0932340     0.7493310    -0.8923150
  H        3.7295280    -0.6607040     0.0000230
  H        3.0932120     0.7493200     0.8923620
units angstrom
no_reorient  #important for SAPT in psi4, default
symmetry c1  #important for SAPT in psi4, default
}

set PROPERTIES_ORIGIN ["COM"]
properties('MP2/aug-cc-pvtz', properties = ['dipole'])
--------------------------------------------------------------------------

    Molecular point group: c1
  Charge       = 0
  Multiplicity = 1
  Basis Set: AUG-CC-PVTZ
    Blend: AUG-CC-PVTZ
  Basis Set: (AUG-CC-PVTZ AUX)
    Blend: AUG-CC-PVTZ-JKFIT

    Orbital Energies [Eh]
    ---------------------

    Doubly Occupied:

       1A    -20.562563     2A    -20.561109     3A    -11.280640
       4A    -11.274650     5A    -11.273068     6A    -11.267063
       7A     -1.376814     8A     -1.349108     9A     -1.023944
      10A     -0.926107    11A     -0.886983    12A     -0.832161
      13A     -0.684011    14A     -0.661711    15A     -0.647410
      16A     -0.637822    17A     -0.607137    18A     -0.586498
      19A     -0.576411    20A     -0.513921    21A     -0.501003
      22A     -0.485961    23A     -0.479173    24A     -0.433108
      25A     -0.427479

  @DF-RHF Final Energy:  -307.08954100996107

   => Energetics <=

    Nuclear Repulsion Energy =            250.8080763125831254
    One-Electron Energy =                -916.0835210386242125
    Two-Electron Energy =                 358.1859037160800199
    Total Energy =                       -307.0895410099610672
  Basis Set: (AUG-CC-PVTZ AUX)
    Blend: AUG-CC-PVTZ-RI
    Molecular point group: c1

    Geometry (in Angstrom), charge = 0, multiplicity = 1:

       Center              X                  Y                   Z               Mass
    ------------   -----------------  -----------------  -----------------  -----------------
         O           -1.719044490116     0.547637665466    -0.000007357317    15.994914619570
         O            1.750396709884    -0.603214034534    -0.000000257317    15.994914619570
         C           -0.650785490116    -0.384882334534    -0.000013357317    12.000000000000
         C            0.633516509884     0.415494665466    -0.000016357317    12.000000000000
         C           -2.977401490116    -0.105433334534     0.000015642683    12.000000000000
         C            2.960132509884     0.136044665466     0.000018642683    12.000000000000
         H           -0.687078490116    -1.031158334534     0.889552642683     1.007825032230
         H           -0.687090490116    -1.031157334534    -0.889579357317     1.007825032230
         H            0.669808509884     1.061778665466     0.889543642683     1.007825032230
         H            0.669822509884     1.061760665466    -0.889588357317     1.007825032230
         H           -3.738162490116     0.676009665466     0.000013642683     1.007825032230
         H           -3.101847490116    -0.734007334534     0.892364642683     1.007825032230
         H           -3.101867490116    -0.734032334534    -0.892312357317     1.007825032230
         H            3.084599509884     0.764636665466    -0.892314357317     1.007825032230
         H            3.720893509884    -0.645398334534     0.000023642683     1.007825032230
         H            3.084577509884     0.764625665466     0.892362642683     1.007825032230

  Basis Set: AUG-CC-PVTZ
    Blend: AUG-CC-PVTZ
  Basis Set: (AUG-CC-PVTZ AUX)
    Blend: AUG-CC-PVTZ-JKFIT
	 Reference Energy          =    -307.0895410099610672 [Eh]
	 Singles Energy            =      -0.0000000000000000 [Eh]
	 Same-Spin Energy          =      -0.2954570404879568 [Eh]
	 Opposite-Spin Energy      =      -1.0103376136359357 [Eh]
	 Correlation Energy        =      -1.3057946541238925 [Eh]
	 Total Energy              =    -308.3953356640849393 [Eh]

	 ================> DF-SCS-MP2 Energies <==================
	-----------------------------------------------------------
	 SCS Same-Spin Scale       =       0.3333333333333333 [-]
	 SCS Opposite-Spin Scale   =       1.2000000000000000 [-]
	 SCS Same-Spin Energy      =      -0.0984856801626523 [Eh]
	 SCS Opposite-Spin Energy  =      -1.2124051363631227 [Eh]
	 SCS Correlation Energy    =      -1.3108908165257751 [Eh]
	 SCS Total Energy          =    -308.4004318264868516 [Eh]
	-----------------------------------------------------------

  Dipole Moment: [D]
     X:    -0.2847      Y:     0.2210      Z:     0.0000     Total:     0.3604

*** Psi4 exiting successfully. Buy a developer a beer!
