                               Psi4 1.4a3.dev225

  ==> Input File <==

--------------------------------------------------------------------------
#psi4
#
memory 32 gb

molecule  {
0 1
  O       -1.7104100     0.5323320    -0.0000080
  O        1.7104100    -0.5323320    -0.0000010
  C       -0.6421510    -0.4001880    -0.0000140
  C        0.6421510     0.4001890    -0.0000170
  C       -2.9687670    -0.1207390     0.0000150
  C        2.9687670     0.1207390     0.0000180
  H       -0.6784440    -1.0464640     0.8895520
  H       -0.6784560    -1.0464630    -0.8895800
  H        0.6777832     1.0347239     0.8733713
  H        0.6784570     1.0464550    -0.8895890
  H       -3.7295280     0.6607040     0.0000130
  H       -3.0932130    -0.7493130     0.8923640
  H       -3.0932330    -0.7493380    -0.8923130
  H        3.0932340     0.7493310    -0.8923150
  H        3.7295280    -0.6607040     0.0000230
  H        3.0932120     0.7493200     0.8923620
units angstrom
no_reorient  #important for SAPT in psi4, default
symmetry c1  #important for SAPT in psi4, default
}

set PROPERTIES_ORIGIN ["COM"]
properties('MP2/aug-cc-pvtz', properties = ['dipole'])
--------------------------------------------------------------------------

    Molecular point group: c1
  Charge       = 0
  Multiplicity = 1
  Basis Set: AUG-CC-PVTZ
    Blend: AUG-CC-PVTZ
  Basis Set: (AUG-CC-PVTZ AUX)
    Blend: AUG-CC-PVTZ-JKFIT

    Orbital Energies [Eh]
    ---------------------

    Doubly Occupied:

       1A    -20.558793     2A    -20.558390     3A    -11.271731
       4A    -11.271434     5A    -11.271383     6A    -11.269385
       7A     -1.379083     8A     -1.367464     9A     -1.024561
      10A     -0.933406    11A     -0.884764    12A     -0.831116
      13A     -0.688018    14A     -0.666539    15A     -0.653214
      16A     -0.642824    17A     -0.611515    18A     -0.593236
      19A     -0.574895    20A     -0.515638    21A     -0.503445
      22A     -0.489728    23A     -0.474796    24A     -0.427218
      25A     -0.425340

  @DF-RHF Final Energy:  -307.10049547860120

   => Energetics <=

    Nuclear Repulsion Energy =            252.7287554210731741
    One-Electron Energy =                -919.8826720396308474
    Two-Electron Energy =                 360.0534211399564697
    Total Energy =                       -307.1004954786012036
  Basis Set: (AUG-CC-PVTZ AUX)
    Blend: AUG-CC-PVTZ-RI
    Molecular point group: c1

    Geometry (in Angstrom), charge = 0, multiplicity = 1:

       Center              X                  Y                   Z               Mass
    ------------   -----------------  -----------------  -----------------  -----------------
         O           -1.710402617107     0.532463323209     0.000173615161    15.994914619570
         O            1.710417382893    -0.532200676791     0.000180615161    15.994914619570
         C           -0.642143617107    -0.400056676791     0.000167615161    12.000000000000
         C            0.642158382893     0.400320323209     0.000164615161    12.000000000000
         C           -2.968759617107    -0.120607676791     0.000196615161    12.000000000000
         C            2.968774382893     0.120870323209     0.000199615161    12.000000000000
         H           -0.678436617107    -1.046332676791     0.889733615161     1.007825032230
         H           -0.678448617107    -1.046331676791    -0.889398384839     1.007825032230
         H            0.677790582893     1.034855223209     0.873552915161     1.007825032230
         H            0.678464382893     1.046586323209    -0.889407384839     1.007825032230
         H           -3.729520617107     0.660835323209     0.000194615161     1.007825032230
         H           -3.093205617107    -0.749181676791     0.892545615161     1.007825032230
         H           -3.093225617107    -0.749206676791    -0.892131384839     1.007825032230
         H            3.093241382893     0.749462323209    -0.892133384839     1.007825032230
         H            3.729535382893    -0.660572676791     0.000204615161     1.007825032230
         H            3.093219382893     0.749451323209     0.892543615161     1.007825032230

  Basis Set: AUG-CC-PVTZ
    Blend: AUG-CC-PVTZ
  Basis Set: (AUG-CC-PVTZ AUX)
    Blend: AUG-CC-PVTZ-JKFIT
	 Reference Energy          =    -307.1004954786012036 [Eh]
	 Singles Energy            =      -0.0000000000000000 [Eh]
	 Same-Spin Energy          =      -0.2947034070785532 [Eh]
	 Opposite-Spin Energy      =      -1.0070230793714252 [Eh]
	 Correlation Energy        =      -1.3017264864499785 [Eh]
	 Total Energy              =    -308.4022219650511829 [Eh]

	 ================> DF-SCS-MP2 Energies <==================
	-----------------------------------------------------------
	 SCS Same-Spin Scale       =       0.3333333333333333 [-]
	 SCS Opposite-Spin Scale   =       1.2000000000000000 [-]
	 SCS Same-Spin Energy      =      -0.0982344690261844 [Eh]
	 SCS Opposite-Spin Energy  =      -1.2084276952457103 [Eh]
	 SCS Correlation Energy    =      -1.3066621642718947 [Eh]
	 SCS Total Energy          =    -308.4071576428730737 [Eh]
	-----------------------------------------------------------

  Dipole Moment: [D]
     X:    -0.0020      Y:     0.0112      Z:     0.0108     Total:     0.0157

*** Psi4 exiting successfully. Buy a developer a beer!
