                               Psi4 1.4a3.dev225

  ==> Input File <==

--------------------------------------------------------------------------
#psi4
#
memory 32 gb

molecule  {
0 1
  O       -1.7104100     0.5323320    -0.0000080
  O        1.7104100    -0.5323320    -0.0000010
  C       -0.6421510    -0.4001880    -0.0000140
  C        0.6421510     0.4001890    -0.0000170
  C       -2.9687670    -0.1207390     0.0000150
  C        2.9687670     0.1207390     0.0000180
  H       -0.6784440    -1.0464640     0.8895520
  H       -0.6784560    -1.0464630    -0.8895800
  H        0.6784430     1.0464730     0.8895430
  H        0.6784570     1.0464550    -0.8895890
  H       -3.7295280     0.6607040     0.0000130
  H       -3.0932130    -0.7493130     0.8923640
  H       -3.0932330    -0.7493380    -0.8923130
  H        3.0932340     0.7493310    -0.8923150
  H        3.7224707    -0.6673428    -0.0163608
  H        3.0932120     0.7493200     0.8923620
units angstrom
no_reorient  #important for SAPT in psi4, default
symmetry c1  #important for SAPT in psi4, default
}

set PROPERTIES_ORIGIN ["COM"]
properties('MP2/aug-cc-pvtz', properties = ['dipole'])
--------------------------------------------------------------------------

    Molecular point group: c1
  Charge       = 0
  Multiplicity = 1
  Basis Set: AUG-CC-PVTZ
    Blend: AUG-CC-PVTZ
  Basis Set: (AUG-CC-PVTZ AUX)
    Blend: AUG-CC-PVTZ-JKFIT

    Orbital Energies [Eh]
    ---------------------

    Doubly Occupied:

       1A    -20.558784     2A    -20.558681     3A    -11.272165
       4A    -11.271501     5A    -11.271437     6A    -11.271433
       7A     -1.379159     8A     -1.367587     9A     -1.024041
      10A     -0.933392    11A     -0.884356    12A     -0.829577
      13A     -0.687215    14A     -0.666342    15A     -0.653355
      16A     -0.642653    17A     -0.611120    18A     -0.593042
      19A     -0.574372    20A     -0.514759    21A     -0.503432
      22A     -0.489866    23A     -0.474693    24A     -0.426872
      25A     -0.425237

  @DF-RHF Final Energy:  -307.10031202035691

   => Energetics <=

    Nuclear Repulsion Energy =            252.6429661323738003
    One-Electron Energy =                -919.7164111056478077
    Two-Electron Energy =                 359.9731329529171262
    Total Energy =                       -307.1003120203569097
  Basis Set: (AUG-CC-PVTZ AUX)
    Blend: AUG-CC-PVTZ-RI
    Molecular point group: c1

    Geometry (in Angstrom), charge = 0, multiplicity = 1:

       Center              X                  Y                   Z               Mass
    ------------   -----------------  -----------------  -----------------  -----------------
         O           -1.710331031695     0.532406141039     0.000175988474    15.994914619570
         O            1.710488968305    -0.532257858961     0.000182988474    15.994914619570
         C           -0.642072031695    -0.400113858961     0.000169988474    12.000000000000
         C            0.642229968305     0.400263141039     0.000166988474    12.000000000000
         C           -2.968688031695    -0.120664858961     0.000198988474    12.000000000000
         C            2.968845968305     0.120813141039     0.000201988474    12.000000000000
         H           -0.678365031695    -1.046389858961     0.889735988474     1.007825032230
         H           -0.678377031695    -1.046388858961    -0.889396011526     1.007825032230
         H            0.678521968305     1.046547141039     0.889726988474     1.007825032230
         H            0.678535968305     1.046529141039    -0.889405011526     1.007825032230
         H           -3.729449031695     0.660778141039     0.000196988474     1.007825032230
         H           -3.093134031695    -0.749238858961     0.892547988474     1.007825032230
         H           -3.093154031695    -0.749263858961    -0.892129011526     1.007825032230
         H            3.093312968305     0.749405141039    -0.892131011526     1.007825032230
         H            3.722549668305    -0.667268658961    -0.016176811526     1.007825032230
         H            3.093290968305     0.749394141039     0.892545988474     1.007825032230

  Basis Set: AUG-CC-PVTZ
    Blend: AUG-CC-PVTZ
  Basis Set: (AUG-CC-PVTZ AUX)
    Blend: AUG-CC-PVTZ-JKFIT
	 Reference Energy          =    -307.1003120203569097 [Eh]
	 Singles Energy            =      -0.0000000000000000 [Eh]
	 Same-Spin Energy          =      -0.2947423271300201 [Eh]
	 Opposite-Spin Energy      =      -1.0071929886126121 [Eh]
	 Correlation Energy        =      -1.3019353157426321 [Eh]
	 Total Energy              =    -308.4022473360995491 [Eh]

	 ================> DF-SCS-MP2 Energies <==================
	-----------------------------------------------------------
	 SCS Same-Spin Scale       =       0.3333333333333333 [-]
	 SCS Opposite-Spin Scale   =       1.2000000000000000 [-]
	 SCS Same-Spin Energy      =      -0.0982474423766733 [Eh]
	 SCS Opposite-Spin Energy  =      -1.2086315863351345 [Eh]
	 SCS Correlation Energy    =      -1.3068790287118077 [Eh]
	 SCS Total Energy          =    -308.4071910490687287 [Eh]
	-----------------------------------------------------------

  Dipole Moment: [D]
     X:    -0.0006      Y:    -0.0005      Z:    -0.0057     Total:     0.0057

*** Psi4 exiting successfully. Buy a developer a beer!
