                               Psi4 1.4a3.dev225

  ==> Input File <==

--------------------------------------------------------------------------
#psi4
#
memory 32 gb

molecule  {
0 1
  O       -1.7104100     0.5323320    -0.0000080
  O        1.7104100    -0.5323320    -0.0000010
  C       -0.6421510    -0.4001880    -0.0000140
  C        0.6421510     0.4001890    -0.0000170
  C       -2.9687670    -0.1207390     0.0000150
  C        2.9687670     0.1207390     0.0000180
  H       -0.6784440    -1.0464640     0.8895520
  H       -0.6784560    -1.0464630    -0.8895800
  H        0.6817418     1.1052184     0.9704015
  H        0.6784570     1.0464550    -0.8895890
  H       -3.7295280     0.6607040     0.0000130
  H       -3.0932130    -0.7493130     0.8923640
  H       -3.0932330    -0.7493380    -0.8923130
  H        3.0932340     0.7493310    -0.8923150
  H        3.7295280    -0.6607040     0.0000230
  H        3.0932120     0.7493200     0.8923620
units angstrom
no_reorient  #important for SAPT in psi4, default
symmetry c1  #important for SAPT in psi4, default
}

set PROPERTIES_ORIGIN ["COM"]
properties('MP2/aug-cc-pvtz', properties = ['dipole'])
--------------------------------------------------------------------------

    Molecular point group: c1
  Charge       = 0
  Multiplicity = 1
  Basis Set: AUG-CC-PVTZ
    Blend: AUG-CC-PVTZ
  Basis Set: (AUG-CC-PVTZ AUX)
    Blend: AUG-CC-PVTZ-JKFIT

    Orbital Energies [Eh]
    ---------------------

    Doubly Occupied:

       1A    -20.561234     2A    -20.558969     3A    -11.283829
       4A    -11.273150     5A    -11.271883     6A    -11.271593
       7A     -1.379925     8A     -1.368451     9A     -1.022292
      10A     -0.933710    11A     -0.883706    12A     -0.823443
      13A     -0.684374    14A     -0.665612    15A     -0.653889
      16A     -0.642026    17A     -0.609594    18A     -0.592885
      19A     -0.571679    20A     -0.510418    21A     -0.504105
      22A     -0.489961    23A     -0.474144    24A     -0.426260
      25A     -0.423484

  @DF-RHF Final Energy:  -307.09371170344536

   => Energetics <=

    Nuclear Repulsion Energy =            252.1814801862655315
    One-Electron Energy =                -918.7891500069981703
    Two-Electron Energy =                 359.5139581172873022
    Total Energy =                       -307.0937117034453649
  Basis Set: (AUG-CC-PVTZ AUX)
    Blend: AUG-CC-PVTZ-RI
    Molecular point group: c1

    Geometry (in Angstrom), charge = 0, multiplicity = 1:

       Center              X                  Y                   Z               Mass
    ------------   -----------------  -----------------  -----------------  -----------------
         O           -1.710446912225     0.531674518540    -0.000912113156    15.994914619570
         O            1.710373087775    -0.532989481460    -0.000905113156    15.994914619570
         C           -0.642187912225    -0.400845481460    -0.000918113156    12.000000000000
         C            0.642114087775     0.399531518540    -0.000921113156    12.000000000000
         C           -2.968803912225    -0.121396481460    -0.000889113156    12.000000000000
         C            2.968730087775     0.120081518540    -0.000886113156    12.000000000000
         H           -0.678480912225    -1.047121481460     0.888647886844     1.007825032230
         H           -0.678492912225    -1.047120481460    -0.890484113156     1.007825032230
         H            0.681704887775     1.104560918540     0.969497386844     1.007825032230
         H            0.678420087775     1.045797518540    -0.890493113156     1.007825032230
         H           -3.729564912225     0.660046518540    -0.000891113156     1.007825032230
         H           -3.093249912225    -0.749970481460     0.891459886844     1.007825032230
         H           -3.093269912225    -0.749995481460    -0.893217113156     1.007825032230
         H            3.093197087775     0.748673518540    -0.893219113156     1.007825032230
         H            3.729491087775    -0.661361481460    -0.000881113156     1.007825032230
         H            3.093175087775     0.748662518540     0.891457886844     1.007825032230

  Basis Set: AUG-CC-PVTZ
    Blend: AUG-CC-PVTZ
  Basis Set: (AUG-CC-PVTZ AUX)
    Blend: AUG-CC-PVTZ-JKFIT
	 Reference Energy          =    -307.0937117034453649 [Eh]
	 Singles Energy            =      -0.0000000000000000 [Eh]
	 Same-Spin Energy          =      -0.2949211496459790 [Eh]
	 Opposite-Spin Energy      =      -1.0080709002938557 [Eh]
	 Correlation Energy        =      -1.3029920499398346 [Eh]
	 Total Energy              =    -308.3967037533852249 [Eh]

	 ================> DF-SCS-MP2 Energies <==================
	-----------------------------------------------------------
	 SCS Same-Spin Scale       =       0.3333333333333333 [-]
	 SCS Opposite-Spin Scale   =       1.2000000000000000 [-]
	 SCS Same-Spin Energy      =      -0.0983070498819930 [Eh]
	 SCS Opposite-Spin Energy  =      -1.2096850803526269 [Eh]
	 SCS Correlation Energy    =      -1.3079921302346198 [Eh]
	 SCS Total Energy          =    -308.4017038336799601 [Eh]
	-----------------------------------------------------------

  Dipole Moment: [D]
     X:     0.0110      Y:    -0.0654      Z:    -0.0640     Total:     0.0922

*** Psi4 exiting successfully. Buy a developer a beer!
