                               Psi4 1.4a3.dev225

  ==> Input File <==

--------------------------------------------------------------------------
#psi4
#
memory 32 gb

molecule  {
0 1
  O       -1.7104100     0.5323320    -0.0000080
  O        1.7104100    -0.5323320    -0.0000010
  C       -0.6421510    -0.4001880    -0.0000140
  C        0.6556513     0.3767830    -0.0454038
  C       -2.9687670    -0.1207390     0.0000150
  C        2.9687670     0.1207390     0.0000180
  H       -0.6784440    -1.0464640     0.8895520
  H       -0.6784560    -1.0464630    -0.8895800
  H        0.6784430     1.0464730     0.8895430
  H        0.6784570     1.0464550    -0.8895890
  H       -3.7295280     0.6607040     0.0000130
  H       -3.0932130    -0.7493130     0.8923640
  H       -3.0932330    -0.7493380    -0.8923130
  H        3.0932340     0.7493310    -0.8923150
  H        3.7295280    -0.6607040     0.0000230
  H        3.0932120     0.7493200     0.8923620
units angstrom
no_reorient  #important for SAPT in psi4, default
symmetry c1  #important for SAPT in psi4, default
}

set PROPERTIES_ORIGIN ["COM"]
properties('MP2/aug-cc-pvtz', properties = ['dipole'])
--------------------------------------------------------------------------

    Molecular point group: c1
  Charge       = 0
  Multiplicity = 1
  Basis Set: AUG-CC-PVTZ
    Blend: AUG-CC-PVTZ
  Basis Set: (AUG-CC-PVTZ AUX)
    Blend: AUG-CC-PVTZ-JKFIT

    Orbital Energies [Eh]
    ---------------------

    Doubly Occupied:

       1A    -20.561285     2A    -20.558819     3A    -11.273360
       4A    -11.273099     5A    -11.271434     6A    -11.271368
       7A     -1.385460     8A     -1.370346     9A     -1.024083
      10A     -0.935814    11A     -0.885208    12A     -0.827856
      13A     -0.687435    14A     -0.669240    15A     -0.656164
      16A     -0.643934    17A     -0.613891    18A     -0.594148
      19A     -0.572523    20A     -0.513915    21A     -0.506833
      22A     -0.491146    23A     -0.471573    24A     -0.425687
      25A     -0.422766

  @DF-RHF Final Energy:  -307.09800838865232

   => Energetics <=

    Nuclear Repulsion Energy =            252.8748033704638090
    One-Electron Energy =                -920.1308512168208154
    Two-Electron Energy =                 360.1580394577046604
    Total Energy =                       -307.0980083886523175
  Basis Set: (AUG-CC-PVTZ AUX)
    Blend: AUG-CC-PVTZ-RI
    Molecular point group: c1

    Geometry (in Angstrom), charge = 0, multiplicity = 1:

       Center              X                  Y                   Z               Mass
    ------------   -----------------  -----------------  -----------------  -----------------
         O           -1.712208679408     0.535450296666     0.006039659586    15.994914619570
         O            1.708611320592    -0.529213703334     0.006046659586    15.994914619570
         C           -0.643949679408    -0.397069703334     0.006033659586    12.000000000000
         C            0.653852620592     0.379901296666    -0.039356140414    12.000000000000
         C           -2.970565679408    -0.117620703334     0.006062659586    12.000000000000
         C            2.966968320592     0.123857296666     0.006065659586    12.000000000000
         H           -0.680242679408    -1.043345703334     0.895599659586     1.007825032230
         H           -0.680254679408    -1.043344703334    -0.883532340414     1.007825032230
         H            0.676644320592     1.049591296666     0.895590659586     1.007825032230
         H            0.676658320592     1.049573296666    -0.883541340414     1.007825032230
         H           -3.731326679408     0.663822296666     0.006060659586     1.007825032230
         H           -3.095011679408    -0.746194703334     0.898411659586     1.007825032230
         H           -3.095031679408    -0.746219703334    -0.886265340414     1.007825032230
         H            3.091435320592     0.752449296666    -0.886267340414     1.007825032230
         H            3.727729320592    -0.657585703334     0.006070659586     1.007825032230
         H            3.091413320592     0.752438296666     0.898409659586     1.007825032230

  Basis Set: AUG-CC-PVTZ
    Blend: AUG-CC-PVTZ
  Basis Set: (AUG-CC-PVTZ AUX)
    Blend: AUG-CC-PVTZ-JKFIT
	 Reference Energy          =    -307.0980083886523175 [Eh]
	 Singles Energy            =      -0.0000000000000000 [Eh]
	 Same-Spin Energy          =      -0.2947756924546866 [Eh]
	 Opposite-Spin Energy      =      -1.0069222757597420 [Eh]
	 Correlation Energy        =      -1.3016979682144285 [Eh]
	 Total Energy              =    -308.3997063568667727 [Eh]

	 ================> DF-SCS-MP2 Energies <==================
	-----------------------------------------------------------
	 SCS Same-Spin Scale       =       0.3333333333333333 [-]
	 SCS Opposite-Spin Scale   =       1.2000000000000000 [-]
	 SCS Same-Spin Energy      =      -0.0982585641515622 [Eh]
	 SCS Opposite-Spin Energy  =      -1.2083067309116904 [Eh]
	 SCS Correlation Energy    =      -1.3065652950632525 [Eh]
	 SCS Total Energy          =    -308.4045736837155687 [Eh]
	-----------------------------------------------------------

  Dipole Moment: [D]
     X:     0.0848      Y:    -0.0621      Z:    -0.0865     Total:     0.1361

*** Psi4 exiting successfully. Buy a developer a beer!
