                               Psi4 1.4a3.dev225

  ==> Input File <==

--------------------------------------------------------------------------
#psi4
#
memory 32 gb

molecule  {
0 1
  O       -1.7104100     0.5323320    -0.0000080
  O        1.7104100    -0.5323320    -0.0000010
  C       -0.6421510    -0.4001880    -0.0000140
  C        0.6421510     0.4001890    -0.0000170
  C       -2.9687670    -0.1207390     0.0000150
  C        2.9687670     0.1207390     0.0000180
  H       -0.6834601    -1.1357623     0.8170182
  H       -0.6784560    -1.0464630    -0.8895800
  H        0.6784430     1.0464730     0.8895430
  H        0.6784570     1.0464550    -0.8895890
  H       -3.7295280     0.6607040     0.0000130
  H       -3.0932130    -0.7493130     0.8923640
  H       -3.0932330    -0.7493380    -0.8923130
  H        3.0932340     0.7493310    -0.8923150
  H        3.7295280    -0.6607040     0.0000230
  H        3.0932120     0.7493200     0.8923620
units angstrom
no_reorient  #important for SAPT in psi4, default
symmetry c1  #important for SAPT in psi4, default
}

set PROPERTIES_ORIGIN ["COM"]
properties('MP2/aug-cc-pvtz', properties = ['dipole'])
--------------------------------------------------------------------------

    Molecular point group: c1
  Charge       = 0
  Multiplicity = 1
  Basis Set: AUG-CC-PVTZ
    Blend: AUG-CC-PVTZ
  Basis Set: (AUG-CC-PVTZ AUX)
    Blend: AUG-CC-PVTZ-JKFIT

    Orbital Energies [Eh]
    ---------------------

    Doubly Occupied:

       1A    -20.560329     2A    -20.558752     3A    -11.272778
       4A    -11.271810     5A    -11.271623     6A    -11.271414
       7A     -1.379346     8A     -1.367855     9A     -1.023664
      10A     -0.933521    11A     -0.884938    12A     -0.832267
      13A     -0.683955    14A     -0.668232    15A     -0.653671
      16A     -0.641857    17A     -0.613549    18A     -0.593600
      19A     -0.572352    20A     -0.511435    21A     -0.503746
      22A     -0.490842    23A     -0.478126    24A     -0.426080
      25A     -0.424044

  @DF-RHF Final Energy:  -307.09877338661761

   => Energetics <=

    Nuclear Repulsion Energy =            252.5705294021698819
    One-Electron Energy =                -919.5590331614475872
    Two-Electron Energy =                 359.8897303726600967
    Total Energy =                       -307.0987733866176086
  Basis Set: (AUG-CC-PVTZ AUX)
    Blend: AUG-CC-PVTZ-RI
    Molecular point group: c1

    Geometry (in Angstrom), charge = 0, multiplicity = 1:

       Center              X                  Y                   Z               Mass
    ------------   -----------------  -----------------  -----------------  -----------------
         O           -1.710353871889     0.533331067091     0.000804284046    15.994914619570
         O            1.710466128111    -0.531332932909     0.000811284046    15.994914619570
         C           -0.642094871889    -0.399188932909     0.000798284046    12.000000000000
         C            0.642207128111     0.401188067091     0.000795284046    12.000000000000
         C           -2.968710871889    -0.119739932909     0.000827284046    12.000000000000
         C            2.968823128111     0.121738067091     0.000830284046    12.000000000000
         H           -0.683403971889    -1.134763232909     0.817830484046     1.007825032230
         H           -0.678399871889    -1.045463932909    -0.888767715954     1.007825032230
         H            0.678499128111     1.047472067091     0.890355284046     1.007825032230
         H            0.678513128111     1.047454067091    -0.888776715954     1.007825032230
         H           -3.729471871889     0.661703067091     0.000825284046     1.007825032230
         H           -3.093156871889    -0.748313932909     0.893176284046     1.007825032230
         H           -3.093176871889    -0.748338932909    -0.891500715954     1.007825032230
         H            3.093290128111     0.750330067091    -0.891502715954     1.007825032230
         H            3.729584128111    -0.659704932909     0.000835284046     1.007825032230
         H            3.093268128111     0.750319067091     0.893174284046     1.007825032230

  Basis Set: AUG-CC-PVTZ
    Blend: AUG-CC-PVTZ
  Basis Set: (AUG-CC-PVTZ AUX)
    Blend: AUG-CC-PVTZ-JKFIT
	 Reference Energy          =    -307.0987733866176086 [Eh]
	 Singles Energy            =      -0.0000000000000000 [Eh]
	 Same-Spin Energy          =      -0.2947946075419129 [Eh]
	 Opposite-Spin Energy      =      -1.0071971464646965 [Eh]
	 Correlation Energy        =      -1.3019917540066093 [Eh]
	 Total Energy              =    -308.4007651406242303 [Eh]

	 ================> DF-SCS-MP2 Energies <==================
	-----------------------------------------------------------
	 SCS Same-Spin Scale       =       0.3333333333333333 [-]
	 SCS Opposite-Spin Scale   =       1.2000000000000000 [-]
	 SCS Same-Spin Energy      =      -0.0982648691806376 [Eh]
	 SCS Opposite-Spin Energy  =      -1.2086365757576358 [Eh]
	 SCS Correlation Energy    =      -1.3069014449382734 [Eh]
	 SCS Total Energy          =    -308.4056748315558707 [Eh]
	-----------------------------------------------------------

  Dipole Moment: [D]
     X:    -0.0163      Y:    -0.0171      Z:    -0.0034     Total:     0.0239

*** Psi4 exiting successfully. Buy a developer a beer!
