                               Psi4 1.4a3.dev225

  ==> Input File <==

--------------------------------------------------------------------------
#psi4
#
memory 32 gb

molecule  {
0 1
  O       -1.7050250     0.5214880     0.0215712
  O        1.7104100    -0.5323320    -0.0000010
  C       -0.6421510    -0.4001880    -0.0000140
  C        0.6421510     0.4001890    -0.0000170
  C       -2.9687670    -0.1207390     0.0000150
  C        2.9687670     0.1207390     0.0000180
  H       -0.6784440    -1.0464640     0.8895520
  H       -0.6784560    -1.0464630    -0.8895800
  H        0.6784430     1.0464730     0.8895430
  H        0.6784570     1.0464550    -0.8895890
  H       -3.7295280     0.6607040     0.0000130
  H       -3.0932130    -0.7493130     0.8923640
  H       -3.0932330    -0.7493380    -0.8923130
  H        3.0932340     0.7493310    -0.8923150
  H        3.7295280    -0.6607040     0.0000230
  H        3.0932120     0.7493200     0.8923620
units angstrom
no_reorient  #important for SAPT in psi4, default
symmetry c1  #important for SAPT in psi4, default
}

set PROPERTIES_ORIGIN ["COM"]
properties('MP2/aug-cc-pvtz', properties = ['dipole'])
--------------------------------------------------------------------------

    Molecular point group: c1
  Charge       = 0
  Multiplicity = 1
  Basis Set: AUG-CC-PVTZ
    Blend: AUG-CC-PVTZ
  Basis Set: (AUG-CC-PVTZ AUX)
    Blend: AUG-CC-PVTZ-JKFIT

    Orbital Energies [Eh]
    ---------------------

    Doubly Occupied:

       1A    -20.558537     2A    -20.558284     3A    -11.272064
       4A    -11.271705     5A    -11.271261     6A    -11.270743
       7A     -1.380934     8A     -1.368746     9A     -1.024175
      10A     -0.934406    11A     -0.884177    12A     -0.829269
      13A     -0.687863    14A     -0.667166    15A     -0.654174
      16A     -0.643205    17A     -0.611797    18A     -0.593693
      19A     -0.574123    20A     -0.515013    21A     -0.505003
      22A     -0.489593    23A     -0.473334    24A     -0.426246
      25A     -0.424611

  @DF-RHF Final Energy:  -307.10074219815215

   => Energetics <=

    Nuclear Repulsion Energy =            252.8556487917663276
    One-Electron Energy =                -920.1325358880958447
    Two-Electron Energy =                 360.1761448981774265
    Total Energy =                       -307.1007421981521475
  Basis Set: (AUG-CC-PVTZ AUX)
    Blend: AUG-CC-PVTZ-RI
    Molecular point group: c1

    Geometry (in Angstrom), charge = 0, multiplicity = 1:

       Center              X                  Y                   Z               Mass
    ------------   -----------------  -----------------  -----------------  -----------------
         O           -1.705981305671     0.523413608353     0.017739676351    15.994914619570
         O            1.709453694329    -0.530406391647    -0.003832523649    15.994914619570
         C           -0.643107305671    -0.398262391647    -0.003845523649    12.000000000000
         C            0.641194694329     0.402114608353    -0.003848523649    12.000000000000
         C           -2.969723305671    -0.118813391647    -0.003816523649    12.000000000000
         C            2.967810694329     0.122664608353    -0.003813523649    12.000000000000
         H           -0.679400305671    -1.044538391647     0.885720476351     1.007825032230
         H           -0.679412305671    -1.044537391647    -0.893411523649     1.007825032230
         H            0.677486694329     1.048398608353     0.885711476351     1.007825032230
         H            0.677500694329     1.048380608353    -0.893420523649     1.007825032230
         H           -3.730484305671     0.662629608353    -0.003818523649     1.007825032230
         H           -3.094169305671    -0.747387391647     0.888532476351     1.007825032230
         H           -3.094189305671    -0.747412391647    -0.896144523649     1.007825032230
         H            3.092277694329     0.751256608353    -0.896146523649     1.007825032230
         H            3.728571694329    -0.658778391647    -0.003808523649     1.007825032230
         H            3.092255694329     0.751245608353     0.888530476351     1.007825032230

  Basis Set: AUG-CC-PVTZ
    Blend: AUG-CC-PVTZ
  Basis Set: (AUG-CC-PVTZ AUX)
    Blend: AUG-CC-PVTZ-JKFIT
	 Reference Energy          =    -307.1007421981521475 [Eh]
	 Singles Energy            =      -0.0000000000000000 [Eh]
	 Same-Spin Energy          =      -0.2946771454100823 [Eh]
	 Opposite-Spin Energy      =      -1.0068560251334251 [Eh]
	 Correlation Energy        =      -1.3015331705435074 [Eh]
	 Total Energy              =    -308.4022753686956548 [Eh]

	 ================> DF-SCS-MP2 Energies <==================
	-----------------------------------------------------------
	 SCS Same-Spin Scale       =       0.3333333333333333 [-]
	 SCS Opposite-Spin Scale   =       1.2000000000000000 [-]
	 SCS Same-Spin Energy      =      -0.0982257151366941 [Eh]
	 SCS Opposite-Spin Energy  =      -1.2082272301601100 [Eh]
	 SCS Correlation Energy    =      -1.3064529452968041 [Eh]
	 SCS Total Energy          =    -308.4071951434489733 [Eh]
	-----------------------------------------------------------

  Dipole Moment: [D]
     X:    -0.0362      Y:     0.0297      Z:    -0.0425     Total:     0.0633

*** Psi4 exiting successfully. Buy a developer a beer!
