                               Psi4 1.4a3.dev225

  ==> Input File <==

--------------------------------------------------------------------------
#psi4
#
memory 32 gb

molecule  {
0 1
  O       -1.7104100     0.5323320    -0.0000080
  O        1.7104100    -0.5323320    -0.0000010
  C       -0.6421510    -0.4001880    -0.0000140
  C        0.6421510     0.4001890    -0.0000170
  C       -2.9687670    -0.1207390     0.0000150
  C        2.9687670     0.1207390     0.0000180
  H       -0.6784440    -1.0464640     0.8895520
  H       -0.6784560    -1.0464630    -0.8895800
  H        0.6784430     1.0464730     0.8895430
  H        0.6784570     1.0464550    -0.8895890
  H       -3.7295280     0.6607040     0.0000130
  H       -3.0932130    -0.7493130     0.8923640
  H       -3.0932330    -0.7493380    -0.8923130
  H        3.0932340     0.7493310    -0.8923150
  H        3.6837860    -0.6968980    -0.0981050
  H        3.0932120     0.7493200     0.8923620
units angstrom
no_reorient  #important for SAPT in psi4, default
symmetry c1  #important for SAPT in psi4, default
}

set PROPERTIES_ORIGIN ["COM"]
properties('MP2/aug-cc-pvtz', properties = ['dipole'])
--------------------------------------------------------------------------

    Molecular point group: c1
  Charge       = 0
  Multiplicity = 1
  Basis Set: AUG-CC-PVTZ
    Blend: AUG-CC-PVTZ
  Basis Set: (AUG-CC-PVTZ AUX)
    Blend: AUG-CC-PVTZ-JKFIT

    Orbital Energies [Eh]
    ---------------------

    Doubly Occupied:

       1A    -20.558640     2A    -20.558045     3A    -11.271858
       4A    -11.271362     5A    -11.271337     6A    -11.271116
       7A     -1.379066     8A     -1.367518     9A     -1.024105
      10A     -0.933296    11A     -0.883746    12A     -0.829452
      13A     -0.687194    14A     -0.666427    15A     -0.653851
      16A     -0.642474    17A     -0.611357    18A     -0.592485
      19A     -0.573946    20A     -0.515358    21A     -0.501802
      22A     -0.489981    23A     -0.474536    24A     -0.426703
      25A     -0.425041

  @DF-RHF Final Energy:  -307.09886608184934

   => Energetics <=

    Nuclear Repulsion Energy =            252.7001683052498890
    One-Electron Energy =                -919.8366808645778292
    Two-Electron Energy =                 360.0376464774785745
    Total Energy =                       -307.0988660818493372
  Basis Set: (AUG-CC-PVTZ AUX)
    Blend: AUG-CC-PVTZ-RI
    Molecular point group: c1

    Geometry (in Angstrom), charge = 0, multiplicity = 1:

       Center              X                  Y                   Z               Mass
    ------------   -----------------  -----------------  -----------------  -----------------
         O           -1.709898165698     0.532736851659     0.001090672693    15.994914619570
         O            1.710921834302    -0.531927148341     0.001097672693    15.994914619570
         C           -0.641639165698    -0.399783148341     0.001084672693    12.000000000000
         C            0.642662834302     0.400593851659     0.001081672693    12.000000000000
         C           -2.968255165698    -0.120334148341     0.001113672693    12.000000000000
         C            2.969278834302     0.121143851659     0.001116672693    12.000000000000
         H           -0.677932165698    -1.046059148341     0.890650672693     1.007825032230
         H           -0.677944165698    -1.046058148341    -0.888481327307     1.007825032230
         H            0.678954834302     1.046877851659     0.890641672693     1.007825032230
         H            0.678968834302     1.046859851659    -0.888490327307     1.007825032230
         H           -3.729016165698     0.661108851659     0.001111672693     1.007825032230
         H           -3.092701165698    -0.748908148341     0.893462672693     1.007825032230
         H           -3.092721165698    -0.748933148341    -0.891214327307     1.007825032230
         H            3.093745834302     0.749735851659    -0.891216327307     1.007825032230
         H            3.684297834302    -0.696493148341    -0.097006327307     1.007825032230
         H            3.093723834302     0.749724851659     0.893460672693     1.007825032230

  Basis Set: AUG-CC-PVTZ
    Blend: AUG-CC-PVTZ
  Basis Set: (AUG-CC-PVTZ AUX)
    Blend: AUG-CC-PVTZ-JKFIT
	 Reference Energy          =    -307.0988660818493372 [Eh]
	 Singles Energy            =      -0.0000000000000000 [Eh]
	 Same-Spin Energy          =      -0.2948256584111310 [Eh]
	 Opposite-Spin Energy      =      -1.0073639918196351 [Eh]
	 Correlation Energy        =      -1.3021896502307659 [Eh]
	 Total Energy              =    -308.4010557320801240 [Eh]

	 ================> DF-SCS-MP2 Energies <==================
	-----------------------------------------------------------
	 SCS Same-Spin Scale       =       0.3333333333333333 [-]
	 SCS Opposite-Spin Scale   =       1.2000000000000000 [-]
	 SCS Same-Spin Energy      =      -0.0982752194703770 [Eh]
	 SCS Opposite-Spin Energy  =      -1.2088367901835622 [Eh]
	 SCS Correlation Energy    =      -1.3071120096539390 [Eh]
	 SCS Total Energy          =    -308.4059780915033002 [Eh]
	-----------------------------------------------------------

  Dipole Moment: [D]
     X:    -0.0052      Y:    -0.0009      Z:    -0.0331     Total:     0.0335

*** Psi4 exiting successfully. Buy a developer a beer!
