                               Psi4 1.4a3.dev225

  ==> Input File <==

--------------------------------------------------------------------------
#psi4
#
memory 32 gb

molecule  {
0 1
  O       -1.7104100     0.5323320    -0.0000080
  O        1.7104100    -0.5323320    -0.0000010
  C       -0.6421510    -0.4001880    -0.0000140
  C        0.6421510     0.4001890    -0.0000170
  C       -2.9687670    -0.1207390     0.0000150
  C        2.9687670     0.1207390     0.0000180
  H       -0.6784440    -1.0464640     0.8895520
  H       -0.6784560    -1.0464630    -0.8895800
  H        0.6800924     1.0758457     0.9299722
  H        0.6784570     1.0464550    -0.8895890
  H       -3.7295280     0.6607040     0.0000130
  H       -3.0932130    -0.7493130     0.8923640
  H       -3.0932330    -0.7493380    -0.8923130
  H        3.0932340     0.7493310    -0.8923150
  H        3.7295280    -0.6607040     0.0000230
  H        3.0932120     0.7493200     0.8923620
units angstrom
no_reorient  #important for SAPT in psi4, default
symmetry c1  #important for SAPT in psi4, default
}

set PROPERTIES_ORIGIN ["COM"]
properties('MP2/aug-cc-pvtz', properties = ['dipole'])
--------------------------------------------------------------------------

    Molecular point group: c1
  Charge       = 0
  Multiplicity = 1
  Basis Set: AUG-CC-PVTZ
    Blend: AUG-CC-PVTZ
  Basis Set: (AUG-CC-PVTZ AUX)
    Blend: AUG-CC-PVTZ-JKFIT

    Orbital Energies [Eh]
    ---------------------

    Doubly Occupied:

       1A    -20.559959     2A    -20.558878     3A    -11.277969
       4A    -11.272472     5A    -11.271653     6A    -11.271514
       7A     -1.379500     8A     -1.368002     9A     -1.022991
      10A     -0.933533    11A     -0.883994    12A     -0.826233
      13A     -0.685604    14A     -0.665966    15A     -0.653560
      16A     -0.642322    17A     -0.610231    18A     -0.592990
      19A     -0.573057    20A     -0.512531    21A     -0.503839
      22A     -0.489871    23A     -0.474477    24A     -0.426359
      25A     -0.424733

  @DF-RHF Final Energy:  -307.09814852952809

   => Energetics <=

    Nuclear Repulsion Energy =            252.4012607833119262
    One-Electron Energy =                -919.2343428876270082
    Two-Electron Energy =                 359.7349335747869645
    Total Energy =                       -307.0981485295280891
  Basis Set: (AUG-CC-PVTZ AUX)
    Blend: AUG-CC-PVTZ-RI
    Molecular point group: c1

    Geometry (in Angstrom), charge = 0, multiplicity = 1:

       Center              X                  Y                   Z               Mass
    ------------   -----------------  -----------------  -----------------  -----------------
         O           -1.710428456112     0.532003187059    -0.000459725797    15.994914619570
         O            1.710391543888    -0.532660812941    -0.000452725797    15.994914619570
         C           -0.642169456112    -0.400516812941    -0.000465725797    12.000000000000
         C            0.642132543888     0.399860187059    -0.000468725797    12.000000000000
         C           -2.968785456112    -0.121067812941    -0.000436725797    12.000000000000
         C            2.968748543888     0.120410187059    -0.000433725797    12.000000000000
         H           -0.678462456112    -1.046792812941     0.889100274203     1.007825032230
         H           -0.678474456112    -1.046791812941    -0.890031725797     1.007825032230
         H            0.680073943888     1.075516887059     0.929520474203     1.007825032230
         H            0.678438543888     1.046126187059    -0.890040725797     1.007825032230
         H           -3.729546456112     0.660375187059    -0.000438725797     1.007825032230
         H           -3.093231456112    -0.749641812941     0.891912274203     1.007825032230
         H           -3.093251456112    -0.749666812941    -0.892764725797     1.007825032230
         H            3.093215543888     0.749002187059    -0.892766725797     1.007825032230
         H            3.729509543888    -0.661032812941    -0.000428725797     1.007825032230
         H            3.093193543888     0.748991187059     0.891910274203     1.007825032230

  Basis Set: AUG-CC-PVTZ
    Blend: AUG-CC-PVTZ
  Basis Set: (AUG-CC-PVTZ AUX)
    Blend: AUG-CC-PVTZ-JKFIT
	 Reference Energy          =    -307.0981485295280891 [Eh]
	 Singles Energy            =      -0.0000000000000000 [Eh]
	 Same-Spin Energy          =      -0.2948235244205504 [Eh]
	 Opposite-Spin Energy      =      -1.0075948044404883 [Eh]
	 Correlation Energy        =      -1.3024183288610387 [Eh]
	 Total Energy              =    -308.4005668583891406 [Eh]

	 ================> DF-SCS-MP2 Energies <==================
	-----------------------------------------------------------
	 SCS Same-Spin Scale       =       0.3333333333333333 [-]
	 SCS Opposite-Spin Scale   =       1.2000000000000000 [-]
	 SCS Same-Spin Energy      =      -0.0982745081401835 [Eh]
	 SCS Opposite-Spin Energy  =      -1.2091137653285859 [Eh]
	 SCS Correlation Energy    =      -1.3073882734687694 [Eh]
	 SCS Total Energy          =    -308.4055368029968349 [Eh]
	-----------------------------------------------------------

  Dipole Moment: [D]
     X:     0.0053      Y:    -0.0308      Z:    -0.0299     Total:     0.0432

*** Psi4 exiting successfully. Buy a developer a beer!
