                               Psi4 1.4a3.dev225

  ==> Input File <==

--------------------------------------------------------------------------
#psi4
#
memory 32 gb

molecule  {
0 1
  O       -1.7104100     0.5323320    -0.0000080
  O        1.7104100    -0.5323320    -0.0000010
  C       -0.6421510    -0.4001880    -0.0000140
  C        0.6421510     0.4001890    -0.0000170
  C       -2.9687670    -0.1207390     0.0000150
  C        2.9687670     0.1207390     0.0000180
  H       -0.6784440    -1.0464640     0.8895520
  H       -0.6784560    -1.0464630    -0.8895800
  H        0.6784430     1.0464730     0.8895430
  H        0.6784570     1.0464550    -0.8895890
  H       -3.7295280     0.6607040     0.0000130
  H       -3.0932130    -0.7493130     0.8923640
  H       -3.0932330    -0.7493380    -0.8923130
  H        3.0932340     0.7493310    -0.8923150
  H        3.7295280    -0.6607040     0.0000230
  H        3.0875481     0.7207112     0.8517485
units angstrom
no_reorient  #important for SAPT in psi4, default
symmetry c1  #important for SAPT in psi4, default
}

set PROPERTIES_ORIGIN ["COM"]
properties('MP2/aug-cc-pvtz', properties = ['dipole'])
--------------------------------------------------------------------------

    Molecular point group: c1
  Charge       = 0
  Multiplicity = 1
  Basis Set: AUG-CC-PVTZ
    Blend: AUG-CC-PVTZ
  Basis Set: (AUG-CC-PVTZ AUX)
    Blend: AUG-CC-PVTZ-JKFIT

    Orbital Energies [Eh]
    ---------------------

    Doubly Occupied:

       1A    -20.558673     2A    -20.557677     3A    -11.272030
       4A    -11.271367     5A    -11.271350     6A    -11.265171
       7A     -1.378812     8A     -1.367225     9A     -1.024367
      10A     -0.936010    11A     -0.886953    12A     -0.829746
      13A     -0.687697    14A     -0.667365    15A     -0.653135
      16A     -0.644254    17A     -0.611782    18A     -0.592999
      19A     -0.576822    20A     -0.516362    21A     -0.503660
      22A     -0.489910    23A     -0.474441    24A     -0.427047
      25A     -0.425494

  @DF-RHF Final Energy:  -307.09956497134579

   => Energetics <=

    Nuclear Repulsion Energy =            252.8444449721181684
    One-Electron Energy =                -920.1073272599315942
    Two-Electron Energy =                 360.1633173164676691
    Total Energy =                       -307.0995649713457851
  Basis Set: (AUG-CC-PVTZ AUX)
    Blend: AUG-CC-PVTZ-RI
    Molecular point group: c1

    Geometry (in Angstrom), charge = 0, multiplicity = 1:

       Center              X                  Y                   Z               Mass
    ------------   -----------------  -----------------  -----------------  -----------------
         O           -1.710346623272     0.532651976368     0.000447108923    15.994914619570
         O            1.710473376728    -0.532012023632     0.000454108923    15.994914619570
         C           -0.642087623272    -0.399868023632     0.000441108923    12.000000000000
         C            0.642214376728     0.400508976368     0.000438108923    12.000000000000
         C           -2.968703623272    -0.120419023632     0.000470108923    12.000000000000
         C            2.968830376728     0.121058976368     0.000473108923    12.000000000000
         H           -0.678380623272    -1.046144023632     0.890007108923     1.007825032230
         H           -0.678392623272    -1.046143023632    -0.889124891077     1.007825032230
         H            0.678506376728     1.046792976368     0.889998108923     1.007825032230
         H            0.678520376728     1.046774976368    -0.889133891077     1.007825032230
         H           -3.729464623272     0.661023976368     0.000468108923     1.007825032230
         H           -3.093149623272    -0.748993023632     0.892819108923     1.007825032230
         H           -3.093169623272    -0.749018023632    -0.891857891077     1.007825032230
         H            3.093297376728     0.749650976368    -0.891859891077     1.007825032230
         H            3.729591376728    -0.660384023632     0.000478108923     1.007825032230
         H            3.087611476728     0.721031176368     0.852203608923     1.007825032230

  Basis Set: AUG-CC-PVTZ
    Blend: AUG-CC-PVTZ
  Basis Set: (AUG-CC-PVTZ AUX)
    Blend: AUG-CC-PVTZ-JKFIT
	 Reference Energy          =    -307.0995649713457851 [Eh]
	 Singles Energy            =      -0.0000000000000000 [Eh]
	 Same-Spin Energy          =      -0.2946993928867001 [Eh]
	 Opposite-Spin Energy      =      -1.0068568545191607 [Eh]
	 Correlation Energy        =      -1.3015562474058608 [Eh]
	 Total Energy              =    -308.4011212187516549 [Eh]

	 ================> DF-SCS-MP2 Energies <==================
	-----------------------------------------------------------
	 SCS Same-Spin Scale       =       0.3333333333333333 [-]
	 SCS Opposite-Spin Scale   =       1.2000000000000000 [-]
	 SCS Same-Spin Energy      =      -0.0982331309622334 [Eh]
	 SCS Opposite-Spin Energy  =      -1.2082282254229928 [Eh]
	 SCS Correlation Energy    =      -1.3064613563852261 [Eh]
	 SCS Total Energy          =    -308.4060263277310128 [Eh]
	-----------------------------------------------------------

  Dipole Moment: [D]
     X:     0.0231      Y:     0.0230      Z:     0.0294     Total:     0.0439

*** Psi4 exiting successfully. Buy a developer a beer!
