                               Psi4 1.4a3.dev225

  ==> Input File <==

--------------------------------------------------------------------------
#psi4
#
memory 32 gb

molecule  {
0 1
  O       -1.7357650     0.5736866    -0.0862592
  O        1.7104100    -0.5323320    -0.0000010
  C       -0.6421510    -0.4001880    -0.0000140
  C        0.6421510     0.4001890    -0.0000170
  C       -2.9687670    -0.1207390     0.0000150
  C        2.9687670     0.1207390     0.0000180
  H       -0.6784440    -1.0464640     0.8895520
  H       -0.6784560    -1.0464630    -0.8895800
  H        0.6784430     1.0464730     0.8895430
  H        0.6784570     1.0464550    -0.8895890
  H       -3.7295280     0.6607040     0.0000130
  H       -3.0932130    -0.7493130     0.8923640
  H       -3.0932330    -0.7493380    -0.8923130
  H        3.0932340     0.7493310    -0.8923150
  H        3.7295280    -0.6607040     0.0000230
  H        3.0932120     0.7493200     0.8923620
units angstrom
no_reorient  #important for SAPT in psi4, default
symmetry c1  #important for SAPT in psi4, default
}

set PROPERTIES_ORIGIN ["COM"]
properties('MP2/aug-cc-pvtz', properties = ['dipole'])
--------------------------------------------------------------------------

    Molecular point group: c1
  Charge       = 0
  Multiplicity = 1
  Basis Set: AUG-CC-PVTZ
    Blend: AUG-CC-PVTZ
  Basis Set: (AUG-CC-PVTZ AUX)
    Blend: AUG-CC-PVTZ-JKFIT

    Orbital Energies [Eh]
    ---------------------

    Doubly Occupied:

       1A    -20.560785     2A    -20.560058     3A    -11.276464
       4A    -11.273377     5A    -11.272323     6A    -11.268960
       7A     -1.376572     8A     -1.358614     9A     -1.023771
      10A     -0.929398    11A     -0.885864    12A     -0.830977
      13A     -0.685154    14A     -0.663598    15A     -0.650141
      16A     -0.639889    17A     -0.609058    18A     -0.590702
      19A     -0.574209    20A     -0.514284    21A     -0.499356
      22A     -0.489073    23A     -0.479608    24A     -0.429448
      25A     -0.426603

  @DF-RHF Final Energy:  -307.09491604938529

   => Energetics <=

    Nuclear Repulsion Energy =            251.6582288780940928
    One-Electron Energy =                -917.7697221601393949
    Two-Electron Energy =                 359.0165772326600404
    Total Energy =                       -307.0949160493852901
  Basis Set: (AUG-CC-PVTZ AUX)
    Blend: AUG-CC-PVTZ-RI
    Molecular point group: c1

    Geometry (in Angstrom), charge = 0, multiplicity = 1:

       Center              X                  Y                   Z               Mass
    ------------   -----------------  -----------------  -----------------  -----------------
         O           -1.731262283142     0.566342418719    -0.070941452899    15.994914619570
         O            1.714912716858    -0.539676181281     0.015316747101    15.994914619570
         C           -0.637648283142    -0.407532181281     0.015303747101    12.000000000000
         C            0.646653716858     0.392844818719     0.015300747101    12.000000000000
         C           -2.964264283142    -0.128083181281     0.015332747101    12.000000000000
         C            2.973269716858     0.113394818719     0.015335747101    12.000000000000
         H           -0.673941283142    -1.053808181281     0.904869747101     1.007825032230
         H           -0.673953283142    -1.053807181281    -0.874262252899     1.007825032230
         H            0.682945716858     1.039128818719     0.904860747101     1.007825032230
         H            0.682959716858     1.039110818719    -0.874271252899     1.007825032230
         H           -3.725025283142     0.653359818719     0.015330747101     1.007825032230
         H           -3.088710283142    -0.756657181281     0.907681747101     1.007825032230
         H           -3.088730283142    -0.756682181281    -0.876995252899     1.007825032230
         H            3.097736716858     0.741986818719    -0.876997252899     1.007825032230
         H            3.734030716858    -0.668048181281     0.015340747101     1.007825032230
         H            3.097714716858     0.741975818719     0.907679747101     1.007825032230

  Basis Set: AUG-CC-PVTZ
    Blend: AUG-CC-PVTZ
  Basis Set: (AUG-CC-PVTZ AUX)
    Blend: AUG-CC-PVTZ-JKFIT
	 Reference Energy          =    -307.0949160493852901 [Eh]
	 Singles Energy            =      -0.0000000000000000 [Eh]
	 Same-Spin Energy          =      -0.2950994663371059 [Eh]
	 Opposite-Spin Energy      =      -1.0087956822338560 [Eh]
	 Correlation Energy        =      -1.3038951485709620 [Eh]
	 Total Energy              =    -308.3988111979562632 [Eh]

	 ================> DF-SCS-MP2 Energies <==================
	-----------------------------------------------------------
	 SCS Same-Spin Scale       =       0.3333333333333333 [-]
	 SCS Opposite-Spin Scale   =       1.2000000000000000 [-]
	 SCS Same-Spin Energy      =      -0.0983664887790353 [Eh]
	 SCS Opposite-Spin Energy  =      -1.2105548186806272 [Eh]
	 SCS Correlation Energy    =      -1.3089213074596624 [Eh]
	 SCS Total Energy          =    -308.4038373568449742 [Eh]
	-----------------------------------------------------------

  Dipole Moment: [D]
     X:     0.1558      Y:    -0.1127      Z:     0.1669     Total:     0.2546

*** Psi4 exiting successfully. Buy a developer a beer!
