                               Psi4 1.4a3.dev225

  ==> Input File <==

--------------------------------------------------------------------------
#psi4
#
memory 32 gb

molecule  {
0 1
  O       -1.7104100     0.5323320    -0.0000080
  O        1.7104100    -0.5323320    -0.0000010
  C       -0.6421510    -0.4001880    -0.0000140
  C        0.6490978     0.3886061    -0.0227138
  C       -2.9687670    -0.1207390     0.0000150
  C        2.9687670     0.1207390     0.0000180
  H       -0.6784440    -1.0464640     0.8895520
  H       -0.6784560    -1.0464630    -0.8895800
  H        0.6784430     1.0464730     0.8895430
  H        0.6784570     1.0464550    -0.8895890
  H       -3.7295280     0.6607040     0.0000130
  H       -3.0932130    -0.7493130     0.8923640
  H       -3.0932330    -0.7493380    -0.8923130
  H        3.0932340     0.7493310    -0.8923150
  H        3.7295280    -0.6607040     0.0000230
  H        3.0932120     0.7493200     0.8923620
units angstrom
no_reorient  #important for SAPT in psi4, default
symmetry c1  #important for SAPT in psi4, default
}

set PROPERTIES_ORIGIN ["COM"]
properties('MP2/aug-cc-pvtz', properties = ['dipole'])
--------------------------------------------------------------------------

    Molecular point group: c1
  Charge       = 0
  Multiplicity = 1
  Basis Set: AUG-CC-PVTZ
    Blend: AUG-CC-PVTZ
  Basis Set: (AUG-CC-PVTZ AUX)
    Blend: AUG-CC-PVTZ-JKFIT

    Orbital Energies [Eh]
    ---------------------

    Doubly Occupied:

       1A    -20.560018     2A    -20.558799     3A    -11.272477
       4A    -11.272399     5A    -11.271505     6A    -11.271402
       7A     -1.381886     8A     -1.369377     9A     -1.023992
      10A     -0.934601    11A     -0.884817    12A     -0.828560
      13A     -0.687224    14A     -0.667778    15A     -0.654649
      16A     -0.643316    17A     -0.612409    18A     -0.593621
      19A     -0.573565    20A     -0.514035    21A     -0.505199
      22A     -0.490597    23A     -0.473150    24A     -0.425880
      25A     -0.424884

  @DF-RHF Final Energy:  -307.09990288768574

   => Energetics <=

    Nuclear Repulsion Energy =            252.7557486326775233
    One-Electron Energy =                -919.9190222863497866
    Two-Electron Energy =                 360.0633707659865195
    Total Energy =                       -307.0999028876857437
  Basis Set: (AUG-CC-PVTZ AUX)
    Blend: AUG-CC-PVTZ-RI
    Molecular point group: c1

    Geometry (in Angstrom), charge = 0, multiplicity = 1:

       Center              X                  Y                   Z               Mass
    ------------   -----------------  -----------------  -----------------  -----------------
         O           -1.711335539885     0.533875074892     0.003016613004    15.994914619570
         O            1.709484460115    -0.530788925108     0.003023613004    15.994914619570
         C           -0.643076539885    -0.398644925108     0.003010613004    12.000000000000
         C            0.648172260115     0.390149174892    -0.019689186996    12.000000000000
         C           -2.969692539885    -0.119195925108     0.003039613004    12.000000000000
         C            2.967841460115     0.122282074892     0.003042613004    12.000000000000
         H           -0.679369539885    -1.044920925108     0.892576613004     1.007825032230
         H           -0.679381539885    -1.044919925108    -0.886555386996     1.007825032230
         H            0.677517460115     1.048016074892     0.892567613004     1.007825032230
         H            0.677531460115     1.047998074892    -0.886564386996     1.007825032230
         H           -3.730453539885     0.662247074892     0.003037613004     1.007825032230
         H           -3.094138539885    -0.747769925108     0.895388613004     1.007825032230
         H           -3.094158539885    -0.747794925108    -0.889288386996     1.007825032230
         H            3.092308460115     0.750874074892    -0.889290386996     1.007825032230
         H            3.728602460115    -0.659160925108     0.003047613004     1.007825032230
         H            3.092286460115     0.750863074892     0.895386613004     1.007825032230

  Basis Set: AUG-CC-PVTZ
    Blend: AUG-CC-PVTZ
  Basis Set: (AUG-CC-PVTZ AUX)
    Blend: AUG-CC-PVTZ-JKFIT
	 Reference Energy          =    -307.0999028876857437 [Eh]
	 Singles Energy            =      -0.0000000000000000 [Eh]
	 Same-Spin Energy          =      -0.2947416118630495 [Eh]
	 Opposite-Spin Energy      =      -1.0070082417107971 [Eh]
	 Correlation Energy        =      -1.3017498535738465 [Eh]
	 Total Energy              =    -308.4016527412595678 [Eh]

	 ================> DF-SCS-MP2 Energies <==================
	-----------------------------------------------------------
	 SCS Same-Spin Scale       =       0.3333333333333333 [-]
	 SCS Opposite-Spin Scale   =       1.2000000000000000 [-]
	 SCS Same-Spin Energy      =      -0.0982472039543498 [Eh]
	 SCS Opposite-Spin Energy  =      -1.2084098900529565 [Eh]
	 SCS Correlation Energy    =      -1.3066570940073063 [Eh]
	 SCS Total Energy          =    -308.4065599816930217 [Eh]
	-----------------------------------------------------------

  Dipole Moment: [D]
     X:     0.0424      Y:    -0.0292      Z:    -0.0420     Total:     0.0664

*** Psi4 exiting successfully. Buy a developer a beer!
