                               Psi4 1.4a3.dev225

  ==> Input File <==

--------------------------------------------------------------------------
#psi4
#
memory 32 gb

molecule  {
0 1
  O       -1.7104100     0.5323320    -0.0000080
  O        1.7104100    -0.5323320    -0.0000010
  C       -0.6421510    -0.4001880    -0.0000140
  C        0.6421510     0.4001890    -0.0000170
  C       -2.9687670    -0.1207390     0.0000150
  C        2.9687670     0.1207390     0.0000180
  H       -0.6766808    -1.0150738     0.9116003
  H       -0.6784560    -1.0464630    -0.8895800
  H        0.6784430     1.0464730     0.8895430
  H        0.6784570     1.0464550    -0.8895890
  H       -3.7295280     0.6607040     0.0000130
  H       -3.0932130    -0.7493130     0.8923640
  H       -3.0932330    -0.7493380    -0.8923130
  H        3.0932340     0.7493310    -0.8923150
  H        3.7295280    -0.6607040     0.0000230
  H        3.0932120     0.7493200     0.8923620
units angstrom
no_reorient  #important for SAPT in psi4, default
symmetry c1  #important for SAPT in psi4, default
}

set PROPERTIES_ORIGIN ["COM"]
properties('MP2/aug-cc-pvtz', properties = ['dipole'])
--------------------------------------------------------------------------

    Molecular point group: c1
  Charge       = 0
  Multiplicity = 1
  Basis Set: AUG-CC-PVTZ
    Blend: AUG-CC-PVTZ
  Basis Set: (AUG-CC-PVTZ AUX)
    Blend: AUG-CC-PVTZ-JKFIT

    Orbital Energies [Eh]
    ---------------------

    Doubly Occupied:

       1A    -20.558839     2A    -20.558295     3A    -11.272169
       4A    -11.271472     5A    -11.271442     6A    -11.271336
       7A     -1.379141     8A     -1.367528     9A     -1.024200
      10A     -0.933404    11A     -0.884365    12A     -0.828761
      13A     -0.688433    14A     -0.665803    15A     -0.653172
      16A     -0.642937    17A     -0.610291    18A     -0.593010
      19A     -0.575066    20A     -0.515733    21A     -0.503494
      22A     -0.489495    23A     -0.473476    24A     -0.427191
      25A     -0.425387

  @DF-RHF Final Energy:  -307.10026840942146

   => Energetics <=

    Nuclear Repulsion Energy =            252.6559294656952943
    One-Electron Energy =                -919.7435171197874979
    Two-Electron Energy =                 359.9873192446707435
    Total Energy =                       -307.1002684094214601
  Basis Set: (AUG-CC-PVTZ AUX)
    Blend: AUG-CC-PVTZ-RI
    Molecular point group: c1

    Geometry (in Angstrom), charge = 0, multiplicity = 1:

       Center              X                  Y                   Z               Mass
    ------------   -----------------  -----------------  -----------------  -----------------
         O           -1.710429729488     0.531980612058    -0.000254051032    15.994914619570
         O            1.710390270512    -0.532683387942    -0.000247051032    15.994914619570
         C           -0.642170729488    -0.400539387942    -0.000260051032    12.000000000000
         C            0.642131270512     0.399837612058    -0.000263051032    12.000000000000
         C           -2.968786729488    -0.121090387942    -0.000231051032    12.000000000000
         C            2.968747270512     0.120387612058    -0.000228051032    12.000000000000
         H           -0.676700529488    -1.015425187942     0.911354248968     1.007825032230
         H           -0.678475729488    -1.046814387942    -0.889826051032     1.007825032230
         H            0.678423270512     1.046121612058     0.889296948968     1.007825032230
         H            0.678437270512     1.046103612058    -0.889835051032     1.007825032230
         H           -3.729547729488     0.660352612058    -0.000233051032     1.007825032230
         H           -3.093232729488    -0.749664387942     0.892117948968     1.007825032230
         H           -3.093252729488    -0.749689387942    -0.892559051032     1.007825032230
         H            3.093214270512     0.748979612058    -0.892561051032     1.007825032230
         H            3.729508270512    -0.661055387942    -0.000223051032     1.007825032230
         H            3.093192270512     0.748968612058     0.892115948968     1.007825032230

  Basis Set: AUG-CC-PVTZ
    Blend: AUG-CC-PVTZ
  Basis Set: (AUG-CC-PVTZ AUX)
    Blend: AUG-CC-PVTZ-JKFIT
	 Reference Energy          =    -307.1002684094214601 [Eh]
	 Singles Energy            =      -0.0000000000000000 [Eh]
	 Same-Spin Energy          =      -0.2947410871098843 [Eh]
	 Opposite-Spin Energy      =      -1.0072110526942326 [Eh]
	 Correlation Energy        =      -1.3019521398041169 [Eh]
	 Total Energy              =    -308.4022205492256035 [Eh]

	 ================> DF-SCS-MP2 Energies <==================
	-----------------------------------------------------------
	 SCS Same-Spin Scale       =       0.3333333333333333 [-]
	 SCS Opposite-Spin Scale   =       1.2000000000000000 [-]
	 SCS Same-Spin Energy      =      -0.0982470290366281 [Eh]
	 SCS Opposite-Spin Energy  =      -1.2086532632330791 [Eh]
	 SCS Correlation Energy    =      -1.3069002922697073 [Eh]
	 SCS Total Energy          =    -308.4071687016911483 [Eh]
	-----------------------------------------------------------

  Dipole Moment: [D]
     X:     0.0055      Y:     0.0056      Z:    -0.0003     Total:     0.0079

*** Psi4 exiting successfully. Buy a developer a beer!
