                               Psi4 1.4a3.dev225

  ==> Input File <==

--------------------------------------------------------------------------
#psi4
#
memory 32 gb

molecule  {
0 1
  O       -1.7104100     0.5323320    -0.0000080
  O        1.7104100    -0.5323320    -0.0000010
  C       -0.6421510    -0.4001880    -0.0000140
  C        0.6421510     0.4001890    -0.0000170
  C       -2.9687670    -0.1207390     0.0000150
  C        2.9687670     0.1207390     0.0000180
  H       -0.6784440    -1.0464640     0.8895520
  H       -0.6784560    -1.0464630    -0.8895800
  H        0.6718453     0.9289822     0.7278260
  H        0.6784570     1.0464550    -0.8895890
  H       -3.7295280     0.6607040     0.0000130
  H       -3.0932130    -0.7493130     0.8923640
  H       -3.0932330    -0.7493380    -0.8923130
  H        3.0932340     0.7493310    -0.8923150
  H        3.7295280    -0.6607040     0.0000230
  H        3.0932120     0.7493200     0.8923620
units angstrom
no_reorient  #important for SAPT in psi4, default
symmetry c1  #important for SAPT in psi4, default
}

set PROPERTIES_ORIGIN ["COM"]
properties('MP2/aug-cc-pvtz', properties = ['dipole'])
--------------------------------------------------------------------------

    Molecular point group: c1
  Charge       = 0
  Multiplicity = 1
  Basis Set: AUG-CC-PVTZ
    Blend: AUG-CC-PVTZ
  Basis Set: (AUG-CC-PVTZ AUX)
    Blend: AUG-CC-PVTZ-JKFIT

    Orbital Energies [Eh]
    ---------------------

    Doubly Occupied:

       1A    -20.558755     2A    -20.555521     3A    -11.271366
       4A    -11.270932     5A    -11.270304     6A    -11.246900
       7A     -1.378861     8A     -1.366656     9A     -1.033165
      10A     -0.933954    11A     -0.890271    12A     -0.847867
      13A     -0.697669    14A     -0.668056    15A     -0.652899
      16A     -0.644309    17A     -0.616109    18A     -0.594035
      19A     -0.578421    20A     -0.522654    21A     -0.502750
      22A     -0.489458    23A     -0.475273    24A     -0.429717
      25A     -0.425332

  @DF-RHF Final Energy:  -307.06858565678061

   => Energetics <=

    Nuclear Repulsion Energy =            253.7075706721365691
    One-Electron Energy =                -921.7098443061585158
    Two-Electron Energy =                 360.9336879772413909
    Total Energy =                       -307.0685856567806127
  Basis Set: (AUG-CC-PVTZ AUX)
    Blend: AUG-CC-PVTZ-RI
    Molecular point group: c1

    Geometry (in Angstrom), charge = 0, multiplicity = 1:

       Center              X                  Y                   Z               Mass
    ------------   -----------------  -----------------  -----------------  -----------------
         O           -1.710336174431     0.533646529654     0.001802207637    15.994914619570
         O            1.710483825569    -0.531017470346     0.001809207637    15.994914619570
         C           -0.642077174431    -0.398873470346     0.001796207637    12.000000000000
         C            0.642224825569     0.401503529654     0.001793207637    12.000000000000
         C           -2.968693174431    -0.119424470346     0.001825207637    12.000000000000
         C            2.968840825569     0.122053529654     0.001828207637    12.000000000000
         H           -0.678370174431    -1.045149470346     0.891362207637     1.007825032230
         H           -0.678382174431    -1.045148470346    -0.887769792363     1.007825032230
         H            0.671919125569     0.930296729654     0.729636207637     1.007825032230
         H            0.678530825569     1.047769529654    -0.887778792363     1.007825032230
         H           -3.729454174431     0.662018529654     0.001823207637     1.007825032230
         H           -3.093139174431    -0.747998470346     0.894174207637     1.007825032230
         H           -3.093159174431    -0.748023470346    -0.890502792363     1.007825032230
         H            3.093307825569     0.750645529654    -0.890504792363     1.007825032230
         H            3.729601825569    -0.659389470346     0.001833207637     1.007825032230
         H            3.093285825569     0.750634529654     0.894172207637     1.007825032230

  Basis Set: AUG-CC-PVTZ
    Blend: AUG-CC-PVTZ
  Basis Set: (AUG-CC-PVTZ AUX)
    Blend: AUG-CC-PVTZ-JKFIT
	 Reference Energy          =    -307.0685856567806127 [Eh]
	 Singles Energy            =      -0.0000000000000000 [Eh]
	 Same-Spin Energy          =      -0.2945595445294623 [Eh]
	 Opposite-Spin Energy      =      -1.0062989451818880 [Eh]
	 Correlation Energy        =      -1.3008584897113502 [Eh]
	 Total Energy              =    -308.3694441464919578 [Eh]

	 ================> DF-SCS-MP2 Energies <==================
	-----------------------------------------------------------
	 SCS Same-Spin Scale       =       0.3333333333333333 [-]
	 SCS Opposite-Spin Scale   =       1.2000000000000000 [-]
	 SCS Same-Spin Energy      =      -0.0981865148431541 [Eh]
	 SCS Opposite-Spin Energy  =      -1.2075587342182657 [Eh]
	 SCS Correlation Energy    =      -1.3057452490614196 [Eh]
	 SCS Total Energy          =    -308.3743309058420436 [Eh]
	-----------------------------------------------------------

  Dipole Moment: [D]
     X:    -0.0178      Y:     0.0857      Z:     0.0771     Total:     0.1166

*** Psi4 exiting successfully. Buy a developer a beer!
