                               Psi4 1.4a3.dev225

  ==> Input File <==

--------------------------------------------------------------------------
#psi4
#
memory 32 gb

molecule  {
0 1
  O       -1.7104100     0.5323320    -0.0000080
  O        1.6679194    -0.4429626    -0.0000010
  C       -0.6421510    -0.4001880    -0.0000140
  C        0.6421510     0.4001890    -0.0000170
  C       -2.9687670    -0.1207390     0.0000150
  C        2.9687670     0.1207390     0.0000180
  H       -0.6784440    -1.0464640     0.8895520
  H       -0.6784560    -1.0464630    -0.8895800
  H        0.6784430     1.0464730     0.8895430
  H        0.6784570     1.0464550    -0.8895890
  H       -3.7295280     0.6607040     0.0000130
  H       -3.0932130    -0.7493130     0.8923640
  H       -3.0932330    -0.7493380    -0.8923130
  H        3.0932340     0.7493310    -0.8923150
  H        3.7295280    -0.6607040     0.0000230
  H        3.0932120     0.7493200     0.8923620
units angstrom
no_reorient  #important for SAPT in psi4, default
symmetry c1  #important for SAPT in psi4, default
}

set PROPERTIES_ORIGIN ["COM"]
properties('MP2/aug-cc-pvtz', properties = ['dipole'])
--------------------------------------------------------------------------

    Molecular point group: c1
  Charge       = 0
  Multiplicity = 1
  Basis Set: AUG-CC-PVTZ
    Blend: AUG-CC-PVTZ
  Basis Set: (AUG-CC-PVTZ AUX)
    Blend: AUG-CC-PVTZ-JKFIT

    Orbital Energies [Eh]
    ---------------------

    Doubly Occupied:

       1A    -20.556452     2A    -20.554125     3A    -11.277259
       4A    -11.269804     5A    -11.269110     6A    -11.263657
       7A     -1.403741     8A     -1.369778     9A     -1.026299
      10A     -0.941927    11A     -0.881907    12A     -0.826638
      13A     -0.694415    14A     -0.674900    15A     -0.661388
      16A     -0.646720    17A     -0.617153    18A     -0.595656
      19A     -0.573077    20A     -0.517543    21A     -0.516775
      22A     -0.487482    23A     -0.460397    24A     -0.424141
      25A     -0.415947

  @DF-RHF Final Energy:  -307.09706308320807

   => Energetics <=

    Nuclear Repulsion Energy =            254.5224369476227366
    One-Electron Energy =                -923.3864147641462523
    Two-Electron Energy =                 361.7669147333154456
    Total Energy =                       -307.0970630832080701
  Basis Set: (AUG-CC-PVTZ AUX)
    Blend: AUG-CC-PVTZ-RI
    Molecular point group: c1

    Geometry (in Angstrom), charge = 0, multiplicity = 1:

       Center              X                  Y                   Z               Mass
    ------------   -----------------  -----------------  -----------------  -----------------
         O           -1.702864224377     0.516461017323    -0.000007339558    15.994914619570
         O            1.675465175623    -0.458833582677    -0.000000339558    15.994914619570
         C           -0.634605224377    -0.416058982677    -0.000013339558    12.000000000000
         C            0.649696775623     0.384318017323    -0.000016339558    12.000000000000
         C           -2.961221224377    -0.136609982677     0.000015660442    12.000000000000
         C            2.976312775623     0.104868017323     0.000018660442    12.000000000000
         H           -0.670898224377    -1.062334982677     0.889552660442     1.007825032230
         H           -0.670910224377    -1.062333982677    -0.889579339558     1.007825032230
         H            0.685988775623     1.030602017323     0.889543660442     1.007825032230
         H            0.686002775623     1.030584017323    -0.889588339558     1.007825032230
         H           -3.721982224377     0.644833017323     0.000013660442     1.007825032230
         H           -3.085667224377    -0.765183982677     0.892364660442     1.007825032230
         H           -3.085687224377    -0.765208982677    -0.892312339558     1.007825032230
         H            3.100779775623     0.733460017323    -0.892314339558     1.007825032230
         H            3.737073775623    -0.676574982677     0.000023660442     1.007825032230
         H            3.100757775623     0.733449017323     0.892362660442     1.007825032230

  Basis Set: AUG-CC-PVTZ
    Blend: AUG-CC-PVTZ
  Basis Set: (AUG-CC-PVTZ AUX)
    Blend: AUG-CC-PVTZ-JKFIT
	 Reference Energy          =    -307.0970630832080701 [Eh]
	 Singles Energy            =      -0.0000000000000000 [Eh]
	 Same-Spin Energy          =      -0.2944242473898303 [Eh]
	 Opposite-Spin Energy      =      -1.0049064499982467 [Eh]
	 Correlation Energy        =      -1.2993306973880769 [Eh]
	 Total Energy              =    -308.3963937805961564 [Eh]

	 ================> DF-SCS-MP2 Energies <==================
	-----------------------------------------------------------
	 SCS Same-Spin Scale       =       0.3333333333333333 [-]
	 SCS Opposite-Spin Scale   =       1.2000000000000000 [-]
	 SCS Same-Spin Energy      =      -0.0981414157966101 [Eh]
	 SCS Opposite-Spin Energy  =      -1.2058877399978960 [Eh]
	 SCS Correlation Energy    =      -1.3040291557945061 [Eh]
	 SCS Total Energy          =    -308.4010922390025939 [Eh]
	-----------------------------------------------------------

  Dipole Moment: [D]
     X:     0.3204      Y:    -0.2620      Z:     0.0000     Total:     0.4139

*** Psi4 exiting successfully. Buy a developer a beer!
