                               Psi4 1.4a3.dev225

  ==> Input File <==

--------------------------------------------------------------------------
#psi4
#
memory 32 gb

molecule  {
0 1
  O       -1.7104100     0.5323320    -0.0000080
  O        1.7104100    -0.5323320    -0.0000010
  C       -0.6260390    -0.3814023    -0.0000144
  C        0.6421510     0.4001890    -0.0000170
  C       -2.9687670    -0.1207390     0.0000150
  C        2.9687670     0.1207390     0.0000180
  H       -0.6784440    -1.0464640     0.8895520
  H       -0.6784560    -1.0464630    -0.8895800
  H        0.6784430     1.0464730     0.8895430
  H        0.6784570     1.0464550    -0.8895890
  H       -3.7295280     0.6607040     0.0000130
  H       -3.0932130    -0.7493130     0.8923640
  H       -3.0932330    -0.7493380    -0.8923130
  H        3.0932340     0.7493310    -0.8923150
  H        3.7295280    -0.6607040     0.0000230
  H        3.0932120     0.7493200     0.8923620
units angstrom
no_reorient  #important for SAPT in psi4, default
symmetry c1  #important for SAPT in psi4, default
}

set PROPERTIES_ORIGIN ["COM"]
properties('MP2/aug-cc-pvtz', properties = ['dipole'])
--------------------------------------------------------------------------

    Molecular point group: c1
  Charge       = 0
  Multiplicity = 1
  Basis Set: AUG-CC-PVTZ
    Blend: AUG-CC-PVTZ
  Basis Set: (AUG-CC-PVTZ AUX)
    Blend: AUG-CC-PVTZ-JKFIT

    Orbital Energies [Eh]
    ---------------------

    Doubly Occupied:

       1A    -20.559576     2A    -20.558264     3A    -11.273014
       4A    -11.271918     5A    -11.271811     6A    -11.271394
       7A     -1.379583     8A     -1.367575     9A     -1.028474
      10A     -0.933992    11A     -0.885389    12A     -0.827387
      13A     -0.687283    14A     -0.667598    15A     -0.655368
      16A     -0.642016    17A     -0.610281    18A     -0.593106
      19A     -0.574519    20A     -0.511896    21A     -0.506830
      22A     -0.489510    23A     -0.477430    24A     -0.426628
      25A     -0.423533

  @DF-RHF Final Energy:  -307.09976430602762

   => Energetics <=

    Nuclear Repulsion Energy =            252.8417063455978564
    One-Electron Energy =                -920.0941877326440590
    Two-Electron Energy =                 360.1527170810185225
    Total Energy =                       -307.0997643060276232
  Basis Set: (AUG-CC-PVTZ AUX)
    Blend: AUG-CC-PVTZ-RI
    Molecular point group: c1

    Geometry (in Angstrom), charge = 0, multiplicity = 1:

       Center              X                  Y                   Z               Mass
    ------------   -----------------  -----------------  -----------------  -----------------
         O           -1.712556642861     0.529828988845    -0.000007286265    15.994914619570
         O            1.708263357139    -0.534835011155    -0.000000286265    15.994914619570
         C           -0.628185642861    -0.383905311155    -0.000013686265    12.000000000000
         C            0.640004357139     0.397685988845    -0.000016286265    12.000000000000
         C           -2.970913642861    -0.123242011155     0.000015713735    12.000000000000
         C            2.966620357139     0.118235988845     0.000018713735    12.000000000000
         H           -0.680590642861    -1.048967011155     0.889552713735     1.007825032230
         H           -0.680602642861    -1.048966011155    -0.889579286265     1.007825032230
         H            0.676296357139     1.043969988845     0.889543713735     1.007825032230
         H            0.676310357139     1.043951988845    -0.889588286265     1.007825032230
         H           -3.731674642861     0.658200988845     0.000013713735     1.007825032230
         H           -3.095359642861    -0.751816011155     0.892364713735     1.007825032230
         H           -3.095379642861    -0.751841011155    -0.892312286265     1.007825032230
         H            3.091087357139     0.746827988845    -0.892314286265     1.007825032230
         H            3.727381357139    -0.663207011155     0.000023713735     1.007825032230
         H            3.091065357139     0.746816988845     0.892362713735     1.007825032230

  Basis Set: AUG-CC-PVTZ
    Blend: AUG-CC-PVTZ
  Basis Set: (AUG-CC-PVTZ AUX)
    Blend: AUG-CC-PVTZ-JKFIT
	 Reference Energy          =    -307.0997643060276232 [Eh]
	 Singles Energy            =      -0.0000000000000000 [Eh]
	 Same-Spin Energy          =      -0.2948177093086414 [Eh]
	 Opposite-Spin Energy      =      -1.0071599526228314 [Eh]
	 Correlation Energy        =      -1.3019776619314727 [Eh]
	 Total Energy              =    -308.4017419679590830 [Eh]

	 ================> DF-SCS-MP2 Energies <==================
	-----------------------------------------------------------
	 SCS Same-Spin Scale       =       0.3333333333333333 [-]
	 SCS Opposite-Spin Scale   =       1.2000000000000000 [-]
	 SCS Same-Spin Energy      =      -0.0982725697695471 [Eh]
	 SCS Opposite-Spin Energy  =      -1.2085919431473977 [Eh]
	 SCS Correlation Energy    =      -1.3068645129169447 [Eh]
	 SCS Total Energy          =    -308.4066288189445686 [Eh]
	-----------------------------------------------------------

  Dipole Moment: [D]
     X:     0.0207      Y:     0.0245      Z:     0.0000     Total:     0.0321

*** Psi4 exiting successfully. Buy a developer a beer!
