                               Psi4 1.4a3.dev225

  ==> Input File <==

--------------------------------------------------------------------------
#psi4
#
memory 32 gb

molecule  {
0 1
  O       -1.7104100     0.5323320    -0.0000080
  O        1.7339684    -0.5758502    -0.0000010
  C       -0.6421510    -0.4001880    -0.0000140
  C        0.6421510     0.4001890    -0.0000170
  C       -2.9687670    -0.1207390     0.0000150
  C        2.9687670     0.1207390     0.0000180
  H       -0.6784440    -1.0464640     0.8895520
  H       -0.6784560    -1.0464630    -0.8895800
  H        0.6784430     1.0464730     0.8895430
  H        0.6784570     1.0464550    -0.8895890
  H       -3.7295280     0.6607040     0.0000130
  H       -3.0932130    -0.7493130     0.8923640
  H       -3.0932330    -0.7493380    -0.8923130
  H        3.0932340     0.7493310    -0.8923150
  H        3.7295280    -0.6607040     0.0000230
  H        3.0932120     0.7493200     0.8923620
units angstrom
no_reorient  #important for SAPT in psi4, default
symmetry c1  #important for SAPT in psi4, default
}

set PROPERTIES_ORIGIN ["COM"]
properties('MP2/aug-cc-pvtz', properties = ['dipole'])
--------------------------------------------------------------------------

    Molecular point group: c1
  Charge       = 0
  Multiplicity = 1
  Basis Set: AUG-CC-PVTZ
    Blend: AUG-CC-PVTZ
  Basis Set: (AUG-CC-PVTZ AUX)
    Blend: AUG-CC-PVTZ-JKFIT

    Orbital Energies [Eh]
    ---------------------

    Doubly Occupied:

       1A    -20.560824     2A    -20.559962     3A    -11.276261
       4A    -11.273239     5A    -11.272260     6A    -11.269109
       7A     -1.376566     8A     -1.359085     9A     -1.023763
      10A     -0.929560    11A     -0.885789    12A     -0.830928
      13A     -0.685234    14A     -0.663652    15A     -0.650057
      16A     -0.640277    17A     -0.608772    18A     -0.590286
      19A     -0.575332    20A     -0.514083    21A     -0.499637
      22A     -0.488825    23A     -0.479300    24A     -0.430262
      25A     -0.426559

  @DF-RHF Final Energy:  -307.09642237653622

   => Energetics <=

    Nuclear Repulsion Energy =            251.7112158950804144
    One-Electron Energy =                -917.8760299512837264
    Two-Electron Energy =                 359.0683916796671156
    Total Energy =                       -307.0964223765362249
  Basis Set: (AUG-CC-PVTZ AUX)
    Blend: AUG-CC-PVTZ-RI
    Molecular point group: c1

    Geometry (in Angstrom), charge = 0, multiplicity = 1:

       Center              X                  Y                   Z               Mass
    ------------   -----------------  -----------------  -----------------  -----------------
         O           -1.714593664162     0.540060119540    -0.000007339558    15.994914619570
         O            1.729784735838    -0.568122080460    -0.000000339558    15.994914619570
         C           -0.646334664162    -0.392459880460    -0.000013339558    12.000000000000
         C            0.637967335838     0.407917119540    -0.000016339558    12.000000000000
         C           -2.972950664162    -0.113010880460     0.000015660442    12.000000000000
         C            2.964583335838     0.128467119540     0.000018660442    12.000000000000
         H           -0.682627664162    -1.038735880460     0.889552660442     1.007825032230
         H           -0.682639664162    -1.038734880460    -0.889579339558     1.007825032230
         H            0.674259335838     1.054201119540     0.889543660442     1.007825032230
         H            0.674273335838     1.054183119540    -0.889588339558     1.007825032230
         H           -3.733711664162     0.668432119540     0.000013660442     1.007825032230
         H           -3.097396664162    -0.741584880460     0.892364660442     1.007825032230
         H           -3.097416664162    -0.741609880460    -0.892312339558     1.007825032230
         H            3.089050335838     0.757059119540    -0.892314339558     1.007825032230
         H            3.725344335838    -0.652975880460     0.000023660442     1.007825032230
         H            3.089028335838     0.757048119540     0.892362660442     1.007825032230

  Basis Set: AUG-CC-PVTZ
    Blend: AUG-CC-PVTZ
  Basis Set: (AUG-CC-PVTZ AUX)
    Blend: AUG-CC-PVTZ-JKFIT
	 Reference Energy          =    -307.0964223765362249 [Eh]
	 Singles Energy            =      -0.0000000000000000 [Eh]
	 Same-Spin Energy          =      -0.2950492460653389 [Eh]
	 Opposite-Spin Energy      =      -1.0086525470568573 [Eh]
	 Correlation Energy        =      -1.3037017931221961 [Eh]
	 Total Energy              =    -308.4001241696583975 [Eh]

	 ================> DF-SCS-MP2 Energies <==================
	-----------------------------------------------------------
	 SCS Same-Spin Scale       =       0.3333333333333333 [-]
	 SCS Opposite-Spin Scale   =       1.2000000000000000 [-]
	 SCS Same-Spin Energy      =      -0.0983497486884463 [Eh]
	 SCS Opposite-Spin Energy  =      -1.2103830564682287 [Eh]
	 SCS Correlation Energy    =      -1.3087328051566751 [Eh]
	 SCS Total Energy          =    -308.4051551816929191 [Eh]
	-----------------------------------------------------------

  Dipole Moment: [D]
     X:    -0.1463      Y:     0.1154      Z:     0.0000     Total:     0.1863

*** Psi4 exiting successfully. Buy a developer a beer!
