                               Psi4 1.4a3.dev225

  ==> Input File <==

--------------------------------------------------------------------------
#psi4
#
memory 32 gb

molecule  {
0 1
  O       -1.7104100     0.5323320    -0.0000080
  O        1.7104100    -0.5323320    -0.0000010
  C       -0.6421510    -0.4001880    -0.0000140
  C        0.6421510     0.4001890    -0.0000170
  C       -2.9687670    -0.1207390     0.0000150
  C        2.9687670     0.1207390     0.0000180
  H       -0.6784440    -1.0464640     0.8895520
  H       -0.6784560    -1.0464630    -0.8895800
  H        0.6791028     1.0582221     0.9057147
  H        0.6784570     1.0464550    -0.8895890
  H       -3.7295280     0.6607040     0.0000130
  H       -3.0932130    -0.7493130     0.8923640
  H       -3.0932330    -0.7493380    -0.8923130
  H        3.0932340     0.7493310    -0.8923150
  H        3.7295280    -0.6607040     0.0000230
  H        3.0932120     0.7493200     0.8923620
units angstrom
no_reorient  #important for SAPT in psi4, default
symmetry c1  #important for SAPT in psi4, default
}

set PROPERTIES_ORIGIN ["COM"]
properties('MP2/aug-cc-pvtz', properties = ['dipole'])
--------------------------------------------------------------------------

    Molecular point group: c1
  Charge       = 0
  Multiplicity = 1
  Basis Set: AUG-CC-PVTZ
    Blend: AUG-CC-PVTZ
  Basis Set: (AUG-CC-PVTZ AUX)
    Blend: AUG-CC-PVTZ-JKFIT

    Orbital Energies [Eh]
    ---------------------

    Doubly Occupied:

       1A    -20.559256     2A    -20.558836     3A    -11.274388
       4A    -11.272078     5A    -11.271530     6A    -11.271476
       7A     -1.379297     8A     -1.367758     9A     -1.023571
      10A     -0.933461    11A     -0.884264    12A     -0.828185
      13A     -0.686537    14A     -0.666204    15A     -0.653395
      16A     -0.642526    17A     -0.610728    18A     -0.593084
      19A     -0.573866    20A     -0.513862    21A     -0.503667
      22A     -0.489811    23A     -0.474631    24A     -0.426632
      25A     -0.425140

  @DF-RHF Final Energy:  -307.09979534298310

   => Energetics <=

    Nuclear Repulsion Energy =            252.5386119213456482
    One-Electron Energy =                -919.5084518740445674
    Two-Electron Energy =                 359.8700446097158760
    Total Energy =                       -307.0997953429831000
  Basis Set: (AUG-CC-PVTZ AUX)
    Blend: AUG-CC-PVTZ-RI
    Molecular point group: c1

    Geometry (in Angstrom), charge = 0, multiplicity = 1:

       Center              X                  Y                   Z               Mass
    ------------   -----------------  -----------------  -----------------  -----------------
         O           -1.710417382893     0.532200387946    -0.000188294278    15.994914619570
         O            1.710402617107    -0.532463612054    -0.000181294278    15.994914619570
         C           -0.642158382893    -0.400319612054    -0.000194294278    12.000000000000
         C            0.642143617107     0.400057387946    -0.000197294278    12.000000000000
         C           -2.968774382893    -0.120870612054    -0.000165294278    12.000000000000
         C            2.968759617107     0.120607387946    -0.000162294278    12.000000000000
         H           -0.678451382893    -1.046595612054     0.889371705722     1.007825032230
         H           -0.678463382893    -1.046594612054    -0.889760294278     1.007825032230
         H            0.679095417107     1.058090487946     0.905534405722     1.007825032230
         H            0.678449617107     1.046323387946    -0.889769294278     1.007825032230
         H           -3.729535382893     0.660572387946    -0.000167294278     1.007825032230
         H           -3.093220382893    -0.749444612054     0.892183705722     1.007825032230
         H           -3.093240382893    -0.749469612054    -0.892493294278     1.007825032230
         H            3.093226617107     0.749199387946    -0.892495294278     1.007825032230
         H            3.729520617107    -0.660835612054    -0.000157294278     1.007825032230
         H            3.093204617107     0.749188387946     0.892181705722     1.007825032230

  Basis Set: AUG-CC-PVTZ
    Blend: AUG-CC-PVTZ
  Basis Set: (AUG-CC-PVTZ AUX)
    Blend: AUG-CC-PVTZ-JKFIT
	 Reference Energy          =    -307.0997953429831000 [Eh]
	 Singles Energy            =      -0.0000000000000000 [Eh]
	 Same-Spin Energy          =      -0.2947691619296834 [Eh]
	 Opposite-Spin Energy      =      -1.0073347220812026 [Eh]
	 Correlation Energy        =      -1.3021038840108861 [Eh]
	 Total Energy              =    -308.4018992269939758 [Eh]

	 ================> DF-SCS-MP2 Energies <==================
	-----------------------------------------------------------
	 SCS Same-Spin Scale       =       0.3333333333333333 [-]
	 SCS Opposite-Spin Scale   =       1.2000000000000000 [-]
	 SCS Same-Spin Energy      =      -0.0982563873098945 [Eh]
	 SCS Opposite-Spin Energy  =      -1.2088016664974430 [Eh]
	 SCS Correlation Energy    =      -1.3070580538073375 [Eh]
	 SCS Total Energy          =    -308.4068533967904386 [Eh]
	-----------------------------------------------------------

  Dipole Moment: [D]
     X:     0.0021      Y:    -0.0119      Z:    -0.0114     Total:     0.0166

*** Psi4 exiting successfully. Buy a developer a beer!
