                               Psi4 1.4a3.dev225

  ==> Input File <==

--------------------------------------------------------------------------
#psi4
#
memory 32 gb

molecule  {
0 1
  O       -1.7104100     0.5323320    -0.0000080
  O        1.7104100    -0.5323320    -0.0000010
  C       -0.6421510    -0.4001880    -0.0000140
  C        0.6421510     0.4001890    -0.0000170
  C       -2.9687670    -0.1207390     0.0000150
  C        2.9687670     0.1207390     0.0000180
  H       -0.6730303    -0.9500850     0.9523395
  H       -0.6784560    -1.0464630    -0.8895800
  H        0.6784430     1.0464730     0.8895430
  H        0.6784570     1.0464550    -0.8895890
  H       -3.7295280     0.6607040     0.0000130
  H       -3.0932130    -0.7493130     0.8923640
  H       -3.0932330    -0.7493380    -0.8923130
  H        3.0932340     0.7493310    -0.8923150
  H        3.7295280    -0.6607040     0.0000230
  H        3.0932120     0.7493200     0.8923620
units angstrom
no_reorient  #important for SAPT in psi4, default
symmetry c1  #important for SAPT in psi4, default
}

set PROPERTIES_ORIGIN ["COM"]
properties('MP2/aug-cc-pvtz', properties = ['dipole'])
--------------------------------------------------------------------------

    Molecular point group: c1
  Charge       = 0
  Multiplicity = 1
  Basis Set: AUG-CC-PVTZ
    Blend: AUG-CC-PVTZ
  Basis Set: (AUG-CC-PVTZ AUX)
    Blend: AUG-CC-PVTZ-JKFIT

    Orbital Energies [Eh]
    ---------------------

    Doubly Occupied:

       1A    -20.558906     2A    -20.557249     3A    -11.272167
       4A    -11.271507     5A    -11.271113     6A    -11.271102
       7A     -1.379087     8A     -1.367387     9A     -1.024602
      10A     -0.933373    11A     -0.884138    12A     -0.827132
      13A     -0.690952    14A     -0.664756    15A     -0.652919
      16A     -0.643448    17A     -0.608684    18A     -0.592718
      19A     -0.576390    20A     -0.517493    21A     -0.503382
      22A     -0.489042    23A     -0.470902    24A     -0.427430
      25A     -0.425503

  @DF-RHF Final Energy:  -307.09906908018974

   => Energetics <=

    Nuclear Repulsion Energy =            252.7064111741861154
    One-Electron Energy =                -919.8481987695090538
    Two-Electron Energy =                 360.0427185151332310
    Total Energy =                       -307.0990690801897358
  Basis Set: (AUG-CC-PVTZ AUX)
    Blend: AUG-CC-PVTZ-RI
    Molecular point group: c1

    Geometry (in Angstrom), charge = 0, multiplicity = 1:

       Center              X                  Y                   Z               Mass
    ------------   -----------------  -----------------  -----------------  -----------------
         O           -1.710470577092     0.531253413923    -0.000709906045    15.994914619570
         O            1.710349422908    -0.533410586077    -0.000702906045    15.994914619570
         C           -0.642211577092    -0.401266586077    -0.000715906045    12.000000000000
         C            0.642090422908     0.399110413923    -0.000718906045    12.000000000000
         C           -2.968827577092    -0.121817586077    -0.000686906045    12.000000000000
         C            2.968706422908     0.119660413923    -0.000683906045    12.000000000000
         H           -0.673090877092    -0.951163586077     0.951637593955     1.007825032230
         H           -0.678516577092    -1.047541586077    -0.890281906045     1.007825032230
         H            0.678382422908     1.045394413923     0.888841093955     1.007825032230
         H            0.678396422908     1.045376413923    -0.890290906045     1.007825032230
         H           -3.729588577092     0.659625413923    -0.000688906045     1.007825032230
         H           -3.093273577092    -0.750391586077     0.891662093955     1.007825032230
         H           -3.093293577092    -0.750416586077    -0.893014906045     1.007825032230
         H            3.093173422908     0.748252413923    -0.893016906045     1.007825032230
         H            3.729467422908    -0.661782586077    -0.000678906045     1.007825032230
         H            3.093151422908     0.748241413923     0.891660093955     1.007825032230

  Basis Set: AUG-CC-PVTZ
    Blend: AUG-CC-PVTZ
  Basis Set: (AUG-CC-PVTZ AUX)
    Blend: AUG-CC-PVTZ-JKFIT
	 Reference Energy          =    -307.0990690801897358 [Eh]
	 Singles Energy            =      -0.0000000000000000 [Eh]
	 Same-Spin Energy          =      -0.2947913559312649 [Eh]
	 Opposite-Spin Energy      =      -1.0073481996951277 [Eh]
	 Correlation Energy        =      -1.3021395556263926 [Eh]
	 Total Energy              =    -308.4012086358161469 [Eh]

	 ================> DF-SCS-MP2 Energies <==================
	-----------------------------------------------------------
	 SCS Same-Spin Scale       =       0.3333333333333333 [-]
	 SCS Opposite-Spin Scale   =       1.2000000000000000 [-]
	 SCS Same-Spin Energy      =      -0.0982637853104216 [Eh]
	 SCS Opposite-Spin Energy  =      -1.2088178396341531 [Eh]
	 SCS Correlation Energy    =      -1.3070816249445747 [Eh]
	 SCS Total Energy          =    -308.4061507051343369 [Eh]
	-----------------------------------------------------------

  Dipole Moment: [D]
     X:     0.0166      Y:     0.0170      Z:    -0.0028     Total:     0.0239

*** Psi4 exiting successfully. Buy a developer a beer!
