                               Psi4 1.4a3.dev225

  ==> Input File <==

--------------------------------------------------------------------------
#psi4
#
memory 32 gb

molecule  {
0 1
  O       -1.7104100     0.5323320    -0.0000080
  O        1.7104100    -0.5323320    -0.0000010
  C       -0.6421510    -0.4001880    -0.0000140
  C        0.8118878     0.5059690    -0.0000174
  C       -2.9687670    -0.1207390     0.0000150
  C        2.9687670     0.1207390     0.0000180
  H       -0.6784440    -1.0464640     0.8895520
  H       -0.6784560    -1.0464630    -0.8895800
  H        0.6784430     1.0464730     0.8895430
  H        0.6784570     1.0464550    -0.8895890
  H       -3.7295280     0.6607040     0.0000130
  H       -3.0932130    -0.7493130     0.8923640
  H       -3.0932330    -0.7493380    -0.8923130
  H        3.0932340     0.7493310    -0.8923150
  H        3.7295280    -0.6607040     0.0000230
  H        3.0932120     0.7493200     0.8923620
units angstrom
no_reorient  #important for SAPT in psi4, default
symmetry c1  #important for SAPT in psi4, default
}

set PROPERTIES_ORIGIN ["COM"]
properties('MP2/aug-cc-pvtz', properties = ['dipole'])
--------------------------------------------------------------------------

    Molecular point group: c1
  Charge       = 0
  Multiplicity = 1
  Basis Set: AUG-CC-PVTZ
    Blend: AUG-CC-PVTZ
  Basis Set: (AUG-CC-PVTZ AUX)
    Blend: AUG-CC-PVTZ-JKFIT

    Orbital Energies [Eh]
    ---------------------

    Doubly Occupied:

       1A    -20.569249     2A    -20.553125     3A    -11.273651
       4A    -11.271959     5A    -11.271405     6A    -11.267466
       7A     -1.398994     8A     -1.365002     9A     -0.996665
      10A     -0.933085    11A     -0.883836    12A     -0.837069
      13A     -0.694178    14A     -0.666618    15A     -0.648149
      16A     -0.646916    17A     -0.616989    18A     -0.594472
      19A     -0.574137    20A     -0.527133    21A     -0.513453
      22A     -0.487750    23A     -0.441458    24A     -0.420141
      25A     -0.413855

  @DF-RHF Final Energy:  -307.06502355640174

   => Energetics <=

    Nuclear Repulsion Energy =            251.5146290201973045
    One-Electron Energy =                -917.4257934445859064
    Two-Electron Energy =                 358.8461408679868896
    Total Energy =                       -307.0650235564017407
  Basis Set: (AUG-CC-PVTZ AUX)
    Blend: AUG-CC-PVTZ-RI
    Molecular point group: c1

    Geometry (in Angstrom), charge = 0, multiplicity = 1:

       Center              X                  Y                   Z               Mass
    ------------   -----------------  -----------------  -----------------  -----------------
         O           -1.733024466856     0.518238516337    -0.000007286265    15.994914619570
         O            1.687795533144    -0.546425483663    -0.000000286265    15.994914619570
         C           -0.664765466856    -0.414281483663    -0.000013286265    12.000000000000
         C            0.789273333144     0.491875516337    -0.000016686265    12.000000000000
         C           -2.991381466856    -0.134832483663     0.000015713735    12.000000000000
         C            2.946152533144     0.106645516337     0.000018713735    12.000000000000
         H           -0.701058466856    -1.060557483663     0.889552713735     1.007825032230
         H           -0.701070466856    -1.060556483663    -0.889579286265     1.007825032230
         H            0.655828533144     1.032379516337     0.889543713735     1.007825032230
         H            0.655842533144     1.032361516337    -0.889588286265     1.007825032230
         H           -3.752142466856     0.646610516337     0.000013713735     1.007825032230
         H           -3.115827466856    -0.763406483663     0.892364713735     1.007825032230
         H           -3.115847466856    -0.763431483663    -0.892312286265     1.007825032230
         H            3.070619533144     0.735237516337    -0.892314286265     1.007825032230
         H            3.706913533144    -0.674797483663     0.000023713735     1.007825032230
         H            3.070597533144     0.735226516337     0.892362713735     1.007825032230

  Basis Set: AUG-CC-PVTZ
    Blend: AUG-CC-PVTZ
  Basis Set: (AUG-CC-PVTZ AUX)
    Blend: AUG-CC-PVTZ-JKFIT
	 Reference Energy          =    -307.0650235564017407 [Eh]
	 Singles Energy            =      -0.0000000000000000 [Eh]
	 Same-Spin Energy          =      -0.2959931966422675 [Eh]
	 Opposite-Spin Energy      =      -1.0100922349995411 [Eh]
	 Correlation Energy        =      -1.3060854316418087 [Eh]
	 Total Energy              =    -308.3711089880435452 [Eh]

	 ================> DF-SCS-MP2 Energies <==================
	-----------------------------------------------------------
	 SCS Same-Spin Scale       =       0.3333333333333333 [-]
	 SCS Opposite-Spin Scale   =       1.2000000000000000 [-]
	 SCS Same-Spin Energy      =      -0.0986643988807558 [Eh]
	 SCS Opposite-Spin Energy  =      -1.2121106819994494 [Eh]
	 SCS Correlation Energy    =      -1.3107750808802052 [Eh]
	 SCS Total Energy          =    -308.3757986372819460 [Eh]
	-----------------------------------------------------------

  Dipole Moment: [D]
     X:     0.3269      Y:     0.0477      Z:     0.0000     Total:     0.3304

*** Psi4 exiting successfully. Buy a developer a beer!
