                               Psi4 1.4a3.dev225

  ==> Input File <==

--------------------------------------------------------------------------
#psi4
#
memory 32 gb

molecule  {
0 1
  O       -1.7104100     0.5323320    -0.0000080
  O        1.7104100    -0.5323320    -0.0000010
  C       -0.6421510    -0.4001880    -0.0000140
  C        0.6845852     0.4266340    -0.0000171
  C       -2.9687670    -0.1207390     0.0000150
  C        2.9687670     0.1207390     0.0000180
  H       -0.6784440    -1.0464640     0.8895520
  H       -0.6784560    -1.0464630    -0.8895800
  H        0.6784430     1.0464730     0.8895430
  H        0.6784570     1.0464550    -0.8895890
  H       -3.7295280     0.6607040     0.0000130
  H       -3.0932130    -0.7493130     0.8923640
  H       -3.0932330    -0.7493380    -0.8923130
  H        3.0932340     0.7493310    -0.8923150
  H        3.7295280    -0.6607040     0.0000230
  H        3.0932120     0.7493200     0.8923620
units angstrom
no_reorient  #important for SAPT in psi4, default
symmetry c1  #important for SAPT in psi4, default
}

set PROPERTIES_ORIGIN ["COM"]
properties('MP2/aug-cc-pvtz', properties = ['dipole'])
--------------------------------------------------------------------------

    Molecular point group: c1
  Charge       = 0
  Multiplicity = 1
  Basis Set: AUG-CC-PVTZ
    Blend: AUG-CC-PVTZ
  Basis Set: (AUG-CC-PVTZ AUX)
    Blend: AUG-CC-PVTZ-JKFIT

    Orbital Energies [Eh]
    ---------------------

    Doubly Occupied:

       1A    -20.561387     2A    -20.557249     3A    -11.272248
       4A    -11.271853     5A    -11.270620     6A    -11.270420
       7A     -1.382525     8A     -1.368619     9A     -1.015543
      10A     -0.933504    11A     -0.883418    12A     -0.832407
      13A     -0.687771    14A     -0.665654    15A     -0.650934
      16A     -0.644542    17A     -0.613768    18A     -0.593646
      19A     -0.573749    20A     -0.519115    21A     -0.502466
      22A     -0.490938    23A     -0.462743    24A     -0.430668
      25A     -0.424236

  @DF-RHF Final Energy:  -307.09787029394670

   => Energetics <=

    Nuclear Repulsion Energy =            252.3427920470569461
    One-Electron Energy =                -919.1212770642686110
    Two-Electron Energy =                 359.6806147232649664
    Total Energy =                       -307.0978702939466984
  Basis Set: (AUG-CC-PVTZ AUX)
    Blend: AUG-CC-PVTZ-RI
    Molecular point group: c1

    Geometry (in Angstrom), charge = 0, multiplicity = 1:

       Center              X                  Y                   Z               Mass
    ------------   -----------------  -----------------  -----------------  -----------------
         O           -1.716063616714     0.528808520768    -0.000007326235    15.994914619570
         O            1.704756383286    -0.535855479232    -0.000000326235    15.994914619570
         C           -0.647804616714    -0.403711479232    -0.000013326235    12.000000000000
         C            0.678931583286     0.423110520768    -0.000016426235    12.000000000000
         C           -2.974420616714    -0.124262479232     0.000015673765    12.000000000000
         C            2.963113383286     0.117215520768     0.000018673765    12.000000000000
         H           -0.684097616714    -1.049987479232     0.889552673765     1.007825032230
         H           -0.684109616714    -1.049986479232    -0.889579326235     1.007825032230
         H            0.672789383286     1.042949520768     0.889543673765     1.007825032230
         H            0.672803383286     1.042931520768    -0.889588326235     1.007825032230
         H           -3.735181616714     0.657180520768     0.000013673765     1.007825032230
         H           -3.098866616714    -0.752836479232     0.892364673765     1.007825032230
         H           -3.098886616714    -0.752861479232    -0.892312326235     1.007825032230
         H            3.087580383286     0.745807520768    -0.892314326235     1.007825032230
         H            3.723874383286    -0.664227479232     0.000023673765     1.007825032230
         H            3.087558383286     0.745796520768     0.892362673765     1.007825032230

  Basis Set: AUG-CC-PVTZ
    Blend: AUG-CC-PVTZ
  Basis Set: (AUG-CC-PVTZ AUX)
    Blend: AUG-CC-PVTZ-JKFIT
	 Reference Energy          =    -307.0978702939466984 [Eh]
	 Singles Energy            =      -0.0000000000000000 [Eh]
	 Same-Spin Energy          =      -0.2947230462897139 [Eh]
	 Opposite-Spin Energy      =      -1.0072856506795718 [Eh]
	 Correlation Energy        =      -1.3020086969692857 [Eh]
	 Total Energy              =    -308.3998789909159655 [Eh]

	 ================> DF-SCS-MP2 Energies <==================
	-----------------------------------------------------------
	 SCS Same-Spin Scale       =       0.3333333333333333 [-]
	 SCS Opposite-Spin Scale   =       1.2000000000000000 [-]
	 SCS Same-Spin Energy      =      -0.0982410154299046 [Eh]
	 SCS Opposite-Spin Energy  =      -1.2087427808154860 [Eh]
	 SCS Correlation Energy    =      -1.3069837962453907 [Eh]
	 SCS Total Energy          =    -308.4048540901920887 [Eh]
	-----------------------------------------------------------

  Dipole Moment: [D]
     X:     0.0901      Y:     0.0173      Z:     0.0000     Total:     0.0917

*** Psi4 exiting successfully. Buy a developer a beer!
