                               Psi4 1.4a3.dev225

  ==> Input File <==

--------------------------------------------------------------------------
#psi4
#
memory 32 gb

molecule  {
0 1
  O       -1.7104100     0.5323320    -0.0000080
  O        1.7104100    -0.5323320    -0.0000010
  C       -0.5797039    -0.3233984    -0.0000155
  C        0.6421510     0.4001890    -0.0000170
  C       -2.9687670    -0.1207390     0.0000150
  C        2.9687670     0.1207390     0.0000180
  H       -0.6784440    -1.0464640     0.8895520
  H       -0.6784560    -1.0464630    -0.8895800
  H        0.6784430     1.0464730     0.8895430
  H        0.6784570     1.0464550    -0.8895890
  H       -3.7295280     0.6607040     0.0000130
  H       -3.0932130    -0.7493130     0.8923640
  H       -3.0932330    -0.7493380    -0.8923130
  H        3.0932340     0.7493310    -0.8923150
  H        3.7295280    -0.6607040     0.0000230
  H        3.0932120     0.7493200     0.8923620
units angstrom
no_reorient  #important for SAPT in psi4, default
symmetry c1  #important for SAPT in psi4, default
}

set PROPERTIES_ORIGIN ["COM"]
properties('MP2/aug-cc-pvtz', properties = ['dipole'])
--------------------------------------------------------------------------

    Molecular point group: c1
  Charge       = 0
  Multiplicity = 1
  Basis Set: AUG-CC-PVTZ
    Blend: AUG-CC-PVTZ
  Basis Set: (AUG-CC-PVTZ AUX)
    Blend: AUG-CC-PVTZ-JKFIT

    Orbital Energies [Eh]
    ---------------------

    Doubly Occupied:

       1A    -20.562042     2A    -20.557028     3A    -11.277062
       4A    -11.273329     5A    -11.273198     6A    -11.269970
       7A     -1.381527     8A     -1.367281     9A     -1.043750
      10A     -0.935859    11A     -0.889161    12A     -0.819847
      13A     -0.688716    14A     -0.671699    15A     -0.662396
      16A     -0.640125    17A     -0.608019    18A     -0.592448
      19A     -0.575864    20A     -0.520288    21A     -0.503195
      22A     -0.490981    23A     -0.477201    24A     -0.428688
      25A     -0.413804

  @DF-RHF Final Energy:  -307.08884133594938

   => Energetics <=

    Nuclear Repulsion Energy =            253.4904792693785964
    One-Electron Energy =                -921.3116841043433851
    Two-Electron Energy =                 360.7323634990153778
    Total Energy =                       -307.0888413359493825
  Basis Set: (AUG-CC-PVTZ AUX)
    Blend: AUG-CC-PVTZ-RI
    Molecular point group: c1

    Geometry (in Angstrom), charge = 0, multiplicity = 1:

       Center              X                  Y                   Z               Mass
    ------------   -----------------  -----------------  -----------------  -----------------
         O           -1.718729986433     0.522100981283    -0.000007139709    15.994914619570
         O            1.702090013567    -0.542563018717    -0.000000139709    15.994914619570
         C           -0.588023886433    -0.333629418717    -0.000014639709    12.000000000000
         C            0.633831013567     0.389957981283    -0.000016139709    12.000000000000
         C           -2.977086986433    -0.130970018717     0.000015860291    12.000000000000
         C            2.960447013567     0.110507981283     0.000018860291    12.000000000000
         H           -0.686763986433    -1.056695018717     0.889552860291     1.007825032230
         H           -0.686775986433    -1.056694018717    -0.889579139709     1.007825032230
         H            0.670123013567     1.036241981283     0.889543860291     1.007825032230
         H            0.670137013567     1.036223981283    -0.889588139709     1.007825032230
         H           -3.737847986433     0.650472981283     0.000013860291     1.007825032230
         H           -3.101532986433    -0.759544018717     0.892364860291     1.007825032230
         H           -3.101552986433    -0.759569018717    -0.892312139709     1.007825032230
         H            3.084914013567     0.739099981283    -0.892314139709     1.007825032230
         H            3.721208013567    -0.670935018717     0.000023860291     1.007825032230
         H            3.084892013567     0.739088981283     0.892362860291     1.007825032230

  Basis Set: AUG-CC-PVTZ
    Blend: AUG-CC-PVTZ
  Basis Set: (AUG-CC-PVTZ AUX)
    Blend: AUG-CC-PVTZ-JKFIT
	 Reference Energy          =    -307.0888413359493825 [Eh]
	 Singles Energy            =      -0.0000000000000000 [Eh]
	 Same-Spin Energy          =      -0.2953806125414413 [Eh]
	 Opposite-Spin Energy      =      -1.0077145501170877 [Eh]
	 Correlation Energy        =      -1.3030951626585290 [Eh]
	 Total Energy              =    -308.3919364986078904 [Eh]

	 ================> DF-SCS-MP2 Energies <==================
	-----------------------------------------------------------
	 SCS Same-Spin Scale       =       0.3333333333333333 [-]
	 SCS Opposite-Spin Scale   =       1.2000000000000000 [-]
	 SCS Same-Spin Energy      =      -0.0984602041804804 [Eh]
	 SCS Opposite-Spin Energy  =      -1.2092574601405051 [Eh]
	 SCS Correlation Energy    =      -1.3077176643209856 [Eh]
	 SCS Total Energy          =    -308.3965590002703721 [Eh]
	-----------------------------------------------------------

  Dipole Moment: [D]
     X:     0.0792      Y:     0.1108      Z:     0.0000     Total:     0.1361

*** Psi4 exiting successfully. Buy a developer a beer!
