                               Psi4 1.4a3.dev225

  ==> Input File <==

--------------------------------------------------------------------------
#psi4
#
memory 32 gb

molecule  {
0 1
  O       -1.7104100     0.5323320    -0.0000080
  O        1.7104100    -0.5323320    -0.0000010
  C       -0.6421510    -0.4001880    -0.0000140
  C        0.6421510     0.4001890    -0.0000170
  C       -2.9687670    -0.1207390     0.0000150
  C        2.9687670     0.1207390     0.0000180
  H       -0.6784440    -1.0464640     0.8895520
  H       -0.6784560    -1.0464630    -0.8895800
  H        0.6784430     1.0464730     0.8895430
  H        0.6784570     1.0464550    -0.8895890
  H       -3.7295280     0.6607040     0.0000130
  H       -3.0932130    -0.7493130     0.8923640
  H       -3.0932330    -0.7493380    -0.8923130
  H        3.0932340     0.7493310    -0.8923150
  H        3.7295280    -0.6607040     0.0000230
  H        3.0909464     0.7378765     0.8761166
units angstrom
no_reorient  #important for SAPT in psi4, default
symmetry c1  #important for SAPT in psi4, default
}

set PROPERTIES_ORIGIN ["COM"]
properties('MP2/aug-cc-pvtz', properties = ['dipole'])
--------------------------------------------------------------------------

    Molecular point group: c1
  Charge       = 0
  Multiplicity = 1
  Basis Set: AUG-CC-PVTZ
    Blend: AUG-CC-PVTZ
  Basis Set: (AUG-CC-PVTZ AUX)
    Blend: AUG-CC-PVTZ-JKFIT

    Orbital Energies [Eh]
    ---------------------

    Doubly Occupied:

       1A    -20.558754     2A    -20.558341     3A    -11.272146
       4A    -11.271482     5A    -11.271411     6A    -11.268955
       7A     -1.379024     8A     -1.367445     9A     -1.024142
      10A     -0.934365    11A     -0.885452    12A     -0.829656
      13A     -0.687395    14A     -0.666717    15A     -0.653217
      16A     -0.643303    17A     -0.611357    18A     -0.593081
      19A     -0.575391    20A     -0.515396    21A     -0.503614
      22A     -0.489837    23A     -0.474604    24A     -0.426952
      25A     -0.425384

  @DF-RHF Final Energy:  -307.10046052899730

   => Energetics <=

    Nuclear Repulsion Energy =            252.7157155488587534
    One-Electron Energy =                -919.8575080490680875
    Two-Electron Energy =                 360.0413319712120597
    Total Energy =                       -307.1004605289973028
  Basis Set: (AUG-CC-PVTZ AUX)
    Blend: AUG-CC-PVTZ-RI
    Molecular point group: c1

    Geometry (in Angstrom), charge = 0, multiplicity = 1:

       Center              X                  Y                   Z               Mass
    ------------   -----------------  -----------------  -----------------  -----------------
         O           -1.710384648861     0.532459903670     0.000174439834    15.994914619570
         O            1.710435351139    -0.532204096330     0.000181439834    15.994914619570
         C           -0.642125648861    -0.400060096330     0.000168439834    12.000000000000
         C            0.642176351139     0.400316903670     0.000165439834    12.000000000000
         C           -2.968741648861    -0.120611096330     0.000197439834    12.000000000000
         C            2.968792351139     0.120866903670     0.000200439834    12.000000000000
         H           -0.678418648861    -1.046336096330     0.889734439834     1.007825032230
         H           -0.678430648861    -1.046335096330    -0.889397560166     1.007825032230
         H            0.678468351139     1.046600903670     0.889725439834     1.007825032230
         H            0.678482351139     1.046582903670    -0.889406560166     1.007825032230
         H           -3.729502648861     0.660831903670     0.000195439834     1.007825032230
         H           -3.093187648861    -0.749185096330     0.892546439834     1.007825032230
         H           -3.093207648861    -0.749210096330    -0.892130560166     1.007825032230
         H            3.093259351139     0.749458903670    -0.892132560166     1.007825032230
         H            3.729553351139    -0.660576096330     0.000205439834     1.007825032230
         H            3.090971751139     0.738004403670     0.876299039834     1.007825032230

  Basis Set: AUG-CC-PVTZ
    Blend: AUG-CC-PVTZ
  Basis Set: (AUG-CC-PVTZ AUX)
    Blend: AUG-CC-PVTZ-JKFIT
	 Reference Energy          =    -307.1004605289973028 [Eh]
	 Singles Energy            =      -0.0000000000000000 [Eh]
	 Same-Spin Energy          =      -0.2947191196288668 [Eh]
	 Opposite-Spin Energy      =      -1.0070380399159955 [Eh]
	 Correlation Energy        =      -1.3017571595448623 [Eh]
	 Total Energy              =    -308.4022176885421800 [Eh]

	 ================> DF-SCS-MP2 Energies <==================
	-----------------------------------------------------------
	 SCS Same-Spin Scale       =       0.3333333333333333 [-]
	 SCS Opposite-Spin Scale   =       1.2000000000000000 [-]
	 SCS Same-Spin Energy      =      -0.0982397065429556 [Eh]
	 SCS Opposite-Spin Energy  =      -1.2084456478991945 [Eh]
	 SCS Correlation Energy    =      -1.3066853544421502 [Eh]
	 SCS Total Energy          =    -308.4071458834394548 [Eh]
	-----------------------------------------------------------

  Dipole Moment: [D]
     X:     0.0096      Y:     0.0096      Z:     0.0123     Total:     0.0183

*** Psi4 exiting successfully. Buy a developer a beer!
