                               Psi4 1.4a3.dev225

  ==> Input File <==

--------------------------------------------------------------------------
#psi4
#
memory 32 gb

molecule  {
0 1
  O       -1.7104100     0.5323320    -0.0000080
  O        1.7855679    -0.6602885    -0.0000008
  C       -0.6421510    -0.4001880    -0.0000140
  C        0.6421510     0.4001890    -0.0000170
  C       -2.9687670    -0.1207390     0.0000150
  C        2.9687670     0.1207390     0.0000180
  H       -0.6784440    -1.0464640     0.8895520
  H       -0.6784560    -1.0464630    -0.8895800
  H        0.6784430     1.0464730     0.8895430
  H        0.6784570     1.0464550    -0.8895890
  H       -3.7295280     0.6607040     0.0000130
  H       -3.0932130    -0.7493130     0.8923640
  H       -3.0932330    -0.7493380    -0.8923130
  H        3.0932340     0.7493310    -0.8923150
  H        3.7295280    -0.6607040     0.0000230
  H        3.0932120     0.7493200     0.8923620
units angstrom
no_reorient  #important for SAPT in psi4, default
symmetry c1  #important for SAPT in psi4, default
}

set PROPERTIES_ORIGIN ["COM"]
properties('MP2/aug-cc-pvtz', properties = ['dipole'])
--------------------------------------------------------------------------

    Molecular point group: c1
  Charge       = 0
  Multiplicity = 1
  Basis Set: AUG-CC-PVTZ
    Blend: AUG-CC-PVTZ
  Basis Set: (AUG-CC-PVTZ AUX)
    Blend: AUG-CC-PVTZ-JKFIT

    Orbital Energies [Eh]
    ---------------------

    Doubly Occupied:

       1A    -20.564015     2A    -20.562262     3A    -11.285066
       4A    -11.276078     5A    -11.273886     6A    -11.265265
       7A     -1.377637     8A     -1.339875     9A     -1.024503
      10A     -0.923165    11A     -0.887979    12A     -0.833326
      13A     -0.683398    14A     -0.660372    15A     -0.645354
      16A     -0.635424    17A     -0.606008    18A     -0.582244
      19A     -0.577592    20A     -0.514239    21A     -0.504653
      22A     -0.486980    23A     -0.471592    24A     -0.435214
      25A     -0.428350

  @DF-RHF Final Energy:  -307.08026336530588

   => Energetics <=

    Nuclear Repulsion Energy =            249.9246471537344974
    One-Electron Energy =                -914.3208670600442929
    Two-Electron Energy =                 357.3159565410039704
    Total Energy =                       -307.0802633653058820
  Basis Set: (AUG-CC-PVTZ AUX)
    Blend: AUG-CC-PVTZ-RI
    Molecular point group: c1

    Geometry (in Angstrom), charge = 0, multiplicity = 1:

       Center              X                  Y                   Z               Mass
    ------------   -----------------  -----------------  -----------------  -----------------
         O           -1.723757061460     0.555055258836    -0.000007375076    15.994914619570
         O            1.772220838540    -0.637565241164    -0.000000175076    15.994914619570
         C           -0.655498061460    -0.377464741164    -0.000013375076    12.000000000000
         C            0.628803938540     0.422912258836    -0.000016375076    12.000000000000
         C           -2.982114061460    -0.098015741164     0.000015624924    12.000000000000
         C            2.955419938540     0.143462258836     0.000018624924    12.000000000000
         H           -0.691791061460    -1.023740741164     0.889552624924     1.007825032230
         H           -0.691803061460    -1.023739741164    -0.889579375076     1.007825032230
         H            0.665095938540     1.069196258836     0.889543624924     1.007825032230
         H            0.665109938540     1.069178258836    -0.889588375076     1.007825032230
         H           -3.742875061460     0.683427258836     0.000013624924     1.007825032230
         H           -3.106560061460    -0.726589741164     0.892364624924     1.007825032230
         H           -3.106580061460    -0.726614741164    -0.892312375076     1.007825032230
         H            3.079886938540     0.772054258836    -0.892314375076     1.007825032230
         H            3.716180938540    -0.637980741164     0.000023624924     1.007825032230
         H            3.079864938540     0.772043258836     0.892362624924     1.007825032230

  Basis Set: AUG-CC-PVTZ
    Blend: AUG-CC-PVTZ
  Basis Set: (AUG-CC-PVTZ AUX)
    Blend: AUG-CC-PVTZ-JKFIT
	 Reference Energy          =    -307.0802633653058820 [Eh]
	 Singles Energy            =      -0.0000000000000000 [Eh]
	 Same-Spin Energy          =      -0.2959484762640857 [Eh]
	 Opposite-Spin Energy      =      -1.0122085018883886 [Eh]
	 Correlation Energy        =      -1.3081569781524744 [Eh]
	 Total Energy              =    -308.3884203434583355 [Eh]

	 ================> DF-SCS-MP2 Energies <==================
	-----------------------------------------------------------
	 SCS Same-Spin Scale       =       0.3333333333333333 [-]
	 SCS Opposite-Spin Scale   =       1.2000000000000000 [-]
	 SCS Same-Spin Energy      =      -0.0986494920880286 [Eh]
	 SCS Opposite-Spin Energy  =      -1.2146502022660663 [Eh]
	 SCS Correlation Energy    =      -1.3132996943540949 [Eh]
	 SCS Total Energy          =    -308.3935630596599822 [Eh]
	-----------------------------------------------------------

  Dipole Moment: [D]
     X:    -0.4160      Y:     0.3174      Z:     0.0000     Total:     0.5233

*** Psi4 exiting successfully. Buy a developer a beer!
