                               Psi4 1.4a3.dev225

  ==> Input File <==

--------------------------------------------------------------------------
#psi4
#
memory 32 gb

molecule  {
0 1
  O       -1.7104100     0.5323320    -0.0000080
  O        1.7104100    -0.5323320    -0.0000010
  C       -0.6753462    -0.4369016    -0.0000132
  C        0.6421510     0.4001890    -0.0000170
  C       -2.9687670    -0.1207390     0.0000150
  C        2.9687670     0.1207390     0.0000180
  H       -0.6784440    -1.0464640     0.8895520
  H       -0.6784560    -1.0464630    -0.8895800
  H        0.6784430     1.0464730     0.8895430
  H        0.6784570     1.0464550    -0.8895890
  H       -3.7295280     0.6607040     0.0000130
  H       -3.0932130    -0.7493130     0.8923640
  H       -3.0932330    -0.7493380    -0.8923130
  H        3.0932340     0.7493310    -0.8923150
  H        3.7295280    -0.6607040     0.0000230
  H        3.0932120     0.7493200     0.8923620
units angstrom
no_reorient  #important for SAPT in psi4, default
symmetry c1  #important for SAPT in psi4, default
}

set PROPERTIES_ORIGIN ["COM"]
properties('MP2/aug-cc-pvtz', properties = ['dipole'])
--------------------------------------------------------------------------

    Molecular point group: c1
  Charge       = 0
  Multiplicity = 1
  Basis Set: AUG-CC-PVTZ
    Blend: AUG-CC-PVTZ
  Basis Set: (AUG-CC-PVTZ AUX)
    Blend: AUG-CC-PVTZ-JKFIT

    Orbital Energies [Eh]
    ---------------------

    Doubly Occupied:

       1A    -20.560103     2A    -20.557366     3A    -11.272630
       4A    -11.270905     5A    -11.270536     6A    -11.270357
       7A     -1.378857     8A     -1.367464     9A     -1.016040
      10A     -0.932383    11A     -0.883336    12A     -0.833445
      13A     -0.687852    14A     -0.664131    15A     -0.649655
      16A     -0.643928    17A     -0.612648    18A     -0.593128
      19A     -0.574637    20A     -0.520061    21A     -0.500128
      22A     -0.490514    23A     -0.464946    24A     -0.431238
      25A     -0.424328

  @DF-RHF Final Energy:  -307.09756863189904

   => Energetics <=

    Nuclear Repulsion Energy =            252.2248117800721445
    One-Electron Energy =                -918.9035290145756107
    Two-Electron Energy =                 359.5811486026044008
    Total Energy =                       -307.0975686318990370
  Basis Set: (AUG-CC-PVTZ AUX)
    Blend: AUG-CC-PVTZ-RI
    Molecular point group: c1

    Geometry (in Angstrom), charge = 0, multiplicity = 1:

       Center              X                  Y                   Z               Mass
    ------------   -----------------  -----------------  -----------------  -----------------
         O           -1.705987318824     0.537223302161    -0.000007446144    15.994914619570
         O            1.714832681176    -0.527440697839    -0.000000446144    15.994914619570
         C           -0.670923518824    -0.432010297839    -0.000012646144    12.000000000000
         C            0.646573681176     0.405080302161    -0.000016446144    12.000000000000
         C           -2.964344318824    -0.115847697839     0.000015553856    12.000000000000
         C            2.973189681176     0.125630302161     0.000018553856    12.000000000000
         H           -0.674021318824    -1.041572697839     0.889552553856     1.007825032230
         H           -0.674033318824    -1.041571697839    -0.889579446144     1.007825032230
         H            0.682865681176     1.051364302161     0.889543553856     1.007825032230
         H            0.682879681176     1.051346302161    -0.889588446144     1.007825032230
         H           -3.725105318824     0.665595302161     0.000013553856     1.007825032230
         H           -3.088790318824    -0.744421697839     0.892364553856     1.007825032230
         H           -3.088810318824    -0.744446697839    -0.892312446144     1.007825032230
         H            3.097656681176     0.754222302161    -0.892314446144     1.007825032230
         H            3.733950681176    -0.655812697839     0.000023553856     1.007825032230
         H            3.097634681176     0.754211302161     0.892362553856     1.007825032230

  Basis Set: AUG-CC-PVTZ
    Blend: AUG-CC-PVTZ
  Basis Set: (AUG-CC-PVTZ AUX)
    Blend: AUG-CC-PVTZ-JKFIT
	 Reference Energy          =    -307.0975686318990370 [Eh]
	 Singles Energy            =      -0.0000000000000000 [Eh]
	 Same-Spin Energy          =      -0.2947240711158408 [Eh]
	 Opposite-Spin Energy      =      -1.0074911157956787 [Eh]
	 Correlation Energy        =      -1.3022151869115195 [Eh]
	 Total Energy              =    -308.3997838188105334 [Eh]

	 ================> DF-SCS-MP2 Energies <==================
	-----------------------------------------------------------
	 SCS Same-Spin Scale       =       0.3333333333333333 [-]
	 SCS Opposite-Spin Scale   =       1.2000000000000000 [-]
	 SCS Same-Spin Energy      =      -0.0982413570386136 [Eh]
	 SCS Opposite-Spin Energy  =      -1.2089893389548145 [Eh]
	 SCS Correlation Energy    =      -1.3072306959934281 [Eh]
	 SCS Total Energy          =    -308.4047993278924764 [Eh]
	-----------------------------------------------------------

  Dipole Moment: [D]
     X:    -0.0428      Y:    -0.0430      Z:     0.0000     Total:     0.0607

*** Psi4 exiting successfully. Buy a developer a beer!
