                               Psi4 1.4a3.dev225

  ==> Input File <==

--------------------------------------------------------------------------
#psi4
#
memory 32 gb

molecule  {
0 1
  O       -1.7104100     0.5323320    -0.0000080
  O        1.7219993    -0.5541939    -0.0000010
  C       -0.6421510    -0.4001880    -0.0000140
  C        0.6421510     0.4001890    -0.0000170
  C       -2.9687670    -0.1207390     0.0000150
  C        2.9687670     0.1207390     0.0000180
  H       -0.6784440    -1.0464640     0.8895520
  H       -0.6784560    -1.0464630    -0.8895800
  H        0.6784430     1.0464730     0.8895430
  H        0.6784570     1.0464550    -0.8895890
  H       -3.7295280     0.6607040     0.0000130
  H       -3.0932130    -0.7493130     0.8923640
  H       -3.0932330    -0.7493380    -0.8923130
  H        3.0932340     0.7493310    -0.8923150
  H        3.7295280    -0.6607040     0.0000230
  H        3.0932120     0.7493200     0.8923620
units angstrom
no_reorient  #important for SAPT in psi4, default
symmetry c1  #important for SAPT in psi4, default
}

set PROPERTIES_ORIGIN ["COM"]
properties('MP2/aug-cc-pvtz', properties = ['dipole'])
--------------------------------------------------------------------------

    Molecular point group: c1
  Charge       = 0
  Multiplicity = 1
  Basis Set: AUG-CC-PVTZ
    Blend: AUG-CC-PVTZ
  Basis Set: (AUG-CC-PVTZ AUX)
    Blend: AUG-CC-PVTZ-JKFIT

    Orbital Energies [Eh]
    ---------------------

    Doubly Occupied:

       1A    -20.559850     2A    -20.559389     3A    -11.274121
       4A    -11.272515     5A    -11.271857     6A    -11.270241
       7A     -1.377166     8A     -1.363873     9A     -1.023837
      10A     -0.931448    11A     -0.885148    12A     -0.830279
      13A     -0.686128    14A     -0.664902    15A     -0.651605
      16A     -0.641491    17A     -0.609847    18A     -0.591859
      19A     -0.574841    20A     -0.514354    21A     -0.500973
      22A     -0.489789    23A     -0.477310    24A     -0.428583
      25A     -0.426032

  @DF-RHF Final Energy:  -307.09880254677449

   => Energetics <=

    Nuclear Repulsion Energy =            252.1697476256751145
    One-Electron Energy =                -918.7822294390234674
    Two-Electron Energy =                 359.5136792665738881
    Total Energy =                       -307.0988025467744933
  Basis Set: (AUG-CC-PVTZ AUX)
    Blend: AUG-CC-PVTZ-RI
    Molecular point group: c1

    Geometry (in Angstrom), charge = 0, multiplicity = 1:

       Center              X                  Y                   Z               Mass
    ------------   -----------------  -----------------  -----------------  -----------------
         O           -1.712468108321     0.536214243496    -0.000007339558    15.994914619570
         O            1.719941191679    -0.550311656504    -0.000000339558    15.994914619570
         C           -0.644209108321    -0.396305756504    -0.000013339558    12.000000000000
         C            0.640092891679     0.404071243496    -0.000016339558    12.000000000000
         C           -2.970825108321    -0.116856756504     0.000015660442    12.000000000000
         C            2.966708891679     0.124621243496     0.000018660442    12.000000000000
         H           -0.680502108321    -1.042581756504     0.889552660442     1.007825032230
         H           -0.680514108321    -1.042580756504    -0.889579339558     1.007825032230
         H            0.676384891679     1.050355243496     0.889543660442     1.007825032230
         H            0.676398891679     1.050337243496    -0.889588339558     1.007825032230
         H           -3.731586108321     0.664586243496     0.000013660442     1.007825032230
         H           -3.095271108321    -0.745430756504     0.892364660442     1.007825032230
         H           -3.095291108321    -0.745455756504    -0.892312339558     1.007825032230
         H            3.091175891679     0.753213243496    -0.892314339558     1.007825032230
         H            3.727469891679    -0.656821756504     0.000023660442     1.007825032230
         H            3.091153891679     0.753202243496     0.892362660442     1.007825032230

  Basis Set: AUG-CC-PVTZ
    Blend: AUG-CC-PVTZ
  Basis Set: (AUG-CC-PVTZ AUX)
    Blend: AUG-CC-PVTZ-JKFIT
	 Reference Energy          =    -307.0988025467744933 [Eh]
	 Singles Energy            =      -0.0000000000000000 [Eh]
	 Same-Spin Energy          =      -0.2948798950359778 [Eh]
	 Opposite-Spin Energy      =      -1.0078860483798788 [Eh]
	 Correlation Energy        =      -1.3027659434158567 [Eh]
	 Total Energy              =    -308.4015684901903569 [Eh]

	 ================> DF-SCS-MP2 Energies <==================
	-----------------------------------------------------------
	 SCS Same-Spin Scale       =       0.3333333333333333 [-]
	 SCS Opposite-Spin Scale   =       1.2000000000000000 [-]
	 SCS Same-Spin Energy      =      -0.0982932983453259 [Eh]
	 SCS Opposite-Spin Energy  =      -1.2094632580558546 [Eh]
	 SCS Correlation Energy    =      -1.3077565564011806 [Eh]
	 SCS Total Energy          =    -308.4065591031756526 [Eh]
	-----------------------------------------------------------

  Dipole Moment: [D]
     X:    -0.0742      Y:     0.0589      Z:     0.0000     Total:     0.0947

*** Psi4 exiting successfully. Buy a developer a beer!
