                               Psi4 1.4a3.dev225

  ==> Input File <==

--------------------------------------------------------------------------
#psi4
#
memory 32 gb

molecule  {
0 1
  O       -1.7104100     0.5323320    -0.0000080
  O        1.7104100    -0.5323320    -0.0000010
  C       -0.5505282    -0.2834161    -0.0000163
  C        0.6421510     0.4001890    -0.0000170
  C       -2.9687670    -0.1207390     0.0000150
  C        2.9687670     0.1207390     0.0000180
  H       -0.6784440    -1.0464640     0.8895520
  H       -0.6784560    -1.0464630    -0.8895800
  H        0.6784430     1.0464730     0.8895430
  H        0.6784570     1.0464550    -0.8895890
  H       -3.7295280     0.6607040     0.0000130
  H       -3.0932130    -0.7493130     0.8923640
  H       -3.0932330    -0.7493380    -0.8923130
  H        3.0932340     0.7493310    -0.8923150
  H        3.7295280    -0.6607040     0.0000230
  H        3.0932120     0.7493200     0.8923620
units angstrom
no_reorient  #important for SAPT in psi4, default
symmetry c1  #important for SAPT in psi4, default
}

set PROPERTIES_ORIGIN ["COM"]
properties('MP2/aug-cc-pvtz', properties = ['dipole'])
--------------------------------------------------------------------------

    Molecular point group: c1
  Charge       = 0
  Multiplicity = 1
  Basis Set: AUG-CC-PVTZ
    Blend: AUG-CC-PVTZ
  Basis Set: (AUG-CC-PVTZ AUX)
    Blend: AUG-CC-PVTZ-JKFIT

    Orbital Energies [Eh]
    ---------------------

    Doubly Occupied:

       1A    -20.563852     2A    -20.556550     3A    -11.280560
       4A    -11.274368     5A    -11.274287     6A    -11.268874
       7A     -1.383281     8A     -1.367068     9A     -1.055653
      10A     -0.937248    11A     -0.892394    12A     -0.814356
      13A     -0.690703    14A     -0.674788    15A     -0.667589
      16A     -0.639050    17A     -0.607081    18A     -0.591375
      19A     -0.577470    20A     -0.529554    21A     -0.497826
      22A     -0.492583    23A     -0.473703    24A     -0.430268
      25A     -0.405593

  @DF-RHF Final Energy:  -307.07324707042227

   => Energetics <=

    Nuclear Repulsion Energy =            253.9411353183724884
    One-Electron Energy =                -922.1366173939044302
    Two-Electron Energy =                 361.1222350051096441
    Total Energy =                       -307.0732470704222692
  Basis Set: (AUG-CC-PVTZ AUX)
    Blend: AUG-CC-PVTZ-RI
    Molecular point group: c1

    Geometry (in Angstrom), charge = 0, multiplicity = 1:

       Center              X                  Y                   Z               Mass
    ------------   -----------------  -----------------  -----------------  -----------------
         O           -1.722617139370     0.516774037460    -0.000007033123    15.994914619570
         O            1.698202860630    -0.547889962540    -0.000000033123    15.994914619570
         C           -0.562735339370    -0.298974062540    -0.000015333123    12.000000000000
         C            0.629943860630     0.384631037460    -0.000016033123    12.000000000000
         C           -2.980974139370    -0.136296962540     0.000015966877    12.000000000000
         C            2.956559860630     0.105181037460     0.000018966877    12.000000000000
         H           -0.690651139370    -1.062021962540     0.889552966877     1.007825032230
         H           -0.690663139370    -1.062020962540    -0.889579033123     1.007825032230
         H            0.666235860630     1.030915037460     0.889543966877     1.007825032230
         H            0.666249860630     1.030897037460    -0.889588033123     1.007825032230
         H           -3.741735139370     0.645146037460     0.000013966877     1.007825032230
         H           -3.105420139370    -0.764870962540     0.892364966877     1.007825032230
         H           -3.105440139370    -0.764895962540    -0.892312033123     1.007825032230
         H            3.081026860630     0.733773037460    -0.892314033123     1.007825032230
         H            3.717320860630    -0.676261962540     0.000023966877     1.007825032230
         H            3.081004860630     0.733762037460     0.892362966877     1.007825032230

  Basis Set: AUG-CC-PVTZ
    Blend: AUG-CC-PVTZ
  Basis Set: (AUG-CC-PVTZ AUX)
    Blend: AUG-CC-PVTZ-JKFIT
	 Reference Energy          =    -307.0732470704222692 [Eh]
	 Singles Energy            =      -0.0000000000000000 [Eh]
	 Same-Spin Energy          =      -0.2960254443145617 [Eh]
	 Opposite-Spin Energy      =      -1.0085887059179786 [Eh]
	 Correlation Energy        =      -1.3046141502325401 [Eh]
	 Total Energy              =    -308.3778612206548360 [Eh]

	 ================> DF-SCS-MP2 Energies <==================
	-----------------------------------------------------------
	 SCS Same-Spin Scale       =       0.3333333333333333 [-]
	 SCS Opposite-Spin Scale   =       1.2000000000000000 [-]
	 SCS Same-Spin Energy      =      -0.0986751481048539 [Eh]
	 SCS Opposite-Spin Energy  =      -1.2103064471015743 [Eh]
	 SCS Correlation Energy    =      -1.3089815952064281 [Eh]
	 SCS Total Energy          =    -308.3822286656287019 [Eh]
	-----------------------------------------------------------

  Dipole Moment: [D]
     X:     0.1157      Y:     0.1798      Z:     0.0000     Total:     0.2139

*** Psi4 exiting successfully. Buy a developer a beer!
