                               Psi4 1.4a3.dev225

  ==> Input File <==

--------------------------------------------------------------------------
#psi4
#
memory 32 gb

molecule  {
0 1
  O       -1.7223282     0.5534200    -0.0431599
  O        1.7104100    -0.5323320    -0.0000010
  C       -0.6421510    -0.4001880    -0.0000140
  C        0.6421510     0.4001890    -0.0000170
  C       -2.9687670    -0.1207390     0.0000150
  C        2.9687670     0.1207390     0.0000180
  H       -0.6784440    -1.0464640     0.8895520
  H       -0.6784560    -1.0464630    -0.8895800
  H        0.6784430     1.0464730     0.8895430
  H        0.6784570     1.0464550    -0.8895890
  H       -3.7295280     0.6607040     0.0000130
  H       -3.0932130    -0.7493130     0.8923640
  H       -3.0932330    -0.7493380    -0.8923130
  H        3.0932340     0.7493310    -0.8923150
  H        3.7295280    -0.6607040     0.0000230
  H        3.0932120     0.7493200     0.8923620
units angstrom
no_reorient  #important for SAPT in psi4, default
symmetry c1  #important for SAPT in psi4, default
}

set PROPERTIES_ORIGIN ["COM"]
properties('MP2/aug-cc-pvtz', properties = ['dipole'])
--------------------------------------------------------------------------

    Molecular point group: c1
  Charge       = 0
  Multiplicity = 1
  Basis Set: AUG-CC-PVTZ
    Blend: AUG-CC-PVTZ
  Basis Set: (AUG-CC-PVTZ AUX)
    Blend: AUG-CC-PVTZ-JKFIT

    Orbital Energies [Eh]
    ---------------------

    Doubly Occupied:

       1A    -20.559832     2A    -20.559407     3A    -11.274150
       4A    -11.272542     5A    -11.271869     6A    -11.270213
       7A     -1.377154     8A     -1.363813     9A     -1.023836
      10A     -0.931426    11A     -0.885163    12A     -0.830283
      13A     -0.686111    14A     -0.664902    15A     -0.651635
      16A     -0.641404    17A     -0.609938    18A     -0.591949
      19A     -0.574570    20A     -0.514417    21A     -0.500852
      22A     -0.489884    23A     -0.477419    24A     -0.428361
      25A     -0.426023

  @DF-RHF Final Energy:  -307.09844863073198

   => Energetics <=

    Nuclear Repulsion Energy =            252.1607757439106194
    One-Electron Energy =                -918.7641435702050785
    Two-Electron Energy =                 359.5049191955625361
    Total Energy =                       -307.0984486307319798
  Basis Set: (AUG-CC-PVTZ AUX)
    Blend: AUG-CC-PVTZ-RI
    Molecular point group: c1

    Geometry (in Angstrom), charge = 0, multiplicity = 1:

       Center              X                  Y                   Z               Mass
    ------------   -----------------  -----------------  -----------------  -----------------
         O           -1.720211683335     0.549674902192    -0.035496025692    15.994914619570
         O            1.712526516665    -0.536077097808     0.007662874308    15.994914619570
         C           -0.640034483335    -0.403933097808     0.007649874308    12.000000000000
         C            0.644267516665     0.396443902192     0.007646874308    12.000000000000
         C           -2.966650483335    -0.124484097808     0.007678874308    12.000000000000
         C            2.970883516665     0.116993902192     0.007681874308    12.000000000000
         H           -0.676327483335    -1.050209097808     0.897215874308     1.007825032230
         H           -0.676339483335    -1.050208097808    -0.881916125692     1.007825032230
         H            0.680559516665     1.042727902192     0.897206874308     1.007825032230
         H            0.680573516665     1.042709902192    -0.881925125692     1.007825032230
         H           -3.727411483335     0.656958902192     0.007676874308     1.007825032230
         H           -3.091096483335    -0.753058097808     0.900027874308     1.007825032230
         H           -3.091116483335    -0.753083097808    -0.884649125692     1.007825032230
         H            3.095350516665     0.745585902192    -0.884651125692     1.007825032230
         H            3.731644516665    -0.664449097808     0.007686874308     1.007825032230
         H            3.095328516665     0.745574902192     0.900025874308     1.007825032230

  Basis Set: AUG-CC-PVTZ
    Blend: AUG-CC-PVTZ
  Basis Set: (AUG-CC-PVTZ AUX)
    Blend: AUG-CC-PVTZ-JKFIT
	 Reference Energy          =    -307.0984486307319798 [Eh]
	 Singles Energy            =      -0.0000000000000000 [Eh]
	 Same-Spin Energy          =      -0.2948906883942632 [Eh]
	 Opposite-Spin Energy      =      -1.0079139998901170 [Eh]
	 Correlation Energy        =      -1.3028046882843802 [Eh]
	 Total Energy              =    -308.4012533190163481 [Eh]

	 ================> DF-SCS-MP2 Energies <==================
	-----------------------------------------------------------
	 SCS Same-Spin Scale       =       0.3333333333333333 [-]
	 SCS Opposite-Spin Scale   =       1.2000000000000000 [-]
	 SCS Same-Spin Energy      =      -0.0982968961314211 [Eh]
	 SCS Opposite-Spin Energy  =      -1.2094967998681403 [Eh]
	 SCS Correlation Energy    =      -1.3077936959995613 [Eh]
	 SCS Total Energy          =    -308.4062423267315580 [Eh]
	-----------------------------------------------------------

  Dipole Moment: [D]
     X:     0.0759      Y:    -0.0577      Z:     0.0842     Total:     0.1272

*** Psi4 exiting successfully. Buy a developer a beer!
