                               Psi4 1.4a3.dev225

  ==> Input File <==

--------------------------------------------------------------------------
#psi4
#
memory 32 gb

molecule  {
0 1
  O       -1.7104100     0.5323320    -0.0000080
  O        1.7104100    -0.5323320    -0.0000010
  C       -0.6421510    -0.4001880    -0.0000140
  C        0.6421510     0.4001890    -0.0000170
  C       -2.9687670    -0.1207390     0.0000150
  C        2.9687670     0.1207390     0.0000180
  H       -0.6784440    -1.0464640     0.8895520
  H       -0.6784560    -1.0464630    -0.8895800
  H        0.6784430     1.0464730     0.8895430
  H        0.6784570     1.0464550    -0.8895890
  H       -3.7295280     0.6607040     0.0000130
  H       -3.0932130    -0.7493130     0.8923640
  H       -3.0932330    -0.7493380    -0.8923130
  H        3.0932340     0.7493310    -0.8923150
  H        3.7295280    -0.6607040     0.0000230
  H        3.0818842     0.6921024     0.8111350
units angstrom
no_reorient  #important for SAPT in psi4, default
symmetry c1  #important for SAPT in psi4, default
}

set PROPERTIES_ORIGIN ["COM"]
properties('MP2/aug-cc-pvtz', properties = ['dipole'])
--------------------------------------------------------------------------

    Molecular point group: c1
  Charge       = 0
  Multiplicity = 1
  Basis Set: AUG-CC-PVTZ
    Blend: AUG-CC-PVTZ
  Basis Set: (AUG-CC-PVTZ AUX)
    Blend: AUG-CC-PVTZ-JKFIT

    Orbital Energies [Eh]
    ---------------------

    Doubly Occupied:

       1A    -20.558552     2A    -20.556684     3A    -11.271861
       4A    -11.271269     5A    -11.271187     6A    -11.258804
       7A     -1.378524     8A     -1.366920     9A     -1.024936
      10A     -0.939487    11A     -0.889554    12A     -0.829915
      13A     -0.688453    14A     -0.668794    15A     -0.653120
      16A     -0.645757    17A     -0.612586    18A     -0.592947
      19A     -0.578961    20A     -0.517911    21A     -0.503665
      22A     -0.489980    23A     -0.474194    24A     -0.427249
      25A     -0.425579

  @DF-RHF Final Energy:  -307.09479505360542

   => Energetics <=

    Nuclear Repulsion Energy =            253.0709896506900236
    One-Electron Energy =                -920.5377915810769309
    Two-Electron Energy =                 360.3720068767815405
    Total Energy =                       -307.0947950536054236
  Basis Set: (AUG-CC-PVTZ AUX)
    Blend: AUG-CC-PVTZ-RI
    Molecular point group: c1

    Geometry (in Angstrom), charge = 0, multiplicity = 1:

       Center              X                  Y                   Z               Mass
    ------------   -----------------  -----------------  -----------------  -----------------
         O           -1.710283246544     0.532972097158     0.000901557404    15.994914619570
         O            1.710536753456    -0.531691902842     0.000908557404    15.994914619570
         C           -0.642024246544    -0.399547902842     0.000895557404    12.000000000000
         C            0.642277753456     0.400829097158     0.000892557404    12.000000000000
         C           -2.968640246544    -0.120098902842     0.000924557404    12.000000000000
         C            2.968893753456     0.121379097158     0.000927557404    12.000000000000
         H           -0.678317246544    -1.045823902842     0.890461557404     1.007825032230
         H           -0.678329246544    -1.045822902842    -0.888670442596     1.007825032230
         H            0.678569753456     1.047113097158     0.890452557404     1.007825032230
         H            0.678583753456     1.047095097158    -0.888679442596     1.007825032230
         H           -3.729401246544     0.661344097158     0.000922557404     1.007825032230
         H           -3.093086246544    -0.748672902842     0.893273557404     1.007825032230
         H           -3.093106246544    -0.748697902842    -0.891403442596     1.007825032230
         H            3.093360753456     0.749971097158    -0.891405442596     1.007825032230
         H            3.729654753456    -0.660063902842     0.000932557404     1.007825032230
         H            3.082010953456     0.692742497158     0.812044557404     1.007825032230

  Basis Set: AUG-CC-PVTZ
    Blend: AUG-CC-PVTZ
  Basis Set: (AUG-CC-PVTZ AUX)
    Blend: AUG-CC-PVTZ-JKFIT
	 Reference Energy          =    -307.0947950536054236 [Eh]
	 Singles Energy            =      -0.0000000000000000 [Eh]
	 Same-Spin Energy          =      -0.2946806810709070 [Eh]
	 Opposite-Spin Energy      =      -1.0066209804745578 [Eh]
	 Correlation Energy        =      -1.3013016615454649 [Eh]
	 Total Energy              =    -308.3960967151508612 [Eh]

	 ================> DF-SCS-MP2 Energies <==================
	-----------------------------------------------------------
	 SCS Same-Spin Scale       =       0.3333333333333333 [-]
	 SCS Opposite-Spin Scale   =       1.2000000000000000 [-]
	 SCS Same-Spin Energy      =      -0.0982268936903023 [Eh]
	 SCS Opposite-Spin Energy  =      -1.2079451765694693 [Eh]
	 SCS Correlation Energy    =      -1.3061720702597717 [Eh]
	 SCS Total Energy          =    -308.4009671238652004 [Eh]
	-----------------------------------------------------------

  Dipole Moment: [D]
     X:     0.0434      Y:     0.0430      Z:     0.0543     Total:     0.0818

*** Psi4 exiting successfully. Buy a developer a beer!
