                               Psi4 1.4a3.dev225

  ==> Input File <==

--------------------------------------------------------------------------
#psi4
#
memory 32 gb

molecule  {
0 1
  O       -1.6839028     0.4644017     0.1292376
  O        1.7104100    -0.5323320    -0.0000010
  C       -0.6421510    -0.4001880    -0.0000140
  C        0.6421510     0.4001890    -0.0000170
  C       -2.9687670    -0.1207390     0.0000150
  C        2.9687670     0.1207390     0.0000180
  H       -0.6784440    -1.0464640     0.8895520
  H       -0.6784560    -1.0464630    -0.8895800
  H        0.6784430     1.0464730     0.8895430
  H        0.6784570     1.0464550    -0.8895890
  H       -3.7295280     0.6607040     0.0000130
  H       -3.0932130    -0.7493130     0.8923640
  H       -3.0932330    -0.7493380    -0.8923130
  H        3.0932340     0.7493310    -0.8923150
  H        3.7295280    -0.6607040     0.0000230
  H        3.0932120     0.7493200     0.8923620
units angstrom
no_reorient  #important for SAPT in psi4, default
symmetry c1  #important for SAPT in psi4, default
}

set PROPERTIES_ORIGIN ["COM"]
properties('MP2/aug-cc-pvtz', properties = ['dipole'])
--------------------------------------------------------------------------

    Molecular point group: c1
  Charge       = 0
  Multiplicity = 1
  Basis Set: AUG-CC-PVTZ
    Blend: AUG-CC-PVTZ
  Basis Set: (AUG-CC-PVTZ AUX)
    Blend: AUG-CC-PVTZ-JKFIT

    Orbital Energies [Eh]
    ---------------------

    Doubly Occupied:

       1A    -20.557396     2A    -20.555553     3A    -11.274883
       4A    -11.270452     5A    -11.270278     6A    -11.266463
       7A     -1.393202     8A     -1.370187     9A     -1.025197
      10A     -0.938926    11A     -0.882900    12A     -0.827640
      13A     -0.691215    14A     -0.671765    15A     -0.658499
      16A     -0.644927    17A     -0.616050    18A     -0.595367
      19A     -0.571397    20A     -0.517726    21A     -0.510648
      22A     -0.488707    23A     -0.467470    24A     -0.424930
      25A     -0.416995

  @DF-RHF Final Energy:  -307.09668428384327

   => Energetics <=

    Nuclear Repulsion Energy =            253.8187458734315953
    One-Electron Energy =                -922.0133154417827654
    Two-Electron Energy =                 361.0978852845079246
    Total Energy =                       -307.0966842838432740
  Basis Set: (AUG-CC-PVTZ AUX)
    Blend: AUG-CC-PVTZ-RI
    Molecular point group: c1

    Geometry (in Angstrom), charge = 0, multiplicity = 1:

       Center              X                  Y                   Z               Mass
    ------------   -----------------  -----------------  -----------------  -----------------
         O           -1.688610132530     0.476465089672     0.106285929860    15.994914619570
         O            1.705702667470    -0.520268610328    -0.022952670140    15.994914619570
         C           -0.646858332530    -0.388124610328    -0.022965670140    12.000000000000
         C            0.637443667470     0.412252389672    -0.022968670140    12.000000000000
         C           -2.973474332530    -0.108675610328    -0.022936670140    12.000000000000
         C            2.964059667470     0.132802389672    -0.022933670140    12.000000000000
         H           -0.683151332530    -1.034400610328     0.866600329860     1.007825032230
         H           -0.683163332530    -1.034399610328    -0.912531670140     1.007825032230
         H            0.673735667470     1.058536389672     0.866591329860     1.007825032230
         H            0.673749667470     1.058518389672    -0.912540670140     1.007825032230
         H           -3.734235332530     0.672767389672    -0.022938670140     1.007825032230
         H           -3.097920332530    -0.737249610328     0.869412329860     1.007825032230
         H           -3.097940332530    -0.737274610328    -0.915264670140     1.007825032230
         H            3.088526667470     0.761394389672    -0.915266670140     1.007825032230
         H            3.724820667470    -0.648640610328    -0.022928670140     1.007825032230
         H            3.088504667470     0.761383389672     0.869410329860     1.007825032230

  Basis Set: AUG-CC-PVTZ
    Blend: AUG-CC-PVTZ
  Basis Set: (AUG-CC-PVTZ AUX)
    Blend: AUG-CC-PVTZ-JKFIT
	 Reference Energy          =    -307.0966842838432740 [Eh]
	 Singles Energy            =      -0.0000000000000000 [Eh]
	 Same-Spin Energy          =      -0.2945758714332024 [Eh]
	 Opposite-Spin Energy      =      -1.0057856943671013 [Eh]
	 Correlation Energy        =      -1.3003615658003036 [Eh]
	 Total Energy              =    -308.3970458496435754 [Eh]

	 ================> DF-SCS-MP2 Energies <==================
	-----------------------------------------------------------
	 SCS Same-Spin Scale       =       0.3333333333333333 [-]
	 SCS Opposite-Spin Scale   =       1.2000000000000000 [-]
	 SCS Same-Spin Energy      =      -0.0981919571444008 [Eh]
	 SCS Opposite-Spin Energy  =      -1.2069428332405214 [Eh]
	 SCS Correlation Energy    =      -1.3051347903849222 [Eh]
	 SCS Total Energy          =    -308.4018190742281718 [Eh]
	-----------------------------------------------------------

  Dipole Moment: [D]
     X:    -0.1953      Y:     0.1834      Z:    -0.2573     Total:     0.3714

*** Psi4 exiting successfully. Buy a developer a beer!
