                               Psi4 1.4a3.dev225

  ==> Input File <==

--------------------------------------------------------------------------
#psi4
#
memory 32 gb

molecule  {
0 1
  O       -1.7104100     0.5323320    -0.0000080
  O        1.7104100    -0.5323320    -0.0000010
  C       -0.6585884    -0.4186897    -0.0000136
  C        0.6421510     0.4001890    -0.0000170
  C       -2.9687670    -0.1207390     0.0000150
  C        2.9687670     0.1207390     0.0000180
  H       -0.6784440    -1.0464640     0.8895520
  H       -0.6784560    -1.0464630    -0.8895800
  H        0.6784430     1.0464730     0.8895430
  H        0.6784570     1.0464550    -0.8895890
  H       -3.7295280     0.6607040     0.0000130
  H       -3.0932130    -0.7493130     0.8923640
  H       -3.0932330    -0.7493380    -0.8923130
  H        3.0932340     0.7493310    -0.8923150
  H        3.7295280    -0.6607040     0.0000230
  H        3.0932120     0.7493200     0.8923620
units angstrom
no_reorient  #important for SAPT in psi4, default
symmetry c1  #important for SAPT in psi4, default
}

set PROPERTIES_ORIGIN ["COM"]
properties('MP2/aug-cc-pvtz', properties = ['dipole'])
--------------------------------------------------------------------------

    Molecular point group: c1
  Charge       = 0
  Multiplicity = 1
  Basis Set: AUG-CC-PVTZ
    Blend: AUG-CC-PVTZ
  Basis Set: (AUG-CC-PVTZ AUX)
    Blend: AUG-CC-PVTZ-JKFIT

    Orbital Energies [Eh]
    ---------------------

    Doubly Occupied:

       1A    -20.559426     2A    -20.558076     3A    -11.272342
       4A    -11.271152     5A    -11.270994     6A    -11.270978
       7A     -1.378935     8A     -1.367574     9A     -1.019894
      10A     -0.932891    11A     -0.883804    12A     -0.831630
      13A     -0.687432    14A     -0.665213    15A     -0.651391
      16A     -0.643315    17A     -0.611903    18A     -0.593159
      19A     -0.574427    20A     -0.517491    21A     -0.501309
      22A     -0.490202    23A     -0.470456    24A     -0.429044
      25A     -0.424929

  @DF-RHF Final Energy:  -307.09961920782445

   => Energetics <=

    Nuclear Repulsion Energy =            252.4270497048487414
    One-Electron Energy =                -919.2973991788337571
    Two-Electron Energy =                 359.7707302661605695
    Total Energy =                       -307.0996192078244462
  Basis Set: (AUG-CC-PVTZ AUX)
    Blend: AUG-CC-PVTZ-RI
    Molecular point group: c1

    Geometry (in Angstrom), charge = 0, multiplicity = 1:

       Center              X                  Y                   Z               Mass
    ------------   -----------------  -----------------  -----------------  -----------------
         O           -1.708220003267     0.534796884266    -0.000007392851    15.994914619570
         O            1.712599996733    -0.529867115734    -0.000000392851    15.994914619570
         C           -0.656398403267    -0.416224815734    -0.000012992851    12.000000000000
         C            0.644340996733     0.402653884266    -0.000016392851    12.000000000000
         C           -2.966577003267    -0.118274115734     0.000015607149    12.000000000000
         C            2.970956996733     0.123203884266     0.000018607149    12.000000000000
         H           -0.676254003267    -1.043999115734     0.889552607149     1.007825032230
         H           -0.676266003267    -1.043998115734    -0.889579392851     1.007825032230
         H            0.680632996733     1.048937884266     0.889543607149     1.007825032230
         H            0.680646996733     1.048919884266    -0.889588392851     1.007825032230
         H           -3.727338003267     0.663168884266     0.000013607149     1.007825032230
         H           -3.091023003267    -0.746848115734     0.892364607149     1.007825032230
         H           -3.091043003267    -0.746873115734    -0.892312392851     1.007825032230
         H            3.095423996733     0.751795884266    -0.892314392851     1.007825032230
         H            3.731717996733    -0.658239115734     0.000023607149     1.007825032230
         H            3.095401996733     0.751784884266     0.892362607149     1.007825032230

  Basis Set: AUG-CC-PVTZ
    Blend: AUG-CC-PVTZ
  Basis Set: (AUG-CC-PVTZ AUX)
    Blend: AUG-CC-PVTZ-JKFIT
	 Reference Energy          =    -307.0996192078244462 [Eh]
	 Singles Energy            =      -0.0000000000000000 [Eh]
	 Same-Spin Energy          =      -0.2947041948771306 [Eh]
	 Opposite-Spin Energy      =      -1.0072843471709758 [Eh]
	 Correlation Energy        =      -1.3019885420481065 [Eh]
	 Total Energy              =    -308.4016077498725394 [Eh]

	 ================> DF-SCS-MP2 Energies <==================
	-----------------------------------------------------------
	 SCS Same-Spin Scale       =       0.3333333333333333 [-]
	 SCS Opposite-Spin Scale   =       1.2000000000000000 [-]
	 SCS Same-Spin Energy      =      -0.0982347316257102 [Eh]
	 SCS Opposite-Spin Energy  =      -1.2087412166051710 [Eh]
	 SCS Correlation Energy    =      -1.3069759482308811 [Eh]
	 SCS Total Energy          =    -308.4065951560553458 [Eh]
	-----------------------------------------------------------

  Dipole Moment: [D]
     X:    -0.0212      Y:    -0.0225      Z:     0.0000     Total:     0.0309

*** Psi4 exiting successfully. Buy a developer a beer!
