                               Psi4 1.4a3.dev225

  ==> Input File <==

--------------------------------------------------------------------------
#psi4
#
memory 32 gb

molecule  {
0 1
  O       -1.7104100     0.5323320    -0.0000080
  O        1.7104100    -0.5323320    -0.0000010
  C       -0.6421510    -0.4001880    -0.0000140
  C        0.6421510     0.4001890    -0.0000170
  C       -2.9687670    -0.1207390     0.0000150
  C        2.9687670     0.1207390     0.0000180
  H       -0.6784440    -1.0464640     0.8895520
  H       -0.6784560    -1.0464630    -0.8895800
  H        0.6784430     1.0464730     0.8895430
  H        0.6784570     1.0464550    -0.8895890
  H       -3.7295280     0.6607040     0.0000130
  H       -3.0932130    -0.7493130     0.8923640
  H       -3.0932330    -0.7493380    -0.8923130
  H        3.0932340     0.7493310    -0.8923150
  H        3.7295280    -0.6607040     0.0000230
  H        3.0932120     0.7493200     0.8923620
units angstrom
no_reorient  #important for SAPT in psi4, default
symmetry c1  #important for SAPT in psi4, default
}

set PROPERTIES_ORIGIN ["COM"]
properties('MP2/aug-cc-pvtz', properties = ['dipole'])
--------------------------------------------------------------------------

    Molecular point group: c1
  Charge       = 0
  Multiplicity = 1
  Basis Set: AUG-CC-PVTZ
    Blend: AUG-CC-PVTZ
  Basis Set: (AUG-CC-PVTZ AUX)
    Blend: AUG-CC-PVTZ-JKFIT

    Orbital Energies [Eh]
    ---------------------

    Doubly Occupied:

       1A    -20.558813     2A    -20.558812     3A    -11.272231
       4A    -11.271567     5A    -11.271454     6A    -11.271453
       7A     -1.379182     8A     -1.367606     9A     -1.024033
      10A     -0.933427    11A     -0.884492    12A     -0.829604
      13A     -0.687243    14A     -0.666370    15A     -0.653299
      16A     -0.642672    17A     -0.611104    18A     -0.593157
      19A     -0.574389    20A     -0.514753    21A     -0.503554
      22A     -0.489770    23A     -0.474719    24A     -0.426906
      25A     -0.425274

  @DF-RHF Final Energy:  -307.10038008367604

   => Energetics <=

    Nuclear Repulsion Energy =            252.6326428047406978
    One-Electron Energy =                -919.6942771257531604
    Two-Electron Energy =                 359.9612542373363908
    Total Energy =                       -307.1003800836760433
  Basis Set: (AUG-CC-PVTZ AUX)
    Blend: AUG-CC-PVTZ-RI
    Molecular point group: c1

    Geometry (in Angstrom), charge = 0, multiplicity = 1:

       Center              X                  Y                   Z               Mass
    ------------   -----------------  -----------------  -----------------  -----------------
         O           -1.710410000000     0.532331855578    -0.000007339558    15.994914619570
         O            1.710410000000    -0.532332144422    -0.000000339558    15.994914619570
         C           -0.642151000000    -0.400188144422    -0.000013339558    12.000000000000
         C            0.642151000000     0.400188855578    -0.000016339558    12.000000000000
         C           -2.968767000000    -0.120739144422     0.000015660442    12.000000000000
         C            2.968767000000     0.120738855578     0.000018660442    12.000000000000
         H           -0.678444000000    -1.046464144422     0.889552660442     1.007825032230
         H           -0.678456000000    -1.046463144422    -0.889579339558     1.007825032230
         H            0.678443000000     1.046472855578     0.889543660442     1.007825032230
         H            0.678457000000     1.046454855578    -0.889588339558     1.007825032230
         H           -3.729528000000     0.660703855578     0.000013660442     1.007825032230
         H           -3.093213000000    -0.749313144422     0.892364660442     1.007825032230
         H           -3.093233000000    -0.749338144422    -0.892312339558     1.007825032230
         H            3.093234000000     0.749330855578    -0.892314339558     1.007825032230
         H            3.729528000000    -0.660704144422     0.000023660442     1.007825032230
         H            3.093212000000     0.749319855578     0.892362660442     1.007825032230

  Basis Set: AUG-CC-PVTZ
    Blend: AUG-CC-PVTZ
  Basis Set: (AUG-CC-PVTZ AUX)
    Blend: AUG-CC-PVTZ-JKFIT
	 Reference Energy          =    -307.1003800836760433 [Eh]
	 Singles Energy            =      -0.0000000000000000 [Eh]
	 Same-Spin Energy          =      -0.2947352036746668 [Eh]
	 Opposite-Spin Energy      =      -1.0071735197321858 [Eh]
	 Correlation Energy        =      -1.3019087234068527 [Eh]
	 Total Energy              =    -308.4022888070828685 [Eh]

	 ================> DF-SCS-MP2 Energies <==================
	-----------------------------------------------------------
	 SCS Same-Spin Scale       =       0.3333333333333333 [-]
	 SCS Opposite-Spin Scale   =       1.2000000000000000 [-]
	 SCS Same-Spin Energy      =      -0.0982450678915556 [Eh]
	 SCS Opposite-Spin Energy  =      -1.2086082236786229 [Eh]
	 SCS Correlation Energy    =      -1.3068532915701785 [Eh]
	 SCS Total Energy          =    -308.4072333752462214 [Eh]
	-----------------------------------------------------------

  Dipole Moment: [D]
     X:    -0.0000      Y:     0.0000      Z:     0.0000     Total:     0.0000

*** Psi4 exiting successfully. Buy a developer a beer!
