                               Psi4 1.4a3.dev225

  ==> Input File <==

--------------------------------------------------------------------------
#psi4
#
memory 32 gb

molecule  {
0 1
  O       -1.7104100     0.5323320    -0.0000080
  O        1.7104100    -0.5323320    -0.0000010
  C       -0.6421510    -0.4001880    -0.0000140
  C        0.6421510     0.4001890    -0.0000170
  C       -2.9687670    -0.1207390     0.0000150
  C        2.9687670     0.1207390     0.0000180
  H       -0.6801630    -1.0770668     0.8664199
  H       -0.6784560    -1.0464630    -0.8895800
  H        0.6784430     1.0464730     0.8895430
  H        0.6784570     1.0464550    -0.8895890
  H       -3.7295280     0.6607040     0.0000130
  H       -3.0932130    -0.7493130     0.8923640
  H       -3.0932330    -0.7493380    -0.8923130
  H        3.0932340     0.7493310    -0.8923150
  H        3.7295280    -0.6607040     0.0000230
  H        3.0932120     0.7493200     0.8923620
units angstrom
no_reorient  #important for SAPT in psi4, default
symmetry c1  #important for SAPT in psi4, default
}

set PROPERTIES_ORIGIN ["COM"]
properties('MP2/aug-cc-pvtz', properties = ['dipole'])
--------------------------------------------------------------------------

    Molecular point group: c1
  Charge       = 0
  Multiplicity = 1
  Basis Set: AUG-CC-PVTZ
    Blend: AUG-CC-PVTZ
  Basis Set: (AUG-CC-PVTZ AUX)
    Blend: AUG-CC-PVTZ-JKFIT

    Orbital Energies [Eh]
    ---------------------

    Doubly Occupied:

       1A    -20.559325     2A    -20.558789     3A    -11.272360
       4A    -11.271632     5A    -11.271571     6A    -11.271439
       7A     -1.379230     8A     -1.367687     9A     -1.023889
      10A     -0.933455    11A     -0.884630    12A     -0.830468
      13A     -0.686100    14A     -0.666964    15A     -0.653425
      16A     -0.642403    17A     -0.611921    18A     -0.593304
      19A     -0.573708    20A     -0.513708    21A     -0.503616
      22A     -0.490083    23A     -0.475916    24A     -0.426573
      25A     -0.425066

  @DF-RHF Final Energy:  -307.10016764421357

   => Energetics <=

    Nuclear Repulsion Energy =            252.6106503238430889
    One-Electron Energy =                -919.6471115943547829
    Two-Electron Energy =                 359.9362936262981520
    Total Energy =                       -307.1001676442135704
  Basis Set: (AUG-CC-PVTZ AUX)
    Blend: AUG-CC-PVTZ-RI
    Molecular point group: c1

    Geometry (in Angstrom), charge = 0, multiplicity = 1:

       Center              X                  Y                   Z               Mass
    ------------   -----------------  -----------------  -----------------  -----------------
         O           -1.710390765092     0.532674288414     0.000251499195    15.994914619570
         O            1.710429234908    -0.531989711586     0.000258499195    15.994914619570
         C           -0.642131765092    -0.399845711586     0.000245499195    12.000000000000
         C            0.642170234908     0.400531288414     0.000242499195    12.000000000000
         C           -2.968747765092    -0.120396711586     0.000274499195    12.000000000000
         C            2.968786234908     0.121081288414     0.000277499195    12.000000000000
         H           -0.680143765092    -1.076724511586     0.866679399195     1.007825032230
         H           -0.678436765092    -1.046120711586    -0.889320500805     1.007825032230
         H            0.678462234908     1.046815288414     0.889802499195     1.007825032230
         H            0.678476234908     1.046797288414    -0.889329500805     1.007825032230
         H           -3.729508765092     0.661046288414     0.000272499195     1.007825032230
         H           -3.093193765092    -0.748970711586     0.892623499195     1.007825032230
         H           -3.093213765092    -0.748995711586    -0.892053500805     1.007825032230
         H            3.093253234908     0.749673288414    -0.892055500805     1.007825032230
         H            3.729547234908    -0.660361711586     0.000282499195     1.007825032230
         H            3.093231234908     0.749662288414     0.892621499195     1.007825032230

  Basis Set: AUG-CC-PVTZ
    Blend: AUG-CC-PVTZ
  Basis Set: (AUG-CC-PVTZ AUX)
    Blend: AUG-CC-PVTZ-JKFIT
	 Reference Energy          =    -307.1001676442135704 [Eh]
	 Singles Energy            =      -0.0000000000000000 [Eh]
	 Same-Spin Energy          =      -0.2947421305199674 [Eh]
	 Opposite-Spin Energy      =      -1.0071579797082602 [Eh]
	 Correlation Energy        =      -1.3019001102282277 [Eh]
	 Total Energy              =    -308.4020677544418163 [Eh]

	 ================> DF-SCS-MP2 Energies <==================
	-----------------------------------------------------------
	 SCS Same-Spin Scale       =       0.3333333333333333 [-]
	 SCS Opposite-Spin Scale   =       1.2000000000000000 [-]
	 SCS Same-Spin Energy      =      -0.0982473768399891 [Eh]
	 SCS Opposite-Spin Energy  =      -1.2085895756499121 [Eh]
	 SCS Correlation Energy    =      -1.3068369524899013 [Eh]
	 SCS Total Energy          =    -308.4070045967034730 [Eh]
	-----------------------------------------------------------

  Dipole Moment: [D]
     X:    -0.0055      Y:    -0.0056      Z:    -0.0004     Total:     0.0078

*** Psi4 exiting successfully. Buy a developer a beer!
