                               Psi4 1.4a3.dev225

  ==> Input File <==

--------------------------------------------------------------------------
#psi4
#
memory 32 gb

molecule  {
0 1
  O       -1.7104100     0.5323320    -0.0000080
  O        1.7104100    -0.5323320    -0.0000010
  C       -0.6421510    -0.4001880    -0.0000140
  C        0.5997168     0.3737440    -0.0000169
  C       -2.9687670    -0.1207390     0.0000150
  C        2.9687670     0.1207390     0.0000180
  H       -0.6784440    -1.0464640     0.8895520
  H       -0.6784560    -1.0464630    -0.8895800
  H        0.6784430     1.0464730     0.8895430
  H        0.6784570     1.0464550    -0.8895890
  H       -3.7295280     0.6607040     0.0000130
  H       -3.0932130    -0.7493130     0.8923640
  H       -3.0932330    -0.7493380    -0.8923130
  H        3.0932340     0.7493310    -0.8923150
  H        3.7295280    -0.6607040     0.0000230
  H        3.0932120     0.7493200     0.8923620
units angstrom
no_reorient  #important for SAPT in psi4, default
symmetry c1  #important for SAPT in psi4, default
}

set PROPERTIES_ORIGIN ["COM"]
properties('MP2/aug-cc-pvtz', properties = ['dipole'])
--------------------------------------------------------------------------

    Molecular point group: c1
  Charge       = 0
  Multiplicity = 1
  Basis Set: AUG-CC-PVTZ
    Blend: AUG-CC-PVTZ
  Basis Set: (AUG-CC-PVTZ AUX)
    Blend: AUG-CC-PVTZ-JKFIT

    Orbital Energies [Eh]
    ---------------------

    Doubly Occupied:

       1A    -20.560492     2A    -20.556269     3A    -11.273924
       4A    -11.272515     5A    -11.271205     6A    -11.271118
       7A     -1.378961     8A     -1.363571     9A     -1.033965
      10A     -0.933230    11A     -0.886081    12A     -0.826210
      13A     -0.687731    14A     -0.667618    15A     -0.656516
      16A     -0.640333    17A     -0.607681    18A     -0.592537
      19A     -0.575494    20A     -0.510322    21A     -0.509585
      22A     -0.489107    23A     -0.479061    24A     -0.427512
      25A     -0.421629

  @DF-RHF Final Energy:  -307.09735035736298

   => Energetics <=

    Nuclear Repulsion Energy =            252.9387098821573829
    One-Electron Energy =                -920.2867837789460737
    Two-Electron Energy =                 360.2507235394257350
    Total Energy =                       -307.0973503573629841
  Basis Set: (AUG-CC-PVTZ AUX)
    Blend: AUG-CC-PVTZ-RI
    Molecular point group: c1

    Geometry (in Angstrom), charge = 0, multiplicity = 1:

       Center              X                  Y                   Z               Mass
    ------------   -----------------  -----------------  -----------------  -----------------
         O           -1.704756383286     0.535855190388    -0.000007352881    15.994914619570
         O            1.716063616714    -0.528808809612    -0.000000352881    15.994914619570
         C           -0.636497383286    -0.396664809612    -0.000013352881    12.000000000000
         C            0.605370416714     0.377267190388    -0.000016252881    12.000000000000
         C           -2.963113383286    -0.117215809612     0.000015647119    12.000000000000
         C            2.974420616714     0.124262190388     0.000018647119    12.000000000000
         H           -0.672790383286    -1.042940809612     0.889552647119     1.007825032230
         H           -0.672802383286    -1.042939809612    -0.889579352881     1.007825032230
         H            0.684096616714     1.049996190388     0.889543647119     1.007825032230
         H            0.684110616714     1.049978190388    -0.889588352881     1.007825032230
         H           -3.723874383286     0.664227190388     0.000013647119     1.007825032230
         H           -3.087559383286    -0.745789809612     0.892364647119     1.007825032230
         H           -3.087579383286    -0.745814809612    -0.892312352881     1.007825032230
         H            3.098887616714     0.752854190388    -0.892314352881     1.007825032230
         H            3.735181616714    -0.657180809612     0.000023647119     1.007825032230
         H            3.098865616714     0.752843190388     0.892362647119     1.007825032230

  Basis Set: AUG-CC-PVTZ
    Blend: AUG-CC-PVTZ
  Basis Set: (AUG-CC-PVTZ AUX)
    Blend: AUG-CC-PVTZ-JKFIT
	 Reference Energy          =    -307.0973503573629841 [Eh]
	 Singles Energy            =      -0.0000000000000000 [Eh]
	 Same-Spin Energy          =      -0.2949841274579099 [Eh]
	 Opposite-Spin Energy      =      -1.0074912989451577 [Eh]
	 Correlation Energy        =      -1.3024754264030676 [Eh]
	 Total Energy              =    -308.3998257837660617 [Eh]

	 ================> DF-SCS-MP2 Energies <==================
	-----------------------------------------------------------
	 SCS Same-Spin Scale       =       0.3333333333333333 [-]
	 SCS Opposite-Spin Scale   =       1.2000000000000000 [-]
	 SCS Same-Spin Energy      =      -0.0983280424859700 [Eh]
	 SCS Opposite-Spin Energy  =      -1.2089895587341892 [Eh]
	 SCS Correlation Energy    =      -1.3073176012201593 [Eh]
	 SCS Total Energy          =    -308.4046679585831612 [Eh]
	-----------------------------------------------------------

  Dipole Moment: [D]
     X:    -0.0941      Y:    -0.0204      Z:     0.0000     Total:     0.0963

*** Psi4 exiting successfully. Buy a developer a beer!
