                               Psi4 1.4a3.dev225

  ==> Input File <==

--------------------------------------------------------------------------
#psi4
#
memory 32 gb

molecule  {
0 1
  O       -1.6911856     0.4877957     0.0862433
  O        1.7104100    -0.5323320    -0.0000010
  C       -0.6421510    -0.4001880    -0.0000140
  C        0.6421510     0.4001890    -0.0000170
  C       -2.9687670    -0.1207390     0.0000150
  C        2.9687670     0.1207390     0.0000180
  H       -0.6784440    -1.0464640     0.8895520
  H       -0.6784560    -1.0464630    -0.8895800
  H        0.6784430     1.0464730     0.8895430
  H        0.6784570     1.0464550    -0.8895890
  H       -3.7295280     0.6607040     0.0000130
  H       -3.0932130    -0.7493130     0.8923640
  H       -3.0932330    -0.7493380    -0.8923130
  H        3.0932340     0.7493310    -0.8923150
  H        3.7295280    -0.6607040     0.0000230
  H        3.0932120     0.7493200     0.8923620
units angstrom
no_reorient  #important for SAPT in psi4, default
symmetry c1  #important for SAPT in psi4, default
}

set PROPERTIES_ORIGIN ["COM"]
properties('MP2/aug-cc-pvtz', properties = ['dipole'])
--------------------------------------------------------------------------

    Molecular point group: c1
  Charge       = 0
  Multiplicity = 1
  Basis Set: AUG-CC-PVTZ
    Blend: AUG-CC-PVTZ
  Basis Set: (AUG-CC-PVTZ AUX)
    Blend: AUG-CC-PVTZ-JKFIT

    Orbital Energies [Eh]
    ---------------------

    Doubly Occupied:

       1A    -20.557803     2A    -20.556652     3A    -11.273816
       4A    -11.270763     5A    -11.270739     6A    -11.268054
       7A     -1.388050     8A     -1.370064     9A     -1.024740
      10A     -0.937207    11A     -0.883344    12A     -0.828281
      13A     -0.689855    14A     -0.669809    15A     -0.656828
      16A     -0.644415    17A     -0.614236    18A     -0.594899
      19A     -0.572741    20A     -0.516311    21A     -0.508855
      22A     -0.489025    23A     -0.469511    24A     -0.425264
      25A     -0.420686

  @DF-RHF Final Energy:  -307.09945080866936

   => Energetics <=

    Nuclear Repulsion Energy =            253.4661223801472261
    One-Electron Energy =                -921.3272474553824622
    Two-Electron Energy =                 360.7616742665658762
    Total Energy =                       -307.0994508086693600
  Basis Set: (AUG-CC-PVTZ AUX)
    Blend: AUG-CC-PVTZ-RI
    Molecular point group: c1

    Geometry (in Angstrom), charge = 0, multiplicity = 1:

       Center              X                  Y                   Z               Mass
    ------------   -----------------  -----------------  -----------------  -----------------
         O           -1.694599602365     0.495704620803     0.070926856024    15.994914619570
         O            1.706995997635    -0.524423079197    -0.015317443976    15.994914619570
         C           -0.645565002365    -0.392279079197    -0.015330443976    12.000000000000
         C            0.638736997635     0.408097920803    -0.015333443976    12.000000000000
         C           -2.972181002365    -0.112830079197    -0.015301443976    12.000000000000
         C            2.965352997635     0.128647920803    -0.015298443976    12.000000000000
         H           -0.681858002365    -1.038555079197     0.874235556024     1.007825032230
         H           -0.681870002365    -1.038554079197    -0.904896443976     1.007825032230
         H            0.675028997635     1.054381920803     0.874226556024     1.007825032230
         H            0.675042997635     1.054363920803    -0.904905443976     1.007825032230
         H           -3.732942002365     0.668612920803    -0.015303443976     1.007825032230
         H           -3.096627002365    -0.741404079197     0.877047556024     1.007825032230
         H           -3.096647002365    -0.741429079197    -0.907629443976     1.007825032230
         H            3.089819997635     0.757239920803    -0.907631443976     1.007825032230
         H            3.726113997635    -0.652795079197    -0.015293443976     1.007825032230
         H            3.089797997635     0.757228920803     0.877045556024     1.007825032230

  Basis Set: AUG-CC-PVTZ
    Blend: AUG-CC-PVTZ
  Basis Set: (AUG-CC-PVTZ AUX)
    Blend: AUG-CC-PVTZ-JKFIT
	 Reference Energy          =    -307.0994508086693600 [Eh]
	 Singles Energy            =      -0.0000000000000000 [Eh]
	 Same-Spin Energy          =      -0.2945794981690965 [Eh]
	 Opposite-Spin Energy      =      -1.0061117022146675 [Eh]
	 Correlation Energy        =      -1.3006912003837641 [Eh]
	 Total Energy              =    -308.4001420090531269 [Eh]

	 ================> DF-SCS-MP2 Energies <==================
	-----------------------------------------------------------
	 SCS Same-Spin Scale       =       0.3333333333333333 [-]
	 SCS Opposite-Spin Scale   =       1.2000000000000000 [-]
	 SCS Same-Spin Energy      =      -0.0981931660563655 [Eh]
	 SCS Opposite-Spin Energy  =      -1.2073340426576009 [Eh]
	 SCS Correlation Energy    =      -1.3055272087139664 [Eh]
	 SCS Total Energy          =    -308.4049780173833142 [Eh]
	-----------------------------------------------------------

  Dipole Moment: [D]
     X:    -0.1365      Y:     0.1213      Z:    -0.1712     Total:     0.2503

*** Psi4 exiting successfully. Buy a developer a beer!
