                               Psi4 1.4a3.dev225

  ==> Input File <==

--------------------------------------------------------------------------
#psi4
#
memory 32 gb

molecule  {
0 1
  O       -1.7104100     0.5323320    -0.0000080
  O        1.7104100    -0.5323320    -0.0000010
  C       -0.6421510    -0.4001880    -0.0000140
  C        0.6421510     0.4001890    -0.0000170
  C       -2.9687670    -0.1207390     0.0000150
  C        2.9687670     0.1207390     0.0000180
  H       -0.6784440    -1.0464640     0.8895520
  H       -0.6784560    -1.0464630    -0.8895800
  H        0.6784430     1.0464730     0.8895430
  H        0.6784570     1.0464550    -0.8895890
  H       -3.7295280     0.6607040     0.0000130
  H       -3.0932130    -0.7493130     0.8923640
  H       -3.0932330    -0.7493380    -0.8923130
  H        3.0932340     0.7493310    -0.8923150
  H        3.7295280    -0.6607040     0.0000230
  H        3.0988759     0.7779288     0.9329755
units angstrom
no_reorient  #important for SAPT in psi4, default
symmetry c1  #important for SAPT in psi4, default
}

set PROPERTIES_ORIGIN ["COM"]
properties('MP2/aug-cc-pvtz', properties = ['dipole'])
--------------------------------------------------------------------------

    Molecular point group: c1
  Charge       = 0
  Multiplicity = 1
  Basis Set: AUG-CC-PVTZ
    Blend: AUG-CC-PVTZ
  Basis Set: (AUG-CC-PVTZ AUX)
    Blend: AUG-CC-PVTZ-JKFIT

    Orbital Energies [Eh]
    ---------------------

    Doubly Occupied:

       1A    -20.560091     2A    -20.558972     3A    -11.277598
       4A    -11.272468     5A    -11.271800     6A    -11.271568
       7A     -1.379642     8A     -1.368056     9A     -1.023885
      10A     -0.931560    11A     -0.882283    12A     -0.829500
      13A     -0.687006    14A     -0.665764    15A     -0.653595
      16A     -0.641171    17A     -0.610597    18A     -0.593422
      19A     -0.571775    20A     -0.513238    21A     -0.503243
      22A     -0.489499    23A     -0.475026    24A     -0.426861
      25A     -0.424845

  @DF-RHF Final Energy:  -307.09821497839710

   => Energetics <=

    Nuclear Repulsion Energy =            252.4338076077472977
    One-Electron Energy =                -919.2971176303850598
    Two-Electron Energy =                 359.7650950442406383
    Total Energy =                       -307.0982149783970954
  Basis Set: (AUG-CC-PVTZ AUX)
    Blend: AUG-CC-PVTZ-RI
    Molecular point group: c1

    Geometry (in Angstrom), charge = 0, multiplicity = 1:

       Center              X                  Y                   Z               Mass
    ------------   -----------------  -----------------  -----------------  -----------------
         O           -1.710473376728     0.532011734788    -0.000461788039    15.994914619570
         O            1.710346623272    -0.532652265212    -0.000454788039    15.994914619570
         C           -0.642214376728    -0.400508265212    -0.000467788039    12.000000000000
         C            0.642087623272     0.399868734788    -0.000470788039    12.000000000000
         C           -2.968830376728    -0.121059265212    -0.000438788039    12.000000000000
         C            2.968703623272     0.120418734788    -0.000435788039    12.000000000000
         H           -0.678507376728    -1.046784265212     0.889098211961     1.007825032230
         H           -0.678519376728    -1.046783265212    -0.890033788039     1.007825032230
         H            0.678379623272     1.046152734788     0.889089211961     1.007825032230
         H            0.678393623272     1.046134734788    -0.890042788039     1.007825032230
         H           -3.729591376728     0.660383734788    -0.000440788039     1.007825032230
         H           -3.093276376728    -0.749633265212     0.891910211961     1.007825032230
         H           -3.093296376728    -0.749658265212    -0.892766788039     1.007825032230
         H            3.093170623272     0.749010734788    -0.892768788039     1.007825032230
         H            3.729464623272    -0.661024265212    -0.000430788039     1.007825032230
         H            3.098812523272     0.777608534788     0.932521711961     1.007825032230

  Basis Set: AUG-CC-PVTZ
    Blend: AUG-CC-PVTZ
  Basis Set: (AUG-CC-PVTZ AUX)
    Blend: AUG-CC-PVTZ-JKFIT
	 Reference Energy          =    -307.0982149783970954 [Eh]
	 Singles Energy            =      -0.0000000000000000 [Eh]
	 Same-Spin Energy          =      -0.2947835236054534 [Eh]
	 Opposite-Spin Energy      =      -1.0075573655172383 [Eh]
	 Correlation Energy        =      -1.3023408891226917 [Eh]
	 Total Energy              =    -308.4005558675198131 [Eh]

	 ================> DF-SCS-MP2 Energies <==================
	-----------------------------------------------------------
	 SCS Same-Spin Scale       =       0.3333333333333333 [-]
	 SCS Opposite-Spin Scale   =       1.2000000000000000 [-]
	 SCS Same-Spin Energy      =      -0.0982611745351511 [Eh]
	 SCS Opposite-Spin Energy  =      -1.2090688386206858 [Eh]
	 SCS Correlation Energy    =      -1.3073300131558370 [Eh]
	 SCS Total Energy          =    -308.4055449915529152 [Eh]
	-----------------------------------------------------------

  Dipole Moment: [D]
     X:    -0.0259      Y:    -0.0261      Z:    -0.0336     Total:     0.0498

*** Psi4 exiting successfully. Buy a developer a beer!
