                               Psi4 1.4a3.dev225

  ==> Input File <==

--------------------------------------------------------------------------
#psi4
#
memory 32 gb

molecule  {
0 1
  O       -1.7104100     0.5323320    -0.0000080
  O        1.7104100    -0.5323320    -0.0000010
  C       -0.6421510    -0.4001880    -0.0000140
  C        0.6421510     0.4001890    -0.0000170
  C       -2.9687670    -0.1207390     0.0000150
  C        2.9687670     0.1207390     0.0000180
  H       -0.6784440    -1.0464640     0.8895520
  H       -0.6784560    -1.0464630    -0.8895800
  H        0.6784430     1.0464730     0.8895430
  H        0.6784570     1.0464550    -0.8895890
  H       -3.7295280     0.6607040     0.0000130
  H       -3.0932130    -0.7493130     0.8923640
  H       -3.0932330    -0.7493380    -0.8923130
  H        3.0932340     0.7493310    -0.8923150
  H        3.7363535    -0.6538272     0.0164068
  H        3.0932120     0.7493200     0.8923620
units angstrom
no_reorient  #important for SAPT in psi4, default
symmetry c1  #important for SAPT in psi4, default
}

set PROPERTIES_ORIGIN ["COM"]
properties('MP2/aug-cc-pvtz', properties = ['dipole'])
--------------------------------------------------------------------------

    Molecular point group: c1
  Charge       = 0
  Multiplicity = 1
  Basis Set: AUG-CC-PVTZ
    Blend: AUG-CC-PVTZ
  Basis Set: (AUG-CC-PVTZ AUX)
    Blend: AUG-CC-PVTZ-JKFIT

    Orbital Energies [Eh]
    ---------------------

    Doubly Occupied:

       1A    -20.558945     2A    -20.558841     3A    -11.272297
       4A    -11.271631     5A    -11.271473     6A    -11.271469
       7A     -1.379206     8A     -1.367626     9A     -1.024028
      10A     -0.933468    11A     -0.884633    12A     -0.829631
      13A     -0.687279    14A     -0.666412    15A     -0.653259
      16A     -0.642685    17A     -0.611102    18A     -0.593271
      19A     -0.574382    20A     -0.514792    21A     -0.503603
      22A     -0.489647    23A     -0.474742    24A     -0.426940
      25A     -0.425310

  @DF-RHF Final Energy:  -307.10037455617891

   => Energetics <=

    Nuclear Repulsion Energy =            252.6226906552842308
    One-Electron Energy =                -919.6727860586256611
    Two-Electron Energy =                 359.9497208471624958
    Total Energy =                       -307.1003745561789060
  Basis Set: (AUG-CC-PVTZ AUX)
    Blend: AUG-CC-PVTZ-RI
    Molecular point group: c1

    Geometry (in Angstrom), charge = 0, multiplicity = 1:

       Center              X                  Y                   Z               Mass
    ------------   -----------------  -----------------  -----------------  -----------------
         O           -1.710486374558     0.532254906994    -0.000190667590    15.994914619570
         O            1.710333625442    -0.532409093006    -0.000183667590    15.994914619570
         C           -0.642227374558    -0.400265093006    -0.000196667590    12.000000000000
         C            0.642074625442     0.400111906994    -0.000199667590    12.000000000000
         C           -2.968843374558    -0.120816093006    -0.000167667590    12.000000000000
         C            2.968690625442     0.120661906994    -0.000164667590    12.000000000000
         H           -0.678520374558    -1.046541093006     0.889369332410     1.007825032230
         H           -0.678532374558    -1.046540093006    -0.889762667590     1.007825032230
         H            0.678366625442     1.046395906994     0.889360332410     1.007825032230
         H            0.678380625442     1.046377906994    -0.889771667590     1.007825032230
         H           -3.729604374558     0.660626906994    -0.000169667590     1.007825032230
         H           -3.093289374558    -0.749390093006     0.892181332410     1.007825032230
         H           -3.093309374558    -0.749415093006    -0.892495667590     1.007825032230
         H            3.093157625442     0.749253906994    -0.892497667590     1.007825032230
         H            3.736277125442    -0.653904293006     0.016224132410     1.007825032230
         H            3.093135625442     0.749242906994     0.892179332410     1.007825032230

  Basis Set: AUG-CC-PVTZ
    Blend: AUG-CC-PVTZ
  Basis Set: (AUG-CC-PVTZ AUX)
    Blend: AUG-CC-PVTZ-JKFIT
	 Reference Energy          =    -307.1003745561789060 [Eh]
	 Singles Energy            =      -0.0000000000000000 [Eh]
	 Same-Spin Energy          =      -0.2947312730970405 [Eh]
	 Opposite-Spin Energy      =      -1.0071590632048348 [Eh]
	 Correlation Energy        =      -1.3018903363018755 [Eh]
	 Total Energy              =    -308.4022648924807868 [Eh]

	 ================> DF-SCS-MP2 Energies <==================
	-----------------------------------------------------------
	 SCS Same-Spin Scale       =       0.3333333333333333 [-]
	 SCS Opposite-Spin Scale   =       1.2000000000000000 [-]
	 SCS Same-Spin Energy      =      -0.0982437576990135 [Eh]
	 SCS Opposite-Spin Energy  =      -1.2085908758458017 [Eh]
	 SCS Correlation Energy    =      -1.3068346335448151 [Eh]
	 SCS Total Energy          =    -308.4072091897237442 [Eh]
	-----------------------------------------------------------

  Dipole Moment: [D]
     X:     0.0005      Y:     0.0007      Z:     0.0058     Total:     0.0059

*** Psi4 exiting successfully. Buy a developer a beer!
