                               Psi4 1.4a3.dev225

  ==> Input File <==

--------------------------------------------------------------------------
#psi4
#
memory 32 gb

molecule  {
0 1
  O       -1.7000249     0.5104484     0.0431439
  O        1.7104100    -0.5323320    -0.0000010
  C       -0.6421510    -0.4001880    -0.0000140
  C        0.6421510     0.4001890    -0.0000170
  C       -2.9687670    -0.1207390     0.0000150
  C        2.9687670     0.1207390     0.0000180
  H       -0.6784440    -1.0464640     0.8895520
  H       -0.6784560    -1.0464630    -0.8895800
  H        0.6784430     1.0464730     0.8895430
  H        0.6784570     1.0464550    -0.8895890
  H       -3.7295280     0.6607040     0.0000130
  H       -3.0932130    -0.7493130     0.8923640
  H       -3.0932330    -0.7493380    -0.8923130
  H        3.0932340     0.7493310    -0.8923150
  H        3.7295280    -0.6607040     0.0000230
  H        3.0932120     0.7493200     0.8923620
units angstrom
no_reorient  #important for SAPT in psi4, default
symmetry c1  #important for SAPT in psi4, default
}

set PROPERTIES_ORIGIN ["COM"]
properties('MP2/aug-cc-pvtz', properties = ['dipole'])
--------------------------------------------------------------------------

    Molecular point group: c1
  Charge       = 0
  Multiplicity = 1
  Basis Set: AUG-CC-PVTZ
    Blend: AUG-CC-PVTZ
  Basis Set: (AUG-CC-PVTZ AUX)
    Blend: AUG-CC-PVTZ-JKFIT

    Orbital Energies [Eh]
    ---------------------

    Doubly Occupied:

       1A    -20.558277     2A    -20.557746     3A    -11.272663
       4A    -11.271343     5A    -11.271078     6A    -11.269824
       7A     -1.383091     8A     -1.369451     9A     -1.024342
      10A     -0.935365    11A     -0.883879    12A     -0.828936
      13A     -0.688510    14A     -0.668005    15A     -0.655063
      16A     -0.643672    17A     -0.612557    18A     -0.594165
      19A     -0.573755    20A     -0.515349    21A     -0.506403
      22A     -0.489399    23A     -0.471984    24A     -0.425792
      25A     -0.423586

  @DF-RHF Final Energy:  -307.10070447606040

   => Energetics <=

    Nuclear Repulsion Energy =            253.0692745897694067
    One-Electron Energy =                -920.5514885211011915
    Two-Electron Energy =                 360.3815094552713845
    Total Energy =                       -307.1007044760604003
  Basis Set: (AUG-CC-PVTZ AUX)
    Blend: AUG-CC-PVTZ-RI
    Molecular point group: c1

    Geometry (in Angstrom), charge = 0, multiplicity = 1:

       Center              X                  Y                   Z               Mass
    ------------   -----------------  -----------------  -----------------  -----------------
         O           -1.701869158128     0.514334497133     0.035481346576    15.994914619570
         O            1.708565741872    -0.528445902867    -0.007663553424    15.994914619570
         C           -0.643995258128    -0.396301902867    -0.007676553424    12.000000000000
         C            0.640306741872     0.404075097133    -0.007679553424    12.000000000000
         C           -2.970611258128    -0.116852902867    -0.007647553424    12.000000000000
         C            2.966922741872     0.124625097133    -0.007644553424    12.000000000000
         H           -0.680288258128    -1.042577902867     0.881889446576     1.007825032230
         H           -0.680300258128    -1.042576902867    -0.897242553424     1.007825032230
         H            0.676598741872     1.050359097133     0.881880446576     1.007825032230
         H            0.676612741872     1.050341097133    -0.897251553424     1.007825032230
         H           -3.731372258128     0.664590097133    -0.007649553424     1.007825032230
         H           -3.095057258128    -0.745426902867     0.884701446576     1.007825032230
         H           -3.095077258128    -0.745451902867    -0.899975553424     1.007825032230
         H            3.091389741872     0.753217097133    -0.899977553424     1.007825032230
         H            3.727683741872    -0.656817902867    -0.007639553424     1.007825032230
         H            3.091367741872     0.753206097133     0.884699446576     1.007825032230

  Basis Set: AUG-CC-PVTZ
    Blend: AUG-CC-PVTZ
  Basis Set: (AUG-CC-PVTZ AUX)
    Blend: AUG-CC-PVTZ-JKFIT
	 Reference Energy          =    -307.1007044760604003 [Eh]
	 Singles Energy            =      -0.0000000000000000 [Eh]
	 Same-Spin Energy          =      -0.2946319826606780 [Eh]
	 Opposite-Spin Energy      =      -1.0065734212618156 [Eh]
	 Correlation Energy        =      -1.3012054039224936 [Eh]
	 Total Energy              =    -308.4019098799828953 [Eh]

	 ================> DF-SCS-MP2 Energies <==================
	-----------------------------------------------------------
	 SCS Same-Spin Scale       =       0.3333333333333333 [-]
	 SCS Opposite-Spin Scale   =       1.2000000000000000 [-]
	 SCS Same-Spin Energy      =      -0.0982106608868927 [Eh]
	 SCS Opposite-Spin Energy  =      -1.2078881055141786 [Eh]
	 SCS Correlation Energy    =      -1.3060987664010713 [Eh]
	 SCS Total Energy          =    -308.4068032424614785 [Eh]
	-----------------------------------------------------------

  Dipole Moment: [D]
     X:    -0.0711      Y:     0.0599      Z:    -0.0853     Total:     0.1262

*** Psi4 exiting successfully. Buy a developer a beer!
