                               Psi4 1.4a3.dev225

  ==> Input File <==

--------------------------------------------------------------------------
#psi4
#
memory 32 gb

molecule  {
0 1
  O       -1.7104100     0.5323320    -0.0000080
  O        1.7104100    -0.5323320    -0.0000010
  C       -0.6421510    -0.4001880    -0.0000140
  C        0.6421510     0.4001890    -0.0000170
  C       -2.9687670    -0.1207390     0.0000150
  C        2.9687670     0.1207390     0.0000180
  H       -0.6784440    -1.0464640     0.8895520
  H       -0.6784560    -1.0464630    -0.8895800
  H        0.6751442     0.9877276     0.8086845
  H        0.6784570     1.0464550    -0.8895890
  H       -3.7295280     0.6607040     0.0000130
  H       -3.0932130    -0.7493130     0.8923640
  H       -3.0932330    -0.7493380    -0.8923130
  H        3.0932340     0.7493310    -0.8923150
  H        3.7295280    -0.6607040     0.0000230
  H        3.0932120     0.7493200     0.8923620
units angstrom
no_reorient  #important for SAPT in psi4, default
symmetry c1  #important for SAPT in psi4, default
}

set PROPERTIES_ORIGIN ["COM"]
properties('MP2/aug-cc-pvtz', properties = ['dipole'])
--------------------------------------------------------------------------

    Molecular point group: c1
  Charge       = 0
  Multiplicity = 1
  Basis Set: AUG-CC-PVTZ
    Blend: AUG-CC-PVTZ
  Basis Set: (AUG-CC-PVTZ AUX)
    Blend: AUG-CC-PVTZ-JKFIT

    Orbital Energies [Eh]
    ---------------------

    Doubly Occupied:

       1A    -20.558749     2A    -20.556908     3A    -11.271383
       4A    -11.271143     5A    -11.270951     6A    -11.259380
       7A     -1.378841     8A     -1.366996     9A     -1.027422
      10A     -0.933465    11A     -0.886396    12A     -0.838024
      13A     -0.691777    14A     -0.667229    15A     -0.652978
      16A     -0.643474    17A     -0.613428    18A     -0.593591
      19A     -0.576702    20A     -0.519009    21A     -0.503064
      22A     -0.489578    23A     -0.475032    24A     -0.428452
      25A     -0.425369

  @DF-RHF Final Energy:  -307.09503041367736

   => Energetics <=

    Nuclear Repulsion Energy =            253.1362159928028746
    One-Electron Energy =                -920.6638114801869506
    Two-Electron Energy =                 360.4325650737067690
    Total Energy =                       -307.0950304136773639
  Basis Set: (AUG-CC-PVTZ AUX)
    Blend: AUG-CC-PVTZ-RI
    Molecular point group: c1

    Geometry (in Angstrom), charge = 0, multiplicity = 1:

       Center              X                  Y                   Z               Mass
    ------------   -----------------  -----------------  -----------------  -----------------
         O           -1.710373087775     0.532989192616     0.000897434039    15.994914619570
         O            1.710446912225    -0.531674807384     0.000904434039    15.994914619570
         C           -0.642114087775    -0.399530807384     0.000891434039    12.000000000000
         C            0.642187912225     0.400846192616     0.000888434039    12.000000000000
         C           -2.968730087775    -0.120081807384     0.000920434039    12.000000000000
         C            2.968803912225     0.121396192616     0.000923434039    12.000000000000
         H           -0.678407087775    -1.045806807384     0.890457434039     1.007825032230
         H           -0.678419087775    -1.045805807384    -0.888674565961     1.007825032230
         H            0.675181112225     0.988384792616     0.809589934039     1.007825032230
         H            0.678493912225     1.047112192616    -0.888683565961     1.007825032230
         H           -3.729491087775     0.661361192616     0.000918434039     1.007825032230
         H           -3.093176087775    -0.748655807384     0.893269434039     1.007825032230
         H           -3.093196087775    -0.748680807384    -0.891407565961     1.007825032230
         H            3.093270912225     0.749988192616    -0.891409565961     1.007825032230
         H            3.729564912225    -0.660046807384     0.000928434039     1.007825032230
         H            3.093248912225     0.749977192616     0.893267434039     1.007825032230

  Basis Set: AUG-CC-PVTZ
    Blend: AUG-CC-PVTZ
  Basis Set: (AUG-CC-PVTZ AUX)
    Blend: AUG-CC-PVTZ-JKFIT
	 Reference Energy          =    -307.0950304136773639 [Eh]
	 Singles Energy            =      -0.0000000000000000 [Eh]
	 Same-Spin Energy          =      -0.2946037254823707 [Eh]
	 Opposite-Spin Energy      =      -1.0065475786586771 [Eh]
	 Correlation Energy        =      -1.3011513041410478 [Eh]
	 Total Energy              =    -308.3961817178184219 [Eh]

	 ================> DF-SCS-MP2 Energies <==================
	-----------------------------------------------------------
	 SCS Same-Spin Scale       =       0.3333333333333333 [-]
	 SCS Opposite-Spin Scale   =       1.2000000000000000 [-]
	 SCS Same-Spin Energy      =      -0.0982012418274569 [Eh]
	 SCS Opposite-Spin Energy  =      -1.2078570943904123 [Eh]
	 SCS Correlation Energy    =      -1.3060583362178693 [Eh]
	 SCS Total Energy          =    -308.4010887498952229 [Eh]
	-----------------------------------------------------------

  Dipole Moment: [D]
     X:    -0.0095      Y:     0.0502      Z:     0.0470     Total:     0.0694

*** Psi4 exiting successfully. Buy a developer a beer!
