                               Psi4 1.4a3.dev225

  ==> Input File <==

--------------------------------------------------------------------------
#psi4
#
memory 32 gb

molecule  {
0 1
  O       -1.7104100     0.5323320    -0.0000080
  O        1.7104100    -0.5323320    -0.0000010
  C       -0.6421510    -0.4001880    -0.0000140
  C        0.6421510     0.4001890    -0.0000170
  C       -2.9687670    -0.1207390     0.0000150
  C        2.9687670     0.1207390     0.0000180
  H       -0.6784440    -1.0464640     0.8895520
  H       -0.6784560    -1.0464630    -0.8895800
  H        0.6784430     1.0464730     0.8895430
  H        0.6784570     1.0464550    -0.8895890
  H       -3.7295280     0.6607040     0.0000130
  H       -3.0932130    -0.7493130     0.8923640
  H       -3.0932330    -0.7493380    -0.8923130
  H        3.0932340     0.7493310    -0.8923150
  H        3.7554193    -0.6317898     0.0655081
  H        3.0932120     0.7493200     0.8923620
units angstrom
no_reorient  #important for SAPT in psi4, default
symmetry c1  #important for SAPT in psi4, default
}

set PROPERTIES_ORIGIN ["COM"]
properties('MP2/aug-cc-pvtz', properties = ['dipole'])
--------------------------------------------------------------------------

    Molecular point group: c1
  Charge       = 0
  Multiplicity = 1
  Basis Set: AUG-CC-PVTZ
    Blend: AUG-CC-PVTZ
  Basis Set: (AUG-CC-PVTZ AUX)
    Blend: AUG-CC-PVTZ-JKFIT

    Orbital Energies [Eh]
    ---------------------

    Doubly Occupied:

       1A    -20.559349     2A    -20.558923     3A    -11.272499
       4A    -11.271806     5A    -11.271529     6A    -11.271519
       7A     -1.379284     8A     -1.367692     9A     -1.024021
      10A     -0.933628    11A     -0.885085    12A     -0.829714
      13A     -0.687429    14A     -0.666624    15A     -0.653232
      16A     -0.642689    17A     -0.611169    18A     -0.593606
      19A     -0.574233    20A     -0.515166    21A     -0.503335
      22A     -0.489111    23A     -0.474795    24A     -0.427036
      25A     -0.425409

  @DF-RHF Final Energy:  -307.09991683593898

   => Energetics <=

    Nuclear Repulsion Energy =            252.5950558898830138
    One-Electron Energy =                -919.6121814183093193
    Two-Electron Energy =                 359.9172086924872929
    Total Energy =                       -307.0999168359389841
  Basis Set: (AUG-CC-PVTZ AUX)
    Blend: AUG-CC-PVTZ-RI
    Molecular point group: c1

    Geometry (in Angstrom), charge = 0, multiplicity = 1:

       Center              X                  Y                   Z               Mass
    ------------   -----------------  -----------------  -----------------  -----------------
         O           -1.710699713075     0.532008317487    -0.000740091087    15.994914619570
         O            1.710120286925    -0.532655682513    -0.000733091087    15.994914619570
         C           -0.642440713075    -0.400511682513    -0.000746091087    12.000000000000
         C            0.641861286925     0.399865317487    -0.000749091087    12.000000000000
         C           -2.969056713075    -0.121062682513    -0.000717091087    12.000000000000
         C            2.968477286925     0.120415317487    -0.000714091087    12.000000000000
         H           -0.678733713075    -1.046787682513     0.888819908913     1.007825032230
         H           -0.678745713075    -1.046786682513    -0.890312091087     1.007825032230
         H            0.678153286925     1.046149317487     0.888810908913     1.007825032230
         H            0.678167286925     1.046131317487    -0.890321091087     1.007825032230
         H           -3.729817713075     0.660380317487    -0.000719091087     1.007825032230
         H           -3.093502713075    -0.749636682513     0.891631908913     1.007825032230
         H           -3.093522713075    -0.749661682513    -0.893045091087     1.007825032230
         H            3.092944286925     0.749007317487    -0.893047091087     1.007825032230
         H            3.755129586925    -0.632113482513     0.064776008913     1.007825032230
         H            3.092922286925     0.748996317487     0.891629908913     1.007825032230

  Basis Set: AUG-CC-PVTZ
    Blend: AUG-CC-PVTZ
  Basis Set: (AUG-CC-PVTZ AUX)
    Blend: AUG-CC-PVTZ-JKFIT
	 Reference Energy          =    -307.0999168359389841 [Eh]
	 Singles Energy            =      -0.0000000000000000 [Eh]
	 Same-Spin Energy          =      -0.2947387508069066 [Eh]
	 Opposite-Spin Energy      =      -1.0071463351981036 [Eh]
	 Correlation Energy        =      -1.3018850860050102 [Eh]
	 Total Energy              =    -308.4018019219440134 [Eh]

	 ================> DF-SCS-MP2 Energies <==================
	-----------------------------------------------------------
	 SCS Same-Spin Scale       =       0.3333333333333333 [-]
	 SCS Opposite-Spin Scale   =       1.2000000000000000 [-]
	 SCS Same-Spin Energy      =      -0.0982462502689689 [Eh]
	 SCS Opposite-Spin Energy  =      -1.2085756022377243 [Eh]
	 SCS Correlation Energy    =      -1.3068218525066932 [Eh]
	 SCS Total Energy          =    -308.4067386884456710 [Eh]
	-----------------------------------------------------------

  Dipole Moment: [D]
     X:     0.0017      Y:     0.0036      Z:     0.0238     Total:     0.0241

*** Psi4 exiting successfully. Buy a developer a beer!
