                               Psi4 1.4a3.dev225

  ==> Input File <==

--------------------------------------------------------------------------
#psi4
#
memory 32 gb

molecule  {
0 1
  O       -1.7104100     0.5323320    -0.0000080
  O        1.7104100    -0.5323320    -0.0000010
  C       -0.6421510    -0.4001880    -0.0000140
  C        0.6778938     0.3271609    -0.1359561
  C       -2.9687670    -0.1207390     0.0000150
  C        2.9687670     0.1207390     0.0000180
  H       -0.6784440    -1.0464640     0.8895520
  H       -0.6784560    -1.0464630    -0.8895800
  H        0.6784430     1.0464730     0.8895430
  H        0.6784570     1.0464550    -0.8895890
  H       -3.7295280     0.6607040     0.0000130
  H       -3.0932130    -0.7493130     0.8923640
  H       -3.0932330    -0.7493380    -0.8923130
  H        3.0932340     0.7493310    -0.8923150
  H        3.7295280    -0.6607040     0.0000230
  H        3.0932120     0.7493200     0.8923620
units angstrom
no_reorient  #important for SAPT in psi4, default
symmetry c1  #important for SAPT in psi4, default
}

set PROPERTIES_ORIGIN ["COM"]
properties('MP2/aug-cc-pvtz', properties = ['dipole'])
--------------------------------------------------------------------------

    Molecular point group: c1
  Charge       = 0
  Multiplicity = 1
  Basis Set: AUG-CC-PVTZ
    Blend: AUG-CC-PVTZ
  Basis Set: (AUG-CC-PVTZ AUX)
    Blend: AUG-CC-PVTZ-JKFIT

    Orbital Energies [Eh]
    ---------------------

    Doubly Occupied:

       1A    -20.567114     2A    -20.559222     3A    -11.278296
       4A    -11.277354     5A    -11.272241     6A    -11.271409
       7A     -1.402899     8A     -1.371474     9A     -1.025728
      10A     -0.940938    11A     -0.887388    12A     -0.827765
      13A     -0.691573    14A     -0.674512    15A     -0.663158
      16A     -0.646318    17A     -0.620247    18A     -0.596849
      19A     -0.567851    20A     -0.518104    21A     -0.512241
      22A     -0.492103    23A     -0.467872    24A     -0.425967
      25A     -0.403559

  @DF-RHF Final Energy:  -307.07846083737905

   => Energetics <=

    Nuclear Repulsion Energy =            253.2936895029491211
    One-Electron Energy =                -920.8199367163454099
    Two-Electron Energy =                 360.4477863760172909
    Total Energy =                       -307.0784608373790547
  Basis Set: (AUG-CC-PVTZ AUX)
    Blend: AUG-CC-PVTZ-RI
    Molecular point group: c1

    Geometry (in Angstrom), charge = 0, multiplicity = 1:

       Center              X                  Y                   Z               Mass
    ------------   -----------------  -----------------  -----------------  -----------------
         O           -1.715172104422     0.542061575633     0.018104173510    15.994914619570
         O            1.705647895578    -0.522602424367     0.018111173510    15.994914619570
         C           -0.646913104422    -0.390458424367     0.018098173510    12.000000000000
         C            0.673131695578     0.336890475633    -0.117843926490    12.000000000000
         C           -2.973529104422    -0.111009424367     0.018127173510    12.000000000000
         C            2.964004895578     0.130468575633     0.018130173510    12.000000000000
         H           -0.683206104422    -1.036734424367     0.907664173510     1.007825032230
         H           -0.683218104422    -1.036733424367    -0.871467826490     1.007825032230
         H            0.673680895578     1.056202575633     0.907655173510     1.007825032230
         H            0.673694895578     1.056184575633    -0.871476826490     1.007825032230
         H           -3.734290104422     0.670433575633     0.018125173510     1.007825032230
         H           -3.097975104422    -0.739583424367     0.910476173510     1.007825032230
         H           -3.097995104422    -0.739608424367    -0.874200826490     1.007825032230
         H            3.088471895578     0.759060575633    -0.874202826490     1.007825032230
         H            3.724765895578    -0.650974424367     0.018135173510     1.007825032230
         H            3.088449895578     0.759049575633     0.910474173510     1.007825032230

  Basis Set: AUG-CC-PVTZ
    Blend: AUG-CC-PVTZ
  Basis Set: (AUG-CC-PVTZ AUX)
    Blend: AUG-CC-PVTZ-JKFIT
	 Reference Energy          =    -307.0784608373790547 [Eh]
	 Singles Energy            =      -0.0000000000000000 [Eh]
	 Same-Spin Energy          =      -0.2951718587492507 [Eh]
	 Opposite-Spin Energy      =      -1.0073190702092769 [Eh]
	 Correlation Energy        =      -1.3024909289585276 [Eh]
	 Total Energy              =    -308.3809517663376027 [Eh]

	 ================> DF-SCS-MP2 Energies <==================
	-----------------------------------------------------------
	 SCS Same-Spin Scale       =       0.3333333333333333 [-]
	 SCS Opposite-Spin Scale   =       1.2000000000000000 [-]
	 SCS Same-Spin Energy      =      -0.0983906195830836 [Eh]
	 SCS Opposite-Spin Energy  =      -1.2087828842511323 [Eh]
	 SCS Correlation Energy    =      -1.3071735038342158 [Eh]
	 SCS Total Energy          =    -308.3856343412132901 [Eh]
	-----------------------------------------------------------

  Dipole Moment: [D]
     X:     0.2545      Y:    -0.2319      Z:    -0.2900     Total:     0.4502

*** Psi4 exiting successfully. Buy a developer a beer!
