                               Psi4 1.4a3.dev225

  ==> Input File <==

--------------------------------------------------------------------------
#psi4
#
memory 32 gb

molecule  {
0 1
  O       -1.7507040     0.5931071    -0.1292534
  O        1.7104100    -0.5323320    -0.0000010
  C       -0.6421510    -0.4001880    -0.0000140
  C        0.6421510     0.4001890    -0.0000170
  C       -2.9687670    -0.1207390     0.0000150
  C        2.9687670     0.1207390     0.0000180
  H       -0.6784440    -1.0464640     0.8895520
  H       -0.6784560    -1.0464630    -0.8895800
  H        0.6784430     1.0464730     0.8895430
  H        0.6784570     1.0464550    -0.8895890
  H       -3.7295280     0.6607040     0.0000130
  H       -3.0932130    -0.7493130     0.8923640
  H       -3.0932330    -0.7493380    -0.8923130
  H        3.0932340     0.7493310    -0.8923150
  H        3.7295280    -0.6607040     0.0000230
  H        3.0932120     0.7493200     0.8923620
units angstrom
no_reorient  #important for SAPT in psi4, default
symmetry c1  #important for SAPT in psi4, default
}

set PROPERTIES_ORIGIN ["COM"]
properties('MP2/aug-cc-pvtz', properties = ['dipole'])
--------------------------------------------------------------------------

    Molecular point group: c1
  Charge       = 0
  Multiplicity = 1
  Basis Set: AUG-CC-PVTZ
    Blend: AUG-CC-PVTZ
  Basis Set: (AUG-CC-PVTZ AUX)
    Blend: AUG-CC-PVTZ-JKFIT

    Orbital Energies [Eh]
    ---------------------

    Doubly Occupied:

       1A    -20.561653     2A    -20.560764     3A    -11.278955
       4A    -11.274272     5A    -11.272816     6A    -11.267711
       7A     -1.376670     8A     -1.352868     9A     -1.023851
      10A     -0.927389    11A     -0.886565    12A     -0.831687
      13A     -0.684399    14A     -0.662452    15A     -0.648849
      16A     -0.638183    17A     -0.608419    18A     -0.589607
      19A     -0.573247    20A     -0.514326    21A     -0.499924
      22A     -0.487369    23A     -0.480281    24A     -0.430085
      25A     -0.427164

  @DF-RHF Final Energy:  -307.08981988602795

   => Energetics <=

    Nuclear Repulsion Energy =            251.1294663002590255
    One-Electron Energy =                -916.7195612550453916
    Two-Electron Energy =                 358.5002750687583557
    Total Energy =                       -307.0898198860279535
  Basis Set: (AUG-CC-PVTZ AUX)
    Blend: AUG-CC-PVTZ-RI
    Molecular point group: c1

    Geometry (in Angstrom), charge = 0, multiplicity = 1:

       Center              X                  Y                   Z               Mass
    ------------   -----------------  -----------------  -----------------  -----------------
         O           -1.743548311849     0.582314091555    -0.106300444494    15.994914619570
         O            1.717565688151    -0.543125008445     0.022951955506    15.994914619570
         C           -0.634995311849    -0.410981008445     0.022938955506    12.000000000000
         C            0.649306688151     0.389395991555     0.022935955506    12.000000000000
         C           -2.961611311849    -0.131532008445     0.022967955506    12.000000000000
         C            2.975922688151     0.109945991555     0.022970955506    12.000000000000
         H           -0.671288311849    -1.057257008445     0.912504955506     1.007825032230
         H           -0.671300311849    -1.057256008445    -0.866627044494     1.007825032230
         H            0.685598688151     1.035679991555     0.912495955506     1.007825032230
         H            0.685612688151     1.035661991555    -0.866636044494     1.007825032230
         H           -3.722372311849     0.649910991555     0.022965955506     1.007825032230
         H           -3.086057311849    -0.760106008445     0.915316955506     1.007825032230
         H           -3.086077311849    -0.760131008445    -0.869360044494     1.007825032230
         H            3.100389688151     0.738537991555    -0.869362044494     1.007825032230
         H            3.736683688151    -0.671497008445     0.022975955506     1.007825032230
         H            3.100367688151     0.738526991555     0.915314955506     1.007825032230

  Basis Set: AUG-CC-PVTZ
    Blend: AUG-CC-PVTZ
  Basis Set: (AUG-CC-PVTZ AUX)
    Blend: AUG-CC-PVTZ-JKFIT
	 Reference Energy          =    -307.0898198860279535 [Eh]
	 Singles Energy            =      -0.0000000000000000 [Eh]
	 Same-Spin Energy          =      -0.2953619604379321 [Eh]
	 Opposite-Spin Energy      =      -1.0098178864589125 [Eh]
	 Correlation Energy        =      -1.3051798468968445 [Eh]
	 Total Energy              =    -308.3949997329248163 [Eh]

	 ================> DF-SCS-MP2 Energies <==================
	-----------------------------------------------------------
	 SCS Same-Spin Scale       =       0.3333333333333333 [-]
	 SCS Opposite-Spin Scale   =       1.2000000000000000 [-]
	 SCS Same-Spin Energy      =      -0.0984539868126440 [Eh]
	 SCS Opposite-Spin Energy  =      -1.2117814637506950 [Eh]
	 SCS Correlation Energy    =      -1.3102354505633389 [Eh]
	 SCS Total Energy          =    -308.4000553365912651 [Eh]
	-----------------------------------------------------------

  Dipole Moment: [D]
     X:     0.2390      Y:    -0.1644      Z:     0.2478     Total:     0.3815

*** Psi4 exiting successfully. Buy a developer a beer!
