                               Psi4 1.3.2 release

  ==> Input File <==

--------------------------------------------------------------------------
#psi4
#
memory 32 gb

molecule  {
0 1
 Cl       -1.5623360     0.9145460    -1.3283100
 Cl       -1.8035240    -1.6987570    -0.1947580
 Cl       -1.5102210     0.5498050     1.5667370
  C        0.5425250    -0.2377090    -0.0306430
  C        1.3583330     0.9211750     0.0000800
  C        1.1449540    -1.5037020    -0.0241300
  C        2.7480770     0.7402810    -0.0004710
  C       -0.9732360    -0.1289890    -0.0024010
  C        0.8598911     2.3474926     0.2364834
  C        2.5304820    -1.6481190    -0.0246080
  C        3.3427940    -0.5189970    -0.0108730
  H        0.5328240    -2.3960530    -0.0303120
  H        3.3795310     1.6262990     0.0194810
  H        0.6542430     2.6831410    -1.0334720
  H       -0.0421520     2.4939510     0.5743960
  H        1.6388160     2.9983140     0.4002560
  H        2.9642350    -2.6446820    -0.0247670
  H        4.4259130    -0.6124980    -0.0086910
units angstrom
no_reorient  #important for SAPT in psi4, default
symmetry c1  #important for SAPT in psi4, default
}

set PROPERTIES_ORIGIN ["COM"]
properties('MP2/aug-cc-pvtz', properties = ['dipole'])
--------------------------------------------------------------------------

    Molecular point group: c1
  Charge       = 0
  Multiplicity = 1
  Basis Set: AUG-CC-PVTZ
    Blend: AUG-CC-PVTZ
  Basis Set: (AUG-CC-PVTZ AUX)
    Blend: AUG-CC-PVTZ-JKFIT

    Orbital Energies [Eh]
    ---------------------

    Doubly Occupied:

       1A   -104.858256     2A   -104.856013     3A   -104.855724
       4A    -11.442628     5A    -11.274279     6A    -11.273080
       7A    -11.253690     8A    -11.252139     9A    -11.244614
      10A    -11.243541    11A    -11.241159    12A    -10.582832
      13A    -10.580645    14A    -10.580370    15A     -8.049524
      16A     -8.047492    17A     -8.047480    18A     -8.047344
      19A     -8.047077    20A     -8.045294    21A     -8.045242
      22A     -8.045008    23A     -8.044968    24A     -1.246644
      25A     -1.165055    26A     -1.107112    27A     -1.105357
      28A     -1.058643    29A     -1.038005    30A     -0.956084
      31A     -0.883991    32A     -0.827077    33A     -0.790910
      34A     -0.704774    35A     -0.678274    36A     -0.653682
      37A     -0.627619    38A     -0.618947    39A     -0.613079
      40A     -0.595656    41A     -0.580777    42A     -0.549099
      43A     -0.526009    44A     -0.509069    45A     -0.496403
      46A     -0.491581    47A     -0.474884    48A     -0.463206
      49A     -0.455296    50A     -0.449508    51A     -0.439543
      52A     -0.351741    53A     -0.330079

  @DF-RHF Final Energy: -1685.60059577372749

   => Energetics <=

    Nuclear Repulsion Energy =            901.1174581972957185
    One-Electron Energy =               -4113.9431016360731519
    Two-Electron Energy =                1527.2250476650501696
    Total Energy =                      -1685.6005957737274912
  Basis Set: (AUG-CC-PVTZ AUX)
    Blend: AUG-CC-PVTZ-RI
    Molecular point group: c1

    Geometry (in Angstrom), charge = 0, multiplicity = 1:

       Center              X                  Y                   Z               Mass
    ------------   -----------------  -----------------  -----------------  -----------------
         CL          -1.474792557197     0.935505587468    -1.343430059807    34.968852682000
         CL          -1.715980557197    -1.677797412532    -0.209878059807    34.968852682000
         CL          -1.422677557197     0.570764587468     1.551616940193    34.968852682000
         C            0.630068442803    -0.216749412532    -0.045763059807    12.000000000000
         C            1.445876442803     0.942134587468    -0.015040059807    12.000000000000
         C            1.232497442803    -1.482742412532    -0.039250059807    12.000000000000
         C            2.835620442803     0.761240587468    -0.015591059807    12.000000000000
         C           -0.885692557197    -0.108029412532    -0.017521059807    12.000000000000
         C            0.947434542803     2.368452187468     0.221363340193    12.000000000000
         C            2.618025442803    -1.627159412532    -0.039728059807    12.000000000000
         C            3.430337442803    -0.498037412532    -0.025993059807    12.000000000000
         H            0.620367442803    -2.375093412532    -0.045432059807     1.007825032230
         H            3.467074442803     1.647258587468     0.004360940193     1.007825032230
         H            0.741786442803     2.704100587468    -1.048592059807     1.007825032230
         H            0.045391442803     2.514910587468     0.559275940193     1.007825032230
         H            1.726359442803     3.019273587468     0.385135940193     1.007825032230
         H            3.051778442803    -2.623722412532    -0.039887059807     1.007825032230
         H            4.513456442803    -0.591538412532    -0.023811059807     1.007825032230

  Basis Set: AUG-CC-PVTZ
    Blend: AUG-CC-PVTZ
  Basis Set: (AUG-CC-PVTZ AUX)
    Blend: AUG-CC-PVTZ-JKFIT
	 Reference Energy          =   -1685.6005957737274912 [Eh]
	 Singles Energy            =      -0.0000000000000000 [Eh]
	 Same-Spin Energy          =      -0.5443521598039057 [Eh]
	 Opposite-Spin Energy      =      -1.6273993152789470 [Eh]
	 Correlation Energy        =      -2.1717514750828526 [Eh]
	 Total Energy              =   -1687.7723472488103198 [Eh]

	 ================> DF-SCS-MP2 Energies <==================
	-----------------------------------------------------------
	 SCS Same-Spin Scale       =       0.3333333333333333 [-]
	 SCS Opposite-Spin Scale   =       1.2000000000000000 [-]
	 SCS Same-Spin Energy      =      -0.1814507199346352 [Eh]
	 SCS Opposite-Spin Energy  =      -1.9528791783347363 [Eh]
	 SCS Correlation Energy    =      -2.1343298982693715 [Eh]
	 SCS Total Energy          =   -1687.7349256719969617 [Eh]
	-----------------------------------------------------------

  Dipole Moment: [D]
     X:     2.1283      Y:     0.2867      Z:     0.0352     Total:     2.1479

*** Psi4 exiting successfully. Buy a developer a beer!
