                               Psi4 1.3.2 release

  ==> Input File <==

--------------------------------------------------------------------------
#psi4
#
memory 32 gb

molecule  {
0 1
 Cl       -1.5623360     0.9145460    -1.3283100
 Cl       -1.8035240    -1.6987570    -0.1947580
 Cl       -1.5102210     0.5498050     1.5667370
  C        0.5425250    -0.2377090    -0.0306430
  C        1.3583330     0.9211750     0.0000800
  C        1.1449540    -1.5037020    -0.0241300
  C        2.7480770     0.7402810    -0.0004710
  C       -0.9732360    -0.1289890    -0.0024010
  C        0.8621638     2.3485369     0.0364991
  C        2.5304820    -1.6481190    -0.0246080
  C        3.3427940    -0.5189970    -0.0108730
  H        0.5328240    -2.3960530    -0.0303120
  H        3.3795310     1.6262990     0.0194810
  H        0.6542430     2.6831410    -1.0334720
  H       -0.0421520     2.4939510     0.5743960
  H        1.6388160     2.9983140     0.4002560
  H        2.9642350    -2.6446820    -0.0247670
  H        4.4259130    -0.6124980    -0.0086910
units angstrom
no_reorient  #important for SAPT in psi4, default
symmetry c1  #important for SAPT in psi4, default
}

set PROPERTIES_ORIGIN ["COM"]
properties('MP2/aug-cc-pvtz', properties = ['dipole'])
--------------------------------------------------------------------------

    Molecular point group: c1
  Charge       = 0
  Multiplicity = 1
  Basis Set: AUG-CC-PVTZ
    Blend: AUG-CC-PVTZ
  Basis Set: (AUG-CC-PVTZ AUX)
    Blend: AUG-CC-PVTZ-JKFIT

    Orbital Energies [Eh]
    ---------------------

    Doubly Occupied:

       1A   -104.858053     2A   -104.855699     3A   -104.855601
       4A    -11.442405     5A    -11.273819     6A    -11.268012
       7A    -11.253160     8A    -11.251353     9A    -11.244461
      10A    -11.244123    11A    -11.230703    12A    -10.582638
      13A    -10.580289    14A    -10.580270    15A     -8.049330
      16A     -8.047299    17A     -8.047286    18A     -8.046995
      19A     -8.046970    20A     -8.044930    21A     -8.044915
      22A     -8.044892    23A     -8.044866    24A     -1.246375
      25A     -1.164660    26A     -1.106924    27A     -1.105052
      28A     -1.058234    29A     -1.037638    30A     -0.951671
      31A     -0.882562    32A     -0.825114    33A     -0.788990
      34A     -0.703270    35A     -0.668588    36A     -0.652556
      37A     -0.627406    38A     -0.617809    39A     -0.599183
      40A     -0.586073    41A     -0.575988    42A     -0.563875
      43A     -0.522161    44A     -0.507969    45A     -0.500660
      46A     -0.495715    47A     -0.489537    48A     -0.464097
      49A     -0.455617    50A     -0.448044    51A     -0.441588
      52A     -0.351089    53A     -0.337793

  @DF-RHF Final Energy: -1685.64751172179808

   => Energetics <=

    Nuclear Repulsion Energy =            901.4409745862473073
    One-Electron Energy =               -4114.7483610609288007
    Two-Electron Energy =                1527.6598747528835247
    Total Energy =                      -1685.6475117217980824
  Basis Set: (AUG-CC-PVTZ AUX)
    Blend: AUG-CC-PVTZ-RI
    Molecular point group: c1

    Geometry (in Angstrom), charge = 0, multiplicity = 1:

       Center              X                  Y                   Z               Mass
    ------------   -----------------  -----------------  -----------------  -----------------
         CL          -1.474923698884     0.935445328189    -1.331890358833    34.968852682000
         CL          -1.716111698884    -1.677857671811    -0.198338358833    34.968852682000
         CL          -1.422808698884     0.570704328189     1.563156641167    34.968852682000
         C            0.629937301116    -0.216809671811    -0.034223358833    12.000000000000
         C            1.445745301116     0.942074328189    -0.003500358833    12.000000000000
         C            1.232366301116    -1.482802671811    -0.027710358833    12.000000000000
         C            2.835489301116     0.761180328189    -0.004051358833    12.000000000000
         C           -0.885823698884    -0.108089671811    -0.005981358833    12.000000000000
         C            0.949576101116     2.369436228189     0.032918741167    12.000000000000
         C            2.617894301116    -1.627219671811    -0.028188358833    12.000000000000
         C            3.430206301116    -0.498097671811    -0.014453358833    12.000000000000
         H            0.620236301116    -2.375153671811    -0.033892358833     1.007825032230
         H            3.466943301116     1.647198328189     0.015900641167     1.007825032230
         H            0.741655301116     2.704040328189    -1.037052358833     1.007825032230
         H            0.045260301116     2.514850328189     0.570815641167     1.007825032230
         H            1.726228301116     3.019213328189     0.396675641167     1.007825032230
         H            3.051647301116    -2.623782671811    -0.028347358833     1.007825032230
         H            4.513325301116    -0.591598671811    -0.012271358833     1.007825032230

  Basis Set: AUG-CC-PVTZ
    Blend: AUG-CC-PVTZ
  Basis Set: (AUG-CC-PVTZ AUX)
    Blend: AUG-CC-PVTZ-JKFIT
	 Reference Energy          =   -1685.6475117217980824 [Eh]
	 Singles Energy            =      -0.0000000000000000 [Eh]
	 Same-Spin Energy          =      -0.5435566023976737 [Eh]
	 Opposite-Spin Energy      =      -1.6250034679048913 [Eh]
	 Correlation Energy        =      -2.1685600703025649 [Eh]
	 Total Energy              =   -1687.8160717921007290 [Eh]

	 ================> DF-SCS-MP2 Energies <==================
	-----------------------------------------------------------
	 SCS Same-Spin Scale       =       0.3333333333333333 [-]
	 SCS Opposite-Spin Scale   =       1.2000000000000000 [-]
	 SCS Same-Spin Energy      =      -0.1811855341325579 [Eh]
	 SCS Opposite-Spin Energy  =      -1.9500041614858694 [Eh]
	 SCS Correlation Energy    =      -2.1311896956184273 [Eh]
	 SCS Total Energy          =   -1687.7787014174164142 [Eh]
	-----------------------------------------------------------

  Dipole Moment: [D]
     X:     2.1300      Y:     0.2503      Z:    -0.0378     Total:     2.1449

*** Psi4 exiting successfully. Buy a developer a beer!
