                               Psi4 1.3.2 release

  ==> Input File <==

--------------------------------------------------------------------------
#psi4
#
memory 32 gb

molecule  {
0 1
 Cl       -1.5623360     0.9145460    -1.3283100
 Cl       -1.8035240    -1.6987570    -0.1947580
 Cl       -1.5102210     0.5498050     1.5667370
  C        0.5425250    -0.2377090    -0.0306430
  C        1.3583330     0.9211750     0.0000800
  C        1.1449540    -1.5037020    -0.0241300
  C        2.7480770     0.7402810    -0.0004710
  C       -0.9732360    -0.1289890    -0.0024010
  C        0.8610275     2.3480147     0.1364913
  C        2.5304820    -1.6481190    -0.0246080
  C        3.3427940    -0.5189970    -0.0108730
  H        0.5328240    -2.3960530    -0.0303120
  H        3.3795310     1.6262990     0.0194810
  H        0.6542430     2.6831410    -1.0334720
  H       -0.0421520     2.4939510     0.5743960
  H        1.6388160     2.9983140     0.4002560
  H        2.9642350    -2.6446820    -0.0247670
  H        4.4259130    -0.6124980    -0.0086910
units angstrom
no_reorient  #important for SAPT in psi4, default
symmetry c1  #important for SAPT in psi4, default
}

set PROPERTIES_ORIGIN ["COM"]
properties('MP2/aug-cc-pvtz', properties = ['dipole'])
--------------------------------------------------------------------------

    Molecular point group: c1
  Charge       = 0
  Multiplicity = 1
  Basis Set: AUG-CC-PVTZ
    Blend: AUG-CC-PVTZ
  Basis Set: (AUG-CC-PVTZ AUX)
    Blend: AUG-CC-PVTZ-JKFIT

    Orbital Energies [Eh]
    ---------------------

    Doubly Occupied:

       1A   -104.858132     2A   -104.855825     3A   -104.855671
       4A    -11.442492     5A    -11.273630     6A    -11.270296
       7A    -11.253356     8A    -11.251672     9A    -11.244271
      10A    -11.243923    11A    -11.234499    12A    -10.582712
      13A    -10.580427    14A    -10.580337    15A     -8.049405
      16A     -8.047373    17A     -8.047361    18A     -8.047126
      19A     -8.047045    20A     -8.045074    21A     -8.045023
      22A     -8.044978    23A     -8.044938    24A     -1.246489
      25A     -1.164812    26A     -1.106987    27A     -1.105201
      28A     -1.058495    29A     -1.037757    30A     -0.953421
      31A     -0.883134    32A     -0.825975    33A     -0.789750
      34A     -0.703903    35A     -0.672514    36A     -0.653181
      37A     -0.627445    38A     -0.618221    39A     -0.602155
      40A     -0.592406    41A     -0.576767    42A     -0.559557
      43A     -0.524205    44A     -0.508882    45A     -0.496393
      46A     -0.491494    47A     -0.487279    48A     -0.464115
      49A     -0.455552    50A     -0.449054    51A     -0.440989
      52A     -0.351338    53A     -0.334532

  @DF-RHF Final Energy: -1685.63028615702774

   => Energetics <=

    Nuclear Repulsion Energy =            901.3383893799599491
    One-Electron Energy =               -4114.4822130638576709
    Two-Electron Energy =                1527.5135375268698681
    Total Energy =                      -1685.6302861570277400
  Basis Set: (AUG-CC-PVTZ AUX)
    Blend: AUG-CC-PVTZ-RI
    Molecular point group: c1

    Geometry (in Angstrom), charge = 0, multiplicity = 1:

       Center              X                  Y                   Z               Mass
    ------------   -----------------  -----------------  -----------------  -----------------
         CL          -1.474858130926     0.935475460714    -1.337660212205    34.968852682000
         CL          -1.716046130926    -1.677827539286    -0.204108212205    34.968852682000
         CL          -1.422743130926     0.570734460714     1.557386787795    34.968852682000
         C            0.630002869074    -0.216779539286    -0.039993212205    12.000000000000
         C            1.445810869074     0.942104460714    -0.009270212205    12.000000000000
         C            1.232431869074    -1.482772539286    -0.033480212205    12.000000000000
         C            2.835554869074     0.761210460714    -0.009821212205    12.000000000000
         C           -0.885758130926    -0.108059539286    -0.011751212205    12.000000000000
         C            0.948505369074     2.368944160714     0.127141087795    12.000000000000
         C            2.617959869074    -1.627189539286    -0.033958212205    12.000000000000
         C            3.430271869074    -0.498067539286    -0.020223212205    12.000000000000
         H            0.620301869074    -2.375123539286    -0.039662212205     1.007825032230
         H            3.467008869074     1.647228460714     0.010130787795     1.007825032230
         H            0.741720869074     2.704070460714    -1.042822212205     1.007825032230
         H            0.045325869074     2.514880460714     0.565045787795     1.007825032230
         H            1.726293869074     3.019243460714     0.390905787795     1.007825032230
         H            3.051712869074    -2.623752539286    -0.034117212205     1.007825032230
         H            4.513390869074    -0.591568539286    -0.018041212205     1.007825032230

  Basis Set: AUG-CC-PVTZ
    Blend: AUG-CC-PVTZ
  Basis Set: (AUG-CC-PVTZ AUX)
    Blend: AUG-CC-PVTZ-JKFIT
	 Reference Energy          =   -1685.6302861570277400 [Eh]
	 Singles Energy            =      -0.0000000000000000 [Eh]
	 Same-Spin Energy          =      -0.5438037724351252 [Eh]
	 Opposite-Spin Energy      =      -1.6257462478810676 [Eh]
	 Correlation Energy        =      -2.1695500203161928 [Eh]
	 Total Energy              =   -1687.7998361773438774 [Eh]

	 ================> DF-SCS-MP2 Energies <==================
	-----------------------------------------------------------
	 SCS Same-Spin Scale       =       0.3333333333333333 [-]
	 SCS Opposite-Spin Scale   =       1.2000000000000000 [-]
	 SCS Same-Spin Energy      =      -0.1812679241450417 [Eh]
	 SCS Opposite-Spin Energy  =      -1.9508954974572810 [Eh]
	 SCS Correlation Energy    =      -2.1321634216023226 [Eh]
	 SCS Total Energy          =   -1687.7624495786301395 [Eh]
	-----------------------------------------------------------

  Dipole Moment: [D]
     X:     2.1285      Y:     0.2741      Z:    -0.0002     Total:     2.1461

*** Psi4 exiting successfully. Buy a developer a beer!
