                               Psi4 1.3.2 release

  ==> Input File <==

--------------------------------------------------------------------------
#psi4
#
memory 32 gb

molecule  {
0 1
 Cl       -1.5623360     0.9145460    -1.3283100
 Cl       -1.8035240    -1.6987570    -0.1947580
 Cl       -1.5102210     0.5498050     1.5667370
  C        0.5425250    -0.2377090    -0.0306430
  C        1.3583330     0.9211750     0.0000800
  C        1.1449540    -1.5037020    -0.0241300
  C        2.7480770     0.7402810    -0.0004710
  C       -0.9732360    -0.1289890    -0.0024010
  C        0.8627320     2.3487980    -0.0134970
  C        2.5304820    -1.6481190    -0.0246080
  C        3.3427940    -0.5189970    -0.0108730
  H        0.5328240    -2.3960530    -0.0303120
  H        3.3795310     1.6262990     0.0194810
  H        0.6542430     2.6831410    -1.0334720
  H       -0.0421520     2.4939510     0.5743960
  H        1.6388160     2.9983140     0.4002560
  H        2.9647409    -2.6437917    -0.1747635
  H        4.4259130    -0.6124980    -0.0086910
units angstrom
no_reorient  #important for SAPT in psi4, default
symmetry c1  #important for SAPT in psi4, default
}

set PROPERTIES_ORIGIN ["COM"]
properties('MP2/aug-cc-pvtz', properties = ['dipole'])
--------------------------------------------------------------------------

    Molecular point group: c1
  Charge       = 0
  Multiplicity = 1
  Basis Set: AUG-CC-PVTZ
    Blend: AUG-CC-PVTZ
  Basis Set: (AUG-CC-PVTZ AUX)
    Blend: AUG-CC-PVTZ-JKFIT

    Orbital Energies [Eh]
    ---------------------

    Doubly Occupied:

       1A   -104.858074     2A   -104.855671     3A   -104.855642
       4A    -11.442433     5A    -11.274064     6A    -11.267629
       7A    -11.253291     8A    -11.251429     9A    -11.245604
      10A    -11.244239    11A    -11.230008    12A    -10.582662
      13A    -10.580340    14A    -10.580228    15A     -8.049355
      16A     -8.047323    17A     -8.047310    18A     -8.047047
      19A     -8.046927    20A     -8.044982    21A     -8.044945
      22A     -8.044871    23A     -8.044822    24A     -1.246393
      25A     -1.164704    26A     -1.106967    27A     -1.105026
      28A     -1.057996    29A     -1.037737    30A     -0.951152
      31A     -0.882488    32A     -0.824810    33A     -0.788426
      34A     -0.702412    35A     -0.667285    36A     -0.652379
      37A     -0.627516    38A     -0.617402    39A     -0.599963
      40A     -0.587030    41A     -0.581074    42A     -0.555328
      43A     -0.521341    44A     -0.507466    45A     -0.505236
      46A     -0.494326    47A     -0.488886    48A     -0.463967
      49A     -0.455641    50A     -0.447311    51A     -0.441791
      52A     -0.351136    53A     -0.338829

  @DF-RHF Final Energy: -1685.64839567914146

   => Energetics <=

    Nuclear Repulsion Energy =            901.4133375730045827
    One-Electron Energy =               -4114.7016339632345989
    Two-Electron Energy =                1527.6399007110887851
    Total Energy =                      -1685.6483956791414585
  Basis Set: (AUG-CC-PVTZ AUX)
    Blend: AUG-CC-PVTZ-RI
    Molecular point group: c1

    Geometry (in Angstrom), charge = 0, multiplicity = 1:

       Center              X                  Y                   Z               Mass
    ------------   -----------------  -----------------  -----------------  -----------------
         CL          -1.474958937448     0.935425947343    -1.328278517076    34.968852682000
         CL          -1.716146937448    -1.677877052657    -0.194726517076    34.968852682000
         CL          -1.422843937448     0.570684947343     1.566768482924    34.968852682000
         C            0.629902062552    -0.216829052657    -0.030611517076    12.000000000000
         C            1.445710062552     0.942054947343     0.000111482924    12.000000000000
         C            1.232331062552    -1.482822052657    -0.024098517076    12.000000000000
         C            2.835454062552     0.761160947343    -0.000439517076    12.000000000000
         C           -0.885858937448    -0.108109052657    -0.002369517076    12.000000000000
         C            0.950109062552     2.369677947343    -0.013465517076    12.000000000000
         C            2.617859062552    -1.627239052657    -0.024576517076    12.000000000000
         C            3.430171062552    -0.498117052657    -0.010841517076    12.000000000000
         H            0.620201062552    -2.375173052657    -0.030280517076     1.007825032230
         H            3.466908062552     1.647178947343     0.019512482924     1.007825032230
         H            0.741620062552     2.704020947343    -1.033440517076     1.007825032230
         H            0.045225062552     2.514830947343     0.574427482924     1.007825032230
         H            1.726193062552     3.019193947343     0.400287482924     1.007825032230
         H            3.052117962552    -2.622911752657    -0.174732017076     1.007825032230
         H            4.513290062552    -0.591618052657    -0.008659517076     1.007825032230

  Basis Set: AUG-CC-PVTZ
    Blend: AUG-CC-PVTZ
  Basis Set: (AUG-CC-PVTZ AUX)
    Blend: AUG-CC-PVTZ-JKFIT
	 Reference Energy          =   -1685.6483956791414585 [Eh]
	 Singles Energy            =      -0.0000000000000000 [Eh]
	 Same-Spin Energy          =      -0.5436127243728440 [Eh]
	 Opposite-Spin Energy      =      -1.6251081093649624 [Eh]
	 Correlation Energy        =      -2.1687208337378063 [Eh]
	 Total Energy              =   -1687.8171165128792381 [Eh]

	 ================> DF-SCS-MP2 Energies <==================
	-----------------------------------------------------------
	 SCS Same-Spin Scale       =       0.3333333333333333 [-]
	 SCS Opposite-Spin Scale   =       1.2000000000000000 [-]
	 SCS Same-Spin Energy      =      -0.1812042414576147 [Eh]
	 SCS Opposite-Spin Energy  =      -1.9501297312379549 [Eh]
	 SCS Correlation Energy    =      -2.1313339726955696 [Eh]
	 SCS Total Energy          =   -1687.7797296518369876 [Eh]
	-----------------------------------------------------------

  Dipole Moment: [D]
     X:     2.1244      Y:     0.2481      Z:    -0.1473     Total:     2.1439

*** Psi4 exiting successfully. Buy a developer a beer!
