                               Psi4 1.3.2 release

  ==> Input File <==

--------------------------------------------------------------------------
#psi4
#
memory 32 gb

molecule  {
0 1
 Cl       -1.5623360     0.9145460    -1.3283100
 Cl       -1.8035240    -1.6987570    -0.1947580
 Cl       -1.5102210     0.5498050     1.5667370
  C        0.5425250    -0.2377090    -0.0306430
  C        1.3583330     0.9211750     0.0000800
  C        1.1449540    -1.5037020    -0.0241300
  C        2.7480770     0.7402810    -0.0004710
  C       -0.9732360    -0.1289890    -0.0024010
  C        0.8627320     2.3487980    -0.0134970
  C        2.5304820    -1.6481190    -0.0246080
  C        3.3427940    -0.5189970    -0.0108730
  H        0.5328240    -2.3960530    -0.0303120
  H        3.3795310     1.6262990     0.0194810
  H        0.6542430     2.6831410    -1.0334720
  H       -0.0421520     2.4939510     0.5743960
  H        1.6388160     2.9983140     0.4002560
  H        2.9642350    -2.6446820    -0.0247670
  H        4.4259130    -0.6124980    -0.0086910
units angstrom
no_reorient  #important for SAPT in psi4, default
symmetry c1  #important for SAPT in psi4, default
}

set PROPERTIES_ORIGIN ["COM"]
properties('MP2/aug-cc-pvtz', properties = ['dipole'])
--------------------------------------------------------------------------

    Molecular point group: c1
  Charge       = 0
  Multiplicity = 1
  Basis Set: AUG-CC-PVTZ
    Blend: AUG-CC-PVTZ
  Basis Set: (AUG-CC-PVTZ AUX)
    Blend: AUG-CC-PVTZ-JKFIT

    Orbital Energies [Eh]
    ---------------------

    Doubly Occupied:

       1A   -104.858035     2A   -104.855668     3A   -104.855554
       4A    -11.442387     5A    -11.273991     6A    -11.267415
       7A    -11.253135     8A    -11.251271     9A    -11.244778
      10A    -11.244173    11A    -11.229914    12A    -10.582623
      13A    -10.580252    14A    -10.580225    15A     -8.049315
      16A     -8.047283    17A     -8.047271    18A     -8.046958
      19A     -8.046924    20A     -8.044893    21A     -8.044869
      22A     -8.044856    23A     -8.044820    24A     -1.246340
      25A     -1.164641    26A     -1.106916    27A     -1.104990
      28A     -1.058090    29A     -1.037647    30A     -0.951309
      31A     -0.882448    32A     -0.824907    33A     -0.788863
      34A     -0.703186    35A     -0.667229    36A     -0.652365
      37A     -0.627451    38A     -0.617635    39A     -0.599903
      40A     -0.587108    41A     -0.581808    42A     -0.555258
      43A     -0.521117    44A     -0.507793    45A     -0.504202
      46A     -0.495706    47A     -0.488864    48A     -0.463950
      49A     -0.455634    50A     -0.447263    51A     -0.441748
      52A     -0.351043    53A     -0.338998

  @DF-RHF Final Energy: -1685.64977366434186

   => Energetics <=

    Nuclear Repulsion Energy =            901.4529976811343204
    One-Electron Energy =               -4114.7835012966534123
    Two-Electron Energy =                1527.6807299511769997
    Total Energy =                      -1685.6497736643418648
  Basis Set: (AUG-CC-PVTZ AUX)
    Blend: AUG-CC-PVTZ-RI
    Molecular point group: c1

    Geometry (in Angstrom), charge = 0, multiplicity = 1:

       Center              X                  Y                   Z               Mass
    ------------   -----------------  -----------------  -----------------  -----------------
         CL          -1.474956485748     0.935430261927    -1.329005432147    34.968852682000
         CL          -1.716144485748    -1.677872738073    -0.195453432147    34.968852682000
         CL          -1.422841485748     0.570689261927     1.566041567853    34.968852682000
         C            0.629904514252    -0.216824738073    -0.031338432147    12.000000000000
         C            1.445712514252     0.942059261927    -0.000615432147    12.000000000000
         C            1.232333514252    -1.482817738073    -0.024825432147    12.000000000000
         C            2.835456514252     0.761165261927    -0.001166432147    12.000000000000
         C           -0.885856485748    -0.108104738073    -0.003096432147    12.000000000000
         C            0.950111514252     2.369682261927    -0.014192432147    12.000000000000
         C            2.617861514252    -1.627234738073    -0.025303432147    12.000000000000
         C            3.430173514252    -0.498112738073    -0.011568432147    12.000000000000
         H            0.620203514252    -2.375168738073    -0.031007432147     1.007825032230
         H            3.466910514252     1.647183261927     0.018785567853     1.007825032230
         H            0.741622514252     2.704025261927    -1.034167432147     1.007825032230
         H            0.045227514252     2.514835261927     0.573700567853     1.007825032230
         H            1.726195514252     3.019198261927     0.399560567853     1.007825032230
         H            3.051614514252    -2.623797738073    -0.025462432147     1.007825032230
         H            4.513292514252    -0.591613738073    -0.009386432147     1.007825032230

  Basis Set: AUG-CC-PVTZ
    Blend: AUG-CC-PVTZ
  Basis Set: (AUG-CC-PVTZ AUX)
    Blend: AUG-CC-PVTZ-JKFIT
	 Reference Energy          =   -1685.6497736643418648 [Eh]
	 Singles Energy            =      -0.0000000000000000 [Eh]
	 Same-Spin Energy          =      -0.5435477179961083 [Eh]
	 Opposite-Spin Energy      =      -1.6249692257045512 [Eh]
	 Correlation Energy        =      -2.1685169437006593 [Eh]
	 Total Energy              =   -1687.8182906080426164 [Eh]

	 ================> DF-SCS-MP2 Energies <==================
	-----------------------------------------------------------
	 SCS Same-Spin Scale       =       0.3333333333333333 [-]
	 SCS Opposite-Spin Scale   =       1.2000000000000000 [-]
	 SCS Same-Spin Energy      =      -0.1811825726653694 [Eh]
	 SCS Opposite-Spin Energy  =      -1.9499630708454614 [Eh]
	 SCS Correlation Energy    =      -2.1311456435108309 [Eh]
	 SCS Total Energy          =   -1687.7809193078526278 [Eh]
	-----------------------------------------------------------

  Dipole Moment: [D]
     X:     2.1324      Y:     0.2314      Z:    -0.0541     Total:     2.1456

*** Psi4 exiting successfully. Buy a developer a beer!
