                               Psi4 1.3.2 release

  ==> Input File <==

--------------------------------------------------------------------------
#psi4
#
memory 32 gb

molecule  {
0 1
 Cl       -1.5623360     0.9145460    -1.3283100
 Cl       -1.8035240    -1.6987570    -0.1947580
 Cl       -1.5102210     0.5498050     1.5667370
  C        0.5425250    -0.2377090    -0.0306430
  C        1.3583330     0.9211750     0.0000800
  C        1.1449540    -1.5037020    -0.0241300
  C        2.7480770     0.7402810    -0.0004710
  C       -0.9732360    -0.1289890    -0.0024010
  C        0.8615956     2.3482758     0.0864952
  C        2.5304820    -1.6481190    -0.0246080
  C        3.3427940    -0.5189970    -0.0108730
  H        0.5328240    -2.3960530    -0.0303120
  H        3.3795310     1.6262990     0.0194810
  H        0.6542430     2.6831410    -1.0334720
  H       -0.0421520     2.4939510     0.5743960
  H        1.6388160     2.9983140     0.4002560
  H        2.9642350    -2.6446820    -0.0247670
  H        4.4259130    -0.6124980    -0.0086910
units angstrom
no_reorient  #important for SAPT in psi4, default
symmetry c1  #important for SAPT in psi4, default
}

set PROPERTIES_ORIGIN ["COM"]
properties('MP2/aug-cc-pvtz', properties = ['dipole'])
--------------------------------------------------------------------------

    Molecular point group: c1
  Charge       = 0
  Multiplicity = 1
  Basis Set: AUG-CC-PVTZ
    Blend: AUG-CC-PVTZ
  Basis Set: (AUG-CC-PVTZ AUX)
    Blend: AUG-CC-PVTZ-JKFIT

    Orbital Energies [Eh]
    ---------------------

    Doubly Occupied:

       1A   -104.858086     2A   -104.855752     3A   -104.855639
       4A    -11.442441     5A    -11.273698     6A    -11.268987
       7A    -11.253236     8A    -11.251489     9A    -11.244226
      10A    -11.244111    11A    -11.232230    12A    -10.582668
      13A    -10.580340    14A    -10.580315    15A     -8.049361
      16A     -8.047329    17A     -8.047317    18A     -8.047038
      19A     -8.047024    20A     -8.044985    21A     -8.044957
      22A     -8.044934    23A     -8.044919    24A     -1.246425
      25A     -1.164720    26A     -1.106948    27A     -1.105124
      28A     -1.058373    29A     -1.037677    30A     -0.952399
      31A     -0.882800    32A     -0.825489    33A     -0.789300
      34A     -0.703534    35A     -0.670332    36A     -0.652859
      37A     -0.627407    38A     -0.618006    39A     -0.599798
      40A     -0.588971    41A     -0.571991    42A     -0.566715
      43A     -0.523190    44A     -0.508492    45A     -0.496882
      46A     -0.494417    47A     -0.489799    48A     -0.464162
      49A     -0.455594    50A     -0.448626    51A     -0.441349
      52A     -0.351190    53A     -0.336310

  @DF-RHF Final Energy: -1685.64078505211637

   => Energetics <=

    Nuclear Repulsion Energy =            901.4035015569619418
    One-Electron Energy =               -4114.6486556113522965
    Two-Electron Energy =                1527.6043690022738701
    Total Energy =                      -1685.6407850521163709
  Basis Set: (AUG-CC-PVTZ AUX)
    Blend: AUG-CC-PVTZ-RI
    Molecular point group: c1

    Geometry (in Angstrom), charge = 0, multiplicity = 1:

       Center              X                  Y                   Z               Mass
    ------------   -----------------  -----------------  -----------------  -----------------
         CL          -1.474890912020     0.935460394451    -1.334775285519    34.968852682000
         CL          -1.716078912020    -1.677842605549    -0.201223285519    34.968852682000
         CL          -1.422775912020     0.570719394451     1.560271714481    34.968852682000
         C            0.629970087980    -0.216794605549    -0.037108285519    12.000000000000
         C            1.445778087980     0.942089394451    -0.006385285519    12.000000000000
         C            1.232399087980    -1.482787605549    -0.030595285519    12.000000000000
         C            2.835522087980     0.761195394451    -0.006936285519    12.000000000000
         C           -0.885790912020    -0.108074605549    -0.008866285519    12.000000000000
         C            0.949040687980     2.369190194451     0.080029914481    12.000000000000
         C            2.617927087980    -1.627204605549    -0.031073285519    12.000000000000
         C            3.430239087980    -0.498082605549    -0.017338285519    12.000000000000
         H            0.620269087980    -2.375138605549    -0.036777285519     1.007825032230
         H            3.466976087980     1.647213394451     0.013015714481     1.007825032230
         H            0.741688087980     2.704055394451    -1.039937285519     1.007825032230
         H            0.045293087980     2.514865394451     0.567930714481     1.007825032230
         H            1.726261087980     3.019228394451     0.393790714481     1.007825032230
         H            3.051680087980    -2.623767605549    -0.031232285519     1.007825032230
         H            4.513358087980    -0.591583605549    -0.015156285519     1.007825032230

  Basis Set: AUG-CC-PVTZ
    Blend: AUG-CC-PVTZ
  Basis Set: (AUG-CC-PVTZ AUX)
    Blend: AUG-CC-PVTZ-JKFIT
	 Reference Energy          =   -1685.6407850521163709 [Eh]
	 Singles Energy            =      -0.0000000000000000 [Eh]
	 Same-Spin Energy          =      -0.5436425600165044 [Eh]
	 Opposite-Spin Energy      =      -1.6252636091531016 [Eh]
	 Correlation Energy        =      -2.1689061691696061 [Eh]
	 Total Energy              =   -1687.8096912212859024 [Eh]

	 ================> DF-SCS-MP2 Energies <==================
	-----------------------------------------------------------
	 SCS Same-Spin Scale       =       0.3333333333333333 [-]
	 SCS Opposite-Spin Scale   =       1.2000000000000000 [-]
	 SCS Same-Spin Energy      =      -0.1812141866721681 [Eh]
	 SCS Opposite-Spin Energy  =      -1.9503163309837219 [Eh]
	 SCS Correlation Energy    =      -2.1315305176558899 [Eh]
	 SCS Total Energy          =   -1687.7723155697722177 [Eh]
	-----------------------------------------------------------

  Dipole Moment: [D]
     X:     2.1288      Y:     0.2642      Z:    -0.0194     Total:     2.1452

*** Psi4 exiting successfully. Buy a developer a beer!
