                               Psi4 1.3.2 release

  ==> Input File <==

--------------------------------------------------------------------------
#psi4
#
memory 32 gb

molecule  {
0 1
 Cl       -1.5623360     0.9145460    -1.3283100
 Cl       -1.8035240    -1.6987570    -0.1947580
 Cl       -1.5102210     0.5498050     1.5667370
  C        0.5425250    -0.2377090    -0.0306430
  C        1.3583330     0.9211750     0.0000800
  C        1.1449540    -1.5037020    -0.0241300
  C        2.7480770     0.7402810    -0.0004710
  C       -0.9732360    -0.1289890    -0.0024010
  C        0.8627320     2.3487980    -0.0134970
  C        2.5304820    -1.6481190    -0.0246080
  C        3.3427940    -0.5189970    -0.0108730
  H        0.5328240    -2.3960530    -0.0303120
  H        3.3795310     1.6262990     0.0194810
  H        0.6542430     2.6831410    -1.0334720
  H       -0.0421520     2.4939510     0.5743960
  H        1.6388160     2.9983140     0.4002560
  H        2.9649095    -2.6434949    -0.2247623
  H        4.4259130    -0.6124980    -0.0086910
units angstrom
no_reorient  #important for SAPT in psi4, default
symmetry c1  #important for SAPT in psi4, default
}

set PROPERTIES_ORIGIN ["COM"]
properties('MP2/aug-cc-pvtz', properties = ['dipole'])
--------------------------------------------------------------------------

    Molecular point group: c1
  Charge       = 0
  Multiplicity = 1
  Basis Set: AUG-CC-PVTZ
    Blend: AUG-CC-PVTZ
  Basis Set: (AUG-CC-PVTZ AUX)
    Blend: AUG-CC-PVTZ-JKFIT

    Orbital Energies [Eh]
    ---------------------

    Doubly Occupied:

       1A   -104.858108     2A   -104.855696     3A   -104.855695
       4A    -11.442473     5A    -11.274121     6A    -11.267799
       7A    -11.253425     8A    -11.251564     9A    -11.246259
      10A    -11.244296    11A    -11.230092    12A    -10.582696
      13A    -10.580394    14A    -10.580253    15A     -8.049389
      16A     -8.047357    17A     -8.047344    18A     -8.047101
      19A     -8.046951    20A     -8.045036    21A     -8.045000
      22A     -8.044896    23A     -8.044847    24A     -1.246438
      25A     -1.164759    26A     -1.107006    27A     -1.105063
      28A     -1.057929    29A     -1.037815    30A     -0.951037
      31A     -0.882525    32A     -0.824745    33A     -0.788096
      34A     -0.701816    35A     -0.667333    36A     -0.652396
      37A     -0.627569    38A     -0.617248    39A     -0.599946
      40A     -0.587096    41A     -0.580355    42A     -0.555394
      43A     -0.521471    44A     -0.508079    45A     -0.504914
      46A     -0.493624    47A     -0.488871    48A     -0.463944
      49A     -0.455655    50A     -0.447353    51A     -0.441828
      52A     -0.351209    53A     -0.338726

  @DF-RHF Final Energy: -1685.64724151353403

   => Energetics <=

    Nuclear Repulsion Energy =            901.3827811942306880
    One-Electron Energy =               -4114.6379774932311193
    Two-Electron Energy =                1527.6079547854665179
    Total Energy =                      -1685.6472415135340270
  Basis Set: (AUG-CC-PVTZ AUX)
    Blend: AUG-CC-PVTZ-RI
    Molecular point group: c1

    Geometry (in Angstrom), charge = 0, multiplicity = 1:

       Center              X                  Y                   Z               Mass
    ------------   -----------------  -----------------  -----------------  -----------------
         CL          -1.474959754519     0.935424508987    -1.328036212213    34.968852682000
         CL          -1.716147754519    -1.677878491013    -0.194484212213    34.968852682000
         CL          -1.422844754519     0.570683508987     1.567010787787    34.968852682000
         C            0.629901245481    -0.216830491013    -0.030369212213    12.000000000000
         C            1.445709245481     0.942053508987     0.000353787787    12.000000000000
         C            1.232330245481    -1.482823491013    -0.023856212213    12.000000000000
         C            2.835453245481     0.761159508987    -0.000197212213    12.000000000000
         C           -0.885859754519    -0.108110491013    -0.002127212213    12.000000000000
         C            0.950108245481     2.369676508987    -0.013223212213    12.000000000000
         C            2.617858245481    -1.627240491013    -0.024334212213    12.000000000000
         C            3.430170245481    -0.498118491013    -0.010599212213    12.000000000000
         H            0.620200245481    -2.375174491013    -0.030038212213     1.007825032230
         H            3.466907245481     1.647177508987     0.019754787787     1.007825032230
         H            0.741619245481     2.704019508987    -1.033198212213     1.007825032230
         H            0.045224245481     2.514829508987     0.574669787787     1.007825032230
         H            1.726192245481     3.019192508987     0.400529787787     1.007825032230
         H            3.052285745481    -2.622616391013    -0.224488512213     1.007825032230
         H            4.513289245481    -0.591619491013    -0.008417212213     1.007825032230

  Basis Set: AUG-CC-PVTZ
    Blend: AUG-CC-PVTZ
  Basis Set: (AUG-CC-PVTZ AUX)
    Blend: AUG-CC-PVTZ-JKFIT
	 Reference Energy          =   -1685.6472415135340270 [Eh]
	 Singles Energy            =      -0.0000000000000000 [Eh]
	 Same-Spin Energy          =      -0.5436657046454016 [Eh]
	 Opposite-Spin Energy      =      -1.6252392698475795 [Eh]
	 Correlation Energy        =      -2.1689049744929809 [Eh]
	 Total Energy              =   -1687.8161464880270159 [Eh]

	 ================> DF-SCS-MP2 Energies <==================
	-----------------------------------------------------------
	 SCS Same-Spin Scale       =       0.3333333333333333 [-]
	 SCS Opposite-Spin Scale   =       1.2000000000000000 [-]
	 SCS Same-Spin Energy      =      -0.1812219015484672 [Eh]
	 SCS Opposite-Spin Energy  =      -1.9502871238170953 [Eh]
	 SCS Correlation Energy    =      -2.1315090253655624 [Eh]
	 SCS Total Energy          =   -1687.7787505388996578 [Eh]
	-----------------------------------------------------------

  Dipole Moment: [D]
     X:     2.1174      Y:     0.2612      Z:    -0.1778     Total:     2.1409

*** Psi4 exiting successfully. Buy a developer a beer!
