                               Psi4 1.3.2 release

  ==> Input File <==

--------------------------------------------------------------------------
#psi4
#
memory 32 gb

molecule  {
0 1
 Cl       -1.5623360     0.9145460    -1.3283100
 Cl       -1.8035240    -1.6987570    -0.1947580
 Cl       -1.5102210     0.5498050     1.5667370
  C        0.5425250    -0.2377090    -0.0306430
  C        1.3583330     0.9211750     0.0000800
  C        1.1449540    -1.5037020    -0.0241300
  C        2.7480770     0.7402810    -0.0004710
  C       -0.9732360    -0.1289890    -0.0024010
  C        0.8604593     2.3477537     0.1864874
  C        2.5304820    -1.6481190    -0.0246080
  C        3.3427940    -0.5189970    -0.0108730
  H        0.5328240    -2.3960530    -0.0303120
  H        3.3795310     1.6262990     0.0194810
  H        0.6542430     2.6831410    -1.0334720
  H       -0.0421520     2.4939510     0.5743960
  H        1.6388160     2.9983140     0.4002560
  H        2.9642350    -2.6446820    -0.0247670
  H        4.4259130    -0.6124980    -0.0086910
units angstrom
no_reorient  #important for SAPT in psi4, default
symmetry c1  #important for SAPT in psi4, default
}

set PROPERTIES_ORIGIN ["COM"]
properties('MP2/aug-cc-pvtz', properties = ['dipole'])
--------------------------------------------------------------------------

    Molecular point group: c1
  Charge       = 0
  Multiplicity = 1
  Basis Set: AUG-CC-PVTZ
    Blend: AUG-CC-PVTZ
  Basis Set: (AUG-CC-PVTZ AUX)
    Blend: AUG-CC-PVTZ-JKFIT

    Orbital Energies [Eh]
    ---------------------

    Doubly Occupied:

       1A   -104.858190     2A   -104.855914     3A   -104.855698
       4A    -11.442555     5A    -11.273657     6A    -11.271848
       7A    -11.253510     8A    -11.251892     9A    -11.244420
      10A    -11.243720    11A    -11.237491    12A    -10.582768
      13A    -10.580531    14A    -10.580354    15A     -8.049460
      16A     -8.047428    17A     -8.047416    18A     -8.047229
      19A     -8.047061    20A     -8.045179    21A     -8.045127
      22A     -8.044993    23A     -8.044954    24A     -1.246563
      25A     -1.164927    26A     -1.107042    27A     -1.105279
      28A     -1.058591    29A     -1.037870    30A     -0.954670
      31A     -0.883540    32A     -0.826519    33A     -0.790299
      34A     -0.704328    35A     -0.675170    36A     -0.653467
      37A     -0.627517    38A     -0.618478    39A     -0.607094
      40A     -0.594636    41A     -0.579472    42A     -0.553644
      43A     -0.525165    44A     -0.509079    45A     -0.496380
      46A     -0.491393    47A     -0.481008    48A     -0.463871
      49A     -0.455469    50A     -0.449349    51A     -0.440432
      52A     -0.351525    53A     -0.332453

  @DF-RHF Final Energy: -1685.61667593637389

   => Energetics <=

    Nuclear Repulsion Energy =            901.2436357104041917
    One-Electron Energy =               -4114.2473757352472603
    Two-Electron Energy =                1527.3870640884690602
    Total Energy =                      -1685.6166759363738947
  Basis Set: (AUG-CC-PVTZ AUX)
    Blend: AUG-CC-PVTZ-RI
    Molecular point group: c1

    Geometry (in Angstrom), charge = 0, multiplicity = 1:

       Center              X                  Y                   Z               Mass
    ------------   -----------------  -----------------  -----------------  -----------------
         CL          -1.474825344062     0.935490521206    -1.340545138891    34.968852682000
         CL          -1.716013344062    -1.677812478794    -0.206993138891    34.968852682000
         CL          -1.422710344062     0.570749521206     1.554501861109    34.968852682000
         C            0.630035655938    -0.216764478794    -0.042878138891    12.000000000000
         C            1.445843655938     0.942119521206    -0.012155138891    12.000000000000
         C            1.232464655938    -1.482757478794    -0.036365138891    12.000000000000
         C            2.835587655938     0.761225521206    -0.012706138891    12.000000000000
         C           -0.885725344062    -0.108044478794    -0.014636138891    12.000000000000
         C            0.947969955938     2.368698221206     0.174252261109    12.000000000000
         C            2.617992655938    -1.627174478794    -0.036843138891    12.000000000000
         C            3.430304655938    -0.498052478794    -0.023108138891    12.000000000000
         H            0.620334655938    -2.375108478794    -0.042547138891     1.007825032230
         H            3.467041655938     1.647243521206     0.007245861109     1.007825032230
         H            0.741753655938     2.704085521206    -1.045707138891     1.007825032230
         H            0.045358655938     2.514895521206     0.562160861109     1.007825032230
         H            1.726326655938     3.019258521206     0.388020861109     1.007825032230
         H            3.051745655938    -2.623737478794    -0.037002138891     1.007825032230
         H            4.513423655938    -0.591553478794    -0.020926138891     1.007825032230

  Basis Set: AUG-CC-PVTZ
    Blend: AUG-CC-PVTZ
  Basis Set: (AUG-CC-PVTZ AUX)
    Blend: AUG-CC-PVTZ-JKFIT
	 Reference Energy          =   -1685.6166759363738947 [Eh]
	 Singles Energy            =      -0.0000000000000000 [Eh]
	 Same-Spin Energy          =      -0.5440399101062141 [Eh]
	 Opposite-Spin Energy      =      -1.6264546766112793 [Eh]
	 Correlation Energy        =      -2.1704945867174934 [Eh]
	 Total Energy              =   -1687.7871705230913904 [Eh]

	 ================> DF-SCS-MP2 Energies <==================
	-----------------------------------------------------------
	 SCS Same-Spin Scale       =       0.3333333333333333 [-]
	 SCS Opposite-Spin Scale   =       1.2000000000000000 [-]
	 SCS Same-Spin Energy      =      -0.1813466367020714 [Eh]
	 SCS Opposite-Spin Energy  =      -1.9517456119335350 [Eh]
	 SCS Correlation Energy    =      -2.1330922486356063 [Eh]
	 SCS Total Energy          =   -1687.7497681850095432 [Eh]
	-----------------------------------------------------------

  Dipole Moment: [D]
     X:     2.1286      Y:     0.2813      Z:     0.0186     Total:     2.1471

*** Psi4 exiting successfully. Buy a developer a beer!
