                               Psi4 1.3.2 release

  ==> Input File <==

--------------------------------------------------------------------------
#psi4
#
memory 32 gb

molecule  {
0 1
 Cl       -1.5623360     0.9145460    -1.3283100
 Cl       -1.8035240    -1.6987570    -0.1947580
 Cl       -1.5102210     0.5498050     1.5667370
  C        0.5425250    -0.2377090    -0.0306430
  C        1.3583330     0.9211750     0.0000800
  C        1.1449540    -1.5037020    -0.0241300
  C        2.7480770     0.7402810    -0.0004710
  C       -0.9735934    -0.1279592    -0.1023951
  C        0.8627320     2.3487980    -0.0134970
  C        2.5304820    -1.6481190    -0.0246080
  C        3.3427940    -0.5189970    -0.0108730
  H        0.5328240    -2.3960530    -0.0303120
  H        3.3795310     1.6262990     0.0194810
  H        0.6542430     2.6831410    -1.0334720
  H       -0.0421520     2.4939510     0.5743960
  H        1.6388160     2.9983140     0.4002560
  H        2.9642350    -2.6446820    -0.0247670
  H        4.4259130    -0.6124980    -0.0086910
units angstrom
no_reorient  #important for SAPT in psi4, default
symmetry c1  #important for SAPT in psi4, default
}

set PROPERTIES_ORIGIN ["COM"]
properties('MP2/aug-cc-pvtz', properties = ['dipole'])
--------------------------------------------------------------------------

    Molecular point group: c1
  Charge       = 0
  Multiplicity = 1
  Basis Set: AUG-CC-PVTZ
    Blend: AUG-CC-PVTZ
  Basis Set: (AUG-CC-PVTZ AUX)
    Blend: AUG-CC-PVTZ-JKFIT

    Orbital Energies [Eh]
    ---------------------

    Doubly Occupied:

       1A   -104.866435     2A   -104.859750     3A   -104.841888
       4A    -11.443643     5A    -11.274952     6A    -11.267618
       7A    -11.253407     8A    -11.251406     9A    -11.245011
      10A    -11.244366    11A    -11.230011    12A    -10.592063
      13A    -10.584374    14A    -10.565879    15A     -8.058932
      16A     -8.056668    17A     -8.056612    18A     -8.051079
      19A     -8.049022    20A     -8.049016    21A     -8.032426
      22A     -8.030546    23A     -8.030513    24A     -1.250749
      25A     -1.165806    26A     -1.119565    27A     -1.089743
      28A     -1.058075    29A     -1.037637    30A     -0.951505
      31A     -0.882578    32A     -0.825147    33A     -0.789788
      34A     -0.704403    35A     -0.668368    36A     -0.654276
      37A     -0.626347    38A     -0.618376    39A     -0.602139
      40A     -0.587382    41A     -0.582101    42A     -0.555259
      43A     -0.521792    44A     -0.506918    45A     -0.504902
      46A     -0.499500    47A     -0.486682    48A     -0.462717
      49A     -0.454918    50A     -0.446022    51A     -0.437494
      52A     -0.350497    53A     -0.338965

  @DF-RHF Final Energy: -1685.64492598658649

   => Energetics <=

    Nuclear Repulsion Energy =            901.4314039256349815
    One-Electron Energy =               -4114.7221300951478042
    Two-Electron Energy =                1527.6458001829262230
    Total Energy =                      -1685.6449259865864860
  Basis Set: (AUG-CC-PVTZ AUX)
    Blend: AUG-CC-PVTZ-RI
    Molecular point group: c1

    Geometry (in Angstrom), charge = 0, multiplicity = 1:

       Center              X                  Y                   Z               Mass
    ------------   -----------------  -----------------  -----------------  -----------------
         CL          -1.474935862684     0.935370839342    -1.323235469139    34.968852682000
         CL          -1.716123862684    -1.677932160658    -0.189683469139    34.968852682000
         CL          -1.422820862684     0.570629839342     1.571811530861    34.968852682000
         C            0.629925137316    -0.216884160658    -0.025568469139    12.000000000000
         C            1.445733137316     0.941999839342     0.005154530861    12.000000000000
         C            1.232354137316    -1.482877160658    -0.019055469139    12.000000000000
         C            2.835477137316     0.761105839342     0.004603530861    12.000000000000
         C           -0.886193262684    -0.107134360658    -0.097320569139    12.000000000000
         C            0.950132137316     2.369622839342    -0.008422469139    12.000000000000
         C            2.617882137316    -1.627294160658    -0.019533469139    12.000000000000
         C            3.430194137316    -0.498172160658    -0.005798469139    12.000000000000
         H            0.620224137316    -2.375228160658    -0.025237469139     1.007825032230
         H            3.466931137316     1.647123839342     0.024555530861     1.007825032230
         H            0.741643137316     2.703965839342    -1.028397469139     1.007825032230
         H            0.045248137316     2.514775839342     0.579470530861     1.007825032230
         H            1.726216137316     3.019138839342     0.405330530861     1.007825032230
         H            3.051635137316    -2.623857160658    -0.019692469139     1.007825032230
         H            4.513313137316    -0.591673160658    -0.003616469139     1.007825032230

  Basis Set: AUG-CC-PVTZ
    Blend: AUG-CC-PVTZ
  Basis Set: (AUG-CC-PVTZ AUX)
    Blend: AUG-CC-PVTZ-JKFIT
	 Reference Energy          =   -1685.6449259865864860 [Eh]
	 Singles Energy            =      -0.0000000000000000 [Eh]
	 Same-Spin Energy          =      -0.5439298898362134 [Eh]
	 Opposite-Spin Energy      =      -1.6254222650561390 [Eh]
	 Correlation Energy        =      -2.1693521548923522 [Eh]
	 Total Energy              =   -1687.8142781414787805 [Eh]

	 ================> DF-SCS-MP2 Energies <==================
	-----------------------------------------------------------
	 SCS Same-Spin Scale       =       0.3333333333333333 [-]
	 SCS Opposite-Spin Scale   =       1.2000000000000000 [-]
	 SCS Same-Spin Energy      =      -0.1813099632787378 [Eh]
	 SCS Opposite-Spin Energy  =      -1.9505067180673668 [Eh]
	 SCS Correlation Energy    =      -2.1318166813461046 [Eh]
	 SCS Total Energy          =   -1687.7767426679326945 [Eh]
	-----------------------------------------------------------

  Dipole Moment: [D]
     X:     2.1271      Y:     0.2461      Z:    -0.6091     Total:     2.2263

*** Psi4 exiting successfully. Buy a developer a beer!
