                               Psi4 1.3.2 release

  ==> Input File <==

--------------------------------------------------------------------------
#psi4
#
memory 32 gb

molecule  {
0 1
 Cl       -1.5623360     0.9145460    -1.3283100
 Cl       -1.8035240    -1.6987570    -0.1947580
 Cl       -1.5102210     0.5498050     1.5667370
  C        0.5425250    -0.2377090    -0.0306430
  C        1.3583330     0.9211750     0.0000800
  C        1.1449540    -1.5037020    -0.0241300
  C        2.7480770     0.7402810    -0.0004710
  C       -0.9734147    -0.1284741    -0.0523980
  C        0.8627320     2.3487980    -0.0134970
  C        2.5304820    -1.6481190    -0.0246080
  C        3.3427940    -0.5189970    -0.0108730
  H        0.5328240    -2.3960530    -0.0303120
  H        3.3795310     1.6262990     0.0194810
  H        0.6542430     2.6831410    -1.0334720
  H       -0.0421520     2.4939510     0.5743960
  H        1.6388160     2.9983140     0.4002560
  H        2.9642350    -2.6446820    -0.0247670
  H        4.4259130    -0.6124980    -0.0086910
units angstrom
no_reorient  #important for SAPT in psi4, default
symmetry c1  #important for SAPT in psi4, default
}

set PROPERTIES_ORIGIN ["COM"]
properties('MP2/aug-cc-pvtz', properties = ['dipole'])
--------------------------------------------------------------------------

    Molecular point group: c1
  Charge       = 0
  Multiplicity = 1
  Basis Set: AUG-CC-PVTZ
    Blend: AUG-CC-PVTZ
  Basis Set: (AUG-CC-PVTZ AUX)
    Blend: AUG-CC-PVTZ-JKFIT

    Orbital Energies [Eh]
    ---------------------

    Doubly Occupied:

       1A   -104.861048     2A   -104.858856     3A   -104.849032
       4A    -11.442746     5A    -11.274283     6A    -11.267489
       7A    -11.253230     8A    -11.251308     9A    -11.244858
      10A    -11.244238    11A    -11.229949    12A    -10.586162
      13A    -10.583476    14A    -10.573241    15A     -8.052947
      16A     -8.050789    17A     -8.050743    18A     -8.050177
      19A     -8.048132    20A     -8.048123    21A     -8.039859
      22A     -8.037897    23A     -8.037856    24A     -1.247535
      25A     -1.164982    26A     -1.113283    27A     -1.097764
      28A     -1.058175    29A     -1.037686    30A     -0.951406
      31A     -0.882553    32A     -0.824998    33A     -0.789141
      34A     -0.703562    35A     -0.667614    36A     -0.652921
      37A     -0.626580    38A     -0.617916    39A     -0.600794
      40A     -0.587297    41A     -0.581884    42A     -0.555273
      43A     -0.521132    44A     -0.507436    45A     -0.504632
      46A     -0.497284    47A     -0.487956    48A     -0.463643
      49A     -0.454891    50A     -0.447254    51A     -0.440808
      52A     -0.350837    53A     -0.338983

  @DF-RHF Final Energy: -1685.64858345588982

   => Energetics <=

    Nuclear Repulsion Energy =            901.4439816242675079
    One-Electron Energy =               -4114.7598111536017313
    Two-Electron Energy =                1527.6672460734444030
    Total Energy =                      -1685.6485834558898205
  Basis Set: (AUG-CC-PVTZ AUX)
    Blend: AUG-CC-PVTZ-RI
    Molecular point group: c1

    Geometry (in Angstrom), charge = 0, multiplicity = 1:

       Center              X                  Y                   Z               Mass
    ------------   -----------------  -----------------  -----------------  -----------------
         CL          -1.474946174216     0.935400550634    -1.326120453528    34.968852682000
         CL          -1.716134174216    -1.677902449366    -0.192568453528    34.968852682000
         CL          -1.422831174216     0.570659550634     1.568926546472    34.968852682000
         C            0.629914825784    -0.216854449366    -0.028453453528    12.000000000000
         C            1.445722825784     0.942029550634     0.002269546472    12.000000000000
         C            1.232343825784    -1.482847449366    -0.021940453528    12.000000000000
         C            2.835466825784     0.761135550634     0.001718546472    12.000000000000
         C           -0.886024874216    -0.107619549366    -0.050208453528    12.000000000000
         C            0.950121825784     2.369652550634    -0.011307453528    12.000000000000
         C            2.617871825784    -1.627264449366    -0.022418453528    12.000000000000
         C            3.430183825784    -0.498142449366    -0.008683453528    12.000000000000
         H            0.620213825784    -2.375198449366    -0.028122453528     1.007825032230
         H            3.466920825784     1.647153550634     0.021670546472     1.007825032230
         H            0.741632825784     2.703995550634    -1.031282453528     1.007825032230
         H            0.045237825784     2.514805550634     0.576585546472     1.007825032230
         H            1.726205825784     3.019168550634     0.402445546472     1.007825032230
         H            3.051624825784    -2.623827449366    -0.022577453528     1.007825032230
         H            4.513302825784    -0.591643449366    -0.006501453528     1.007825032230

  Basis Set: AUG-CC-PVTZ
    Blend: AUG-CC-PVTZ
  Basis Set: (AUG-CC-PVTZ AUX)
    Blend: AUG-CC-PVTZ-JKFIT
	 Reference Energy          =   -1685.6485834558898205 [Eh]
	 Singles Energy            =      -0.0000000000000000 [Eh]
	 Same-Spin Energy          =      -0.5436562950823418 [Eh]
	 Opposite-Spin Energy      =      -1.6250941388652027 [Eh]
	 Correlation Energy        =      -2.1687504339475447 [Eh]
	 Total Energy              =   -1687.8173338898373004 [Eh]

	 ================> DF-SCS-MP2 Energies <==================
	-----------------------------------------------------------
	 SCS Same-Spin Scale       =       0.3333333333333333 [-]
	 SCS Opposite-Spin Scale   =       1.2000000000000000 [-]
	 SCS Same-Spin Energy      =      -0.1812187650274473 [Eh]
	 SCS Opposite-Spin Energy  =      -1.9501129666382431 [Eh]
	 SCS Correlation Energy    =      -2.1313317316656901 [Eh]
	 SCS Total Energy          =   -1687.7799151875556163 [Eh]
	-----------------------------------------------------------

  Dipole Moment: [D]
     X:     2.1286      Y:     0.2365      Z:    -0.3302     Total:     2.1670

*** Psi4 exiting successfully. Buy a developer a beer!
