                               Psi4 1.3.2 release

  ==> Input File <==

--------------------------------------------------------------------------
#psi4
#
memory 32 gb

molecule  {
0 1
 Cl       -1.5623360     0.9145460    -1.3283100
 Cl       -1.8035240    -1.6987570    -0.1947580
 Cl       -1.5102210     0.5498050     1.5667370
  C        0.5425250    -0.2377090    -0.0306430
  C        1.3583330     0.9211750     0.0000800
  C        1.1449540    -1.5037020    -0.0241300
  C        2.7480770     0.7402810    -0.0004710
  C       -0.9732360    -0.1289890    -0.0024010
  C        0.8627320     2.3487980    -0.0134970
  C        2.5304820    -1.6481190    -0.0246080
  C        3.3427940    -0.5189970    -0.0108730
  H        0.5328240    -2.3960530    -0.0303120
  H        3.3795310     1.6262990     0.0194810
  H        0.6542430     2.6831410    -1.0334720
  H       -0.0421520     2.4939510     0.5743960
  H        1.6388160     2.9983140     0.4002560
  H        2.9645722    -2.6440884    -0.1247647
  H        4.4259130    -0.6124980    -0.0086910
units angstrom
no_reorient  #important for SAPT in psi4, default
symmetry c1  #important for SAPT in psi4, default
}

set PROPERTIES_ORIGIN ["COM"]
properties('MP2/aug-cc-pvtz', properties = ['dipole'])
--------------------------------------------------------------------------

    Molecular point group: c1
  Charge       = 0
  Multiplicity = 1
  Basis Set: AUG-CC-PVTZ
    Blend: AUG-CC-PVTZ
  Basis Set: (AUG-CC-PVTZ AUX)
    Blend: AUG-CC-PVTZ-JKFIT

    Orbital Energies [Eh]
    ---------------------

    Doubly Occupied:

       1A   -104.858050     2A   -104.855659     3A   -104.855601
       4A    -11.442405     5A    -11.274023     6A    -11.267508
       7A    -11.253198     8A    -11.251336     9A    -11.245137
      10A    -11.244200    11A    -11.229950    12A    -10.582639
      13A    -10.580298    14A    -10.580215    15A     -8.049331
      16A     -8.047300    17A     -8.047287    18A     -8.047005
      19A     -8.046914    20A     -8.044940    21A     -8.044903
      22A     -8.044859    23A     -8.044810    24A     -1.246362
      25A     -1.164666    26A     -1.106939    27A     -1.105002
      28A     -1.058046    29A     -1.037684    30A     -0.951238
      31A     -0.882464    32A     -0.824862    33A     -0.788669
      34A     -0.702847    35A     -0.667253    36A     -0.652369
      37A     -0.627478    38A     -0.617523    39A     -0.599963
      40A     -0.587009    41A     -0.581554    42A     -0.555284
      43A     -0.521238    44A     -0.507135    45A     -0.505304
      46A     -0.494914    47A     -0.488884    48A     -0.463975
      49A     -0.455632    50A     -0.447283    51A     -0.441765
      52A     -0.351084    53A     -0.338910

  @DF-RHF Final Energy: -1685.64918351864299

   => Energetics <=

    Nuclear Repulsion Energy =            901.4354021477872720
    One-Electron Energy =               -4114.7473661575068036
    Two-Electron Energy =                1527.6627804910763189
    Total Energy =                      -1685.6491835186429853
  Basis Set: (AUG-CC-PVTZ AUX)
    Blend: AUG-CC-PVTZ-RI
    Molecular point group: c1

    Geometry (in Angstrom), charge = 0, multiplicity = 1:

       Center              X                  Y                   Z               Mass
    ------------   -----------------  -----------------  -----------------  -----------------
         CL          -1.474958119891     0.935427385214    -1.328520821938    34.968852682000
         CL          -1.716146119891    -1.677875614786    -0.194968821938    34.968852682000
         CL          -1.422843119891     0.570686385214     1.566526178062    34.968852682000
         C            0.629902880109    -0.216827614786    -0.030853821938    12.000000000000
         C            1.445710880109     0.942056385214    -0.000130821938    12.000000000000
         C            1.232331880109    -1.482820614786    -0.024340821938    12.000000000000
         C            2.835454880109     0.761162385214    -0.000681821938    12.000000000000
         C           -0.885858119891    -0.108107614786    -0.002611821938    12.000000000000
         C            0.950109880109     2.369679385214    -0.013707821938    12.000000000000
         C            2.617859880109    -1.627237614786    -0.024818821938    12.000000000000
         C            3.430171880109    -0.498115614786    -0.011083821938    12.000000000000
         H            0.620201880109    -2.375171614786    -0.030522821938     1.007825032230
         H            3.466908880109     1.647180385214     0.019270178062     1.007825032230
         H            0.741620880109     2.704022385214    -1.033682821938     1.007825032230
         H            0.045225880109     2.514832385214     0.574185178062     1.007825032230
         H            1.726193880109     3.019195385214     0.400045178062     1.007825032230
         H            3.051950080109    -2.623207014786    -0.124975521938     1.007825032230
         H            4.513290880109    -0.591616614786    -0.008901821938     1.007825032230

  Basis Set: AUG-CC-PVTZ
    Blend: AUG-CC-PVTZ
  Basis Set: (AUG-CC-PVTZ AUX)
    Blend: AUG-CC-PVTZ-JKFIT
	 Reference Energy          =   -1685.6491835186429853 [Eh]
	 Singles Energy            =      -0.0000000000000000 [Eh]
	 Same-Spin Energy          =      -0.5435752400748142 [Eh]
	 Opposite-Spin Energy      =      -1.6250234186744614 [Eh]
	 Correlation Energy        =      -2.1685986587492758 [Eh]
	 Total Energy              =   -1687.8177821773922460 [Eh]

	 ================> DF-SCS-MP2 Energies <==================
	-----------------------------------------------------------
	 SCS Same-Spin Scale       =       0.3333333333333333 [-]
	 SCS Opposite-Spin Scale   =       1.2000000000000000 [-]
	 SCS Same-Spin Energy      =      -0.1811917466916047 [Eh]
	 SCS Opposite-Spin Energy  =      -1.9500281024093535 [Eh]
	 SCS Correlation Energy    =      -2.1312198491009582 [Eh]
	 SCS Total Energy          =   -1687.7804033677439293 [Eh]
	-----------------------------------------------------------

  Dipole Moment: [D]
     X:     2.1292      Y:     0.2388      Z:    -0.1165     Total:     2.1457

*** Psi4 exiting successfully. Buy a developer a beer!
