                               Psi4 1.3.2 release

  ==> Input File <==

--------------------------------------------------------------------------
#psi4
#
memory 32 gb

molecule  {
0 1
 Cl       -1.5623360     0.9145460    -1.3283100
 Cl       -1.8035240    -1.6987570    -0.1947580
 Cl       -1.5102210     0.5498050     1.5667370
  C        0.5425250    -0.2377090    -0.0306430
  C        1.3583330     0.9211750     0.0000800
  C        1.1449540    -1.5037020    -0.0241300
  C        2.7480770     0.7402810    -0.0004710
  C       -0.9732360    -0.1289890    -0.0024010
  C        0.8627320     2.3487980    -0.0134970
  C        2.5304820    -1.6481190    -0.0246080
  C        3.3427940    -0.5189970    -0.0108730
  H        0.5328240    -2.3960530    -0.0303120
  H        3.3795310     1.6262990     0.0194810
  H        0.6542430     2.6831410    -1.0334720
  H       -0.0421520     2.4939510     0.5743960
  H        1.6388160     2.9983140     0.4002560
  H        2.9644036    -2.6443852    -0.0747658
  H        4.4259130    -0.6124980    -0.0086910
units angstrom
no_reorient  #important for SAPT in psi4, default
symmetry c1  #important for SAPT in psi4, default
}

set PROPERTIES_ORIGIN ["COM"]
properties('MP2/aug-cc-pvtz', properties = ['dipole'])
--------------------------------------------------------------------------

    Molecular point group: c1
  Charge       = 0
  Multiplicity = 1
  Basis Set: AUG-CC-PVTZ
    Blend: AUG-CC-PVTZ
  Basis Set: (AUG-CC-PVTZ AUX)
    Blend: AUG-CC-PVTZ-JKFIT

    Orbital Energies [Eh]
    ---------------------

    Doubly Occupied:

       1A   -104.858037     2A   -104.855658     3A   -104.855571
       4A    -11.442390     5A    -11.273999     6A    -11.267437
       7A    -11.253146     8A    -11.251284     9A    -11.244861
      10A    -11.244178    11A    -11.229919    12A    -10.582625
      13A    -10.580269    14A    -10.580214    15A     -8.049318
      16A     -8.047286    17A     -8.047274    18A     -8.046976
      19A     -8.046913    20A     -8.044911    21A     -8.044874
      22A     -8.044858    23A     -8.044809    24A     -1.246344
      25A     -1.164646    26A     -1.106922    27A     -1.104990
      28A     -1.058079    29A     -1.037654    30A     -0.951292
      31A     -0.882450    32A     -0.824895    33A     -0.788817
      34A     -0.703109    35A     -0.667234    36A     -0.652364
      37A     -0.627457    38A     -0.617602    39A     -0.599943
      40A     -0.587036    41A     -0.581796    42A     -0.555260
      43A     -0.521164    44A     -0.507309    45A     -0.504893
      46A     -0.495376    47A     -0.488876    48A     -0.463969
      49A     -0.455630    50A     -0.447266    51A     -0.441751
      52A     -0.351053    53A     -0.338967

  @DF-RHF Final Energy: -1685.64963633795696

   => Energetics <=

    Nuclear Repulsion Energy =            901.4486809793958173
    One-Electron Energy =               -4114.7747375640774408
    Two-Electron Energy =                1527.6764202467247742
    Total Energy =                      -1685.6496363379569630
  Basis Set: (AUG-CC-PVTZ AUX)
    Blend: AUG-CC-PVTZ-RI
    Molecular point group: c1

    Geometry (in Angstrom), charge = 0, multiplicity = 1:

       Center              X                  Y                   Z               Mass
    ------------   -----------------  -----------------  -----------------  -----------------
         CL          -1.474957302820     0.935428823571    -1.328763127285    34.968852682000
         CL          -1.716145302820    -1.677874176429    -0.195211127285    34.968852682000
         CL          -1.422842302820     0.570687823571     1.566283872715    34.968852682000
         C            0.629903697180    -0.216826176429    -0.031096127285    12.000000000000
         C            1.445711697180     0.942057823571    -0.000373127285    12.000000000000
         C            1.232332697180    -1.482819176429    -0.024583127285    12.000000000000
         C            2.835455697180     0.761163823571    -0.000924127285    12.000000000000
         C           -0.885857302820    -0.108106176429    -0.002854127285    12.000000000000
         C            0.950110697180     2.369680823571    -0.013950127285    12.000000000000
         C            2.617860697180    -1.627236176429    -0.025061127285    12.000000000000
         C            3.430172697180    -0.498114176429    -0.011326127285    12.000000000000
         H            0.620202697180    -2.375170176429    -0.030765127285     1.007825032230
         H            3.466909697180     1.647181823571     0.019027872715     1.007825032230
         H            0.741621697180     2.704023823571    -1.033925127285     1.007825032230
         H            0.045226697180     2.514833823571     0.573942872715     1.007825032230
         H            1.726194697180     3.019196823571     0.399802872715     1.007825032230
         H            3.051782297180    -2.623502376429    -0.075218927285     1.007825032230
         H            4.513291697180    -0.591615176429    -0.009144127285     1.007825032230

  Basis Set: AUG-CC-PVTZ
    Blend: AUG-CC-PVTZ
  Basis Set: (AUG-CC-PVTZ AUX)
    Blend: AUG-CC-PVTZ-JKFIT
	 Reference Energy          =   -1685.6496363379569630 [Eh]
	 Singles Energy            =      -0.0000000000000000 [Eh]
	 Same-Spin Energy          =      -0.5435535849918618 [Eh]
	 Opposite-Spin Energy      =      -1.6249795963916942 [Eh]
	 Correlation Energy        =      -2.1685331813835562 [Eh]
	 Total Energy              =   -1687.8181695193404721 [Eh]

	 ================> DF-SCS-MP2 Energies <==================
	-----------------------------------------------------------
	 SCS Same-Spin Scale       =       0.3333333333333333 [-]
	 SCS Opposite-Spin Scale   =       1.2000000000000000 [-]
	 SCS Same-Spin Energy      =      -0.1811845283306206 [Eh]
	 SCS Opposite-Spin Energy  =      -1.9499755156700329 [Eh]
	 SCS Correlation Energy    =      -2.1311600440006533 [Eh]
	 SCS Total Energy          =   -1687.7807963819575434 [Eh]
	-----------------------------------------------------------

  Dipole Moment: [D]
     X:     2.1319      Y:     0.2332      Z:    -0.0854     Total:     2.1463

*** Psi4 exiting successfully. Buy a developer a beer!
