                               Psi4 1.3.2 release

  ==> Input File <==

--------------------------------------------------------------------------
#psi4
#
memory 32 gb

molecule  {
0 1
 Cl       -1.5623360     0.9145460    -1.3283100
 Cl       -1.8035240    -1.6987570    -0.1947580
 Cl       -1.5102210     0.5498050     1.5667370
  C        0.5425250    -0.2377090    -0.0306430
  C        1.3583330     0.9211750     0.0000800
  C        1.1449540    -1.5037020    -0.0241300
  C        2.7480770     0.7402810    -0.0004710
  C       -0.9732360    -0.1289890    -0.0024010
  C        0.8627320     2.3487980    -0.0134970
  C        2.5304820    -1.6481190    -0.0246080
  C        3.3427940    -0.5189970    -0.0108730
  H        0.5328240    -2.3960530    -0.0303120
  H        3.3795310     1.6262990     0.0194810
  H        0.6542430     2.6831410    -1.0334720
  H       -0.0421520     2.4939510     0.5743960
  H        1.6388160     2.9983140     0.4002560
  H        2.9650781    -2.6431981    -0.2747612
  H        4.4259130    -0.6124980    -0.0086910
units angstrom
no_reorient  #important for SAPT in psi4, default
symmetry c1  #important for SAPT in psi4, default
}

set PROPERTIES_ORIGIN ["COM"]
properties('MP2/aug-cc-pvtz', properties = ['dipole'])
--------------------------------------------------------------------------

    Molecular point group: c1
  Charge       = 0
  Multiplicity = 1
  Basis Set: AUG-CC-PVTZ
    Blend: AUG-CC-PVTZ
  Basis Set: (AUG-CC-PVTZ AUX)
    Blend: AUG-CC-PVTZ-JKFIT

    Orbital Energies [Eh]
    ---------------------

    Doubly Occupied:

       1A   -104.858153     2A   -104.855763     3A   -104.855731
       4A    -11.442526     5A    -11.274196     6A    -11.268017
       7A    -11.253603     8A    -11.251743     9A    -11.247091
      10A    -11.244370    11A    -11.230201    12A    -10.582741
      13A    -10.580460    14A    -10.580290    15A     -8.049434
      16A     -8.047402    17A     -8.047389    18A     -8.047168
      19A     -8.046988    20A     -8.045103    21A     -8.045066
      22A     -8.044933    23A     -8.044884    24A     -1.246497
      25A     -1.164832    26A     -1.107057    27A     -1.105112
      28A     -1.057851    29A     -1.037915    30A     -0.950899
      31A     -0.882575    32A     -0.824672    33A     -0.787692
      34A     -0.701080    35A     -0.667395    36A     -0.652418
      37A     -0.627636    38A     -0.617070    39A     -0.599917
      40A     -0.587200    41A     -0.579395    42A     -0.555481
      43A     -0.521625    44A     -0.508761    45A     -0.504552
      46A     -0.492827    47A     -0.488822    48A     -0.463902
      49A     -0.455674    50A     -0.447407    51A     -0.441876
      52A     -0.351304    53A     -0.338604

  @DF-RHF Final Energy: -1685.64568268161020

   => Energetics <=

    Nuclear Repulsion Energy =            901.3441263242392552
    One-Electron Energy =               -4114.5570096466517498
    Two-Electron Energy =                1527.5672006408021844
    Total Energy =                      -1685.6456826816101966
  Basis Set: (AUG-CC-PVTZ AUX)
    Blend: AUG-CC-PVTZ-RI
    Molecular point group: c1

    Geometry (in Angstrom), charge = 0, multiplicity = 1:

       Center              X                  Y                   Z               Mass
    ------------   -----------------  -----------------  -----------------  -----------------
         CL          -1.474960571591     0.935423070630    -1.327793906866    34.968852682000
         CL          -1.716148571591    -1.677879929370    -0.194241906866    34.968852682000
         CL          -1.422845571591     0.570682070630     1.567253093134    34.968852682000
         C            0.629900428409    -0.216831929370    -0.030126906866    12.000000000000
         C            1.445708428409     0.942052070630     0.000596093134    12.000000000000
         C            1.232329428409    -1.482824929370    -0.023613906866    12.000000000000
         C            2.835452428409     0.761158070630     0.000045093134    12.000000000000
         C           -0.885860571591    -0.108111929370    -0.001884906866    12.000000000000
         C            0.950107428409     2.369675070630    -0.012980906866    12.000000000000
         C            2.617857428409    -1.627241929370    -0.024091906866    12.000000000000
         C            3.430169428409    -0.498119929370    -0.010356906866    12.000000000000
         H            0.620199428409    -2.375175929370    -0.029795906866     1.007825032230
         H            3.466906428409     1.647176070630     0.019997093134     1.007825032230
         H            0.741618428409     2.704018070630    -1.032955906866     1.007825032230
         H            0.045223428409     2.514828070630     0.574912093134     1.007825032230
         H            1.726191428409     3.019191070630     0.400772093134     1.007825032230
         H            3.052453528409    -2.622321029370    -0.274245106866     1.007825032230
         H            4.513288428409    -0.591620929370    -0.008174906866     1.007825032230

  Basis Set: AUG-CC-PVTZ
    Blend: AUG-CC-PVTZ
  Basis Set: (AUG-CC-PVTZ AUX)
    Blend: AUG-CC-PVTZ-JKFIT
	 Reference Energy          =   -1685.6456826816101966 [Eh]
	 Singles Energy            =      -0.0000000000000000 [Eh]
	 Same-Spin Energy          =      -0.5437335746388847 [Eh]
	 Opposite-Spin Energy      =      -1.6254195301141463 [Eh]
	 Correlation Energy        =      -2.1691531047530308 [Eh]
	 Total Energy              =   -1687.8148357863631190 [Eh]

	 ================> DF-SCS-MP2 Energies <==================
	-----------------------------------------------------------
	 SCS Same-Spin Scale       =       0.3333333333333333 [-]
	 SCS Opposite-Spin Scale   =       1.2000000000000000 [-]
	 SCS Same-Spin Energy      =      -0.1812445248796282 [Eh]
	 SCS Opposite-Spin Energy  =      -1.9505034361369755 [Eh]
	 SCS Correlation Energy    =      -2.1317479610166039 [Eh]
	 SCS Total Energy          =   -1687.7774306426267685 [Eh]
	-----------------------------------------------------------

  Dipole Moment: [D]
     X:     2.1084      Y:     0.2778      Z:    -0.2077     Total:     2.1367

*** Psi4 exiting successfully. Buy a developer a beer!
