                               Psi4 1.3.2 release

  ==> Input File <==

--------------------------------------------------------------------------
#psi4
#
memory 32 gb

molecule  {
0 1
 Cl       -1.5623360     0.9145460    -1.3283100
 Cl       -1.8035240    -1.6987570    -0.1947580
 Cl       -1.5102210     0.5498050     1.5667370
  C        0.5425250    -0.2377090    -0.0306430
  C        1.3583330     0.9211750     0.0000800
  C        1.1449540    -1.5037020    -0.0241300
  C        2.7480770     0.7402810    -0.0004710
  C       -0.9737721    -0.1274443    -0.1523921
  C        0.8627320     2.3487980    -0.0134970
  C        2.5304820    -1.6481190    -0.0246080
  C        3.3427940    -0.5189970    -0.0108730
  H        0.5328240    -2.3960530    -0.0303120
  H        3.3795310     1.6262990     0.0194810
  H        0.6542430     2.6831410    -1.0334720
  H       -0.0421520     2.4939510     0.5743960
  H        1.6388160     2.9983140     0.4002560
  H        2.9642350    -2.6446820    -0.0247670
  H        4.4259130    -0.6124980    -0.0086910
units angstrom
no_reorient  #important for SAPT in psi4, default
symmetry c1  #important for SAPT in psi4, default
}

set PROPERTIES_ORIGIN ["COM"]
properties('MP2/aug-cc-pvtz', properties = ['dipole'])
--------------------------------------------------------------------------

    Molecular point group: c1
  Charge       = 0
  Multiplicity = 1
  Basis Set: AUG-CC-PVTZ
    Blend: AUG-CC-PVTZ
  Basis Set: (AUG-CC-PVTZ AUX)
    Blend: AUG-CC-PVTZ-JKFIT

    Orbital Energies [Eh]
    ---------------------

    Doubly Occupied:

       1A   -104.871847     2A   -104.860726     3A   -104.834126
       4A    -11.445064     5A    -11.275995     6A    -11.267803
       7A    -11.253669     8A    -11.251565     9A    -11.245236
      10A    -11.244556    11A    -11.230101    12A    -10.598086
      13A    -10.585323    14A    -10.558018    15A     -8.065045
      16A     -8.062663    17A     -8.062593    18A     -8.052029
      19A     -8.049962    20A     -8.049958    21A     -8.024504
      22A     -8.022699    23A     -8.022672    24A     -1.255939
      25A     -1.167021    26A     -1.125208    27A     -1.081711
      28A     -1.057651    29A     -1.037459    30A     -0.951609
      31A     -0.882535    32A     -0.825355    33A     -0.790813
      34A     -0.705692    35A     -0.669533    36A     -0.656167
      37A     -0.626884    38A     -0.619061    39A     -0.603843
      40A     -0.587399    41A     -0.582427    42A     -0.555216
      43A     -0.522954    44A     -0.506885    45A     -0.504892
      46A     -0.501430    47A     -0.485644    48A     -0.462519
      49A     -0.454250    50A     -0.442661    51A     -0.432956
      52A     -0.350030    53A     -0.338925

  @DF-RHF Final Energy: -1685.63888011388690

   => Energetics <=

    Nuclear Repulsion Energy =            901.4132358965258618
    One-Electron Energy =               -4114.6664173833041787
    Two-Electron Energy =                1527.6143013728915321
    Total Energy =                      -1685.6388801138868985
  Basis Set: (AUG-CC-PVTZ AUX)
    Blend: AUG-CC-PVTZ-RI
    Molecular point group: c1

    Geometry (in Angstrom), charge = 0, multiplicity = 1:

       Center              X                  Y                   Z               Mass
    ------------   -----------------  -----------------  -----------------  -----------------
         CL          -1.474925551151     0.935341128049    -1.320350490521    34.968852682000
         CL          -1.716113551151    -1.677961871951    -0.186798490521    34.968852682000
         CL          -1.422810551151     0.570600128049     1.574696509479    34.968852682000
         C            0.629935448849    -0.216913871951    -0.022683490521    12.000000000000
         C            1.445743448849     0.941970128049     0.008039509479    12.000000000000
         C            1.232364448849    -1.482906871951    -0.016170490521    12.000000000000
         C            2.835487448849     0.761076128049     0.007488509479    12.000000000000
         C           -0.886361651151    -0.106649171951    -0.144432590521    12.000000000000
         C            0.950142448849     2.369593128049    -0.005537490521    12.000000000000
         C            2.617892448849    -1.627323871951    -0.016648490521    12.000000000000
         C            3.430204448849    -0.498201871951    -0.002913490521    12.000000000000
         H            0.620234448849    -2.375257871951    -0.022352490521     1.007825032230
         H            3.466941448849     1.647094128049     0.027440509479     1.007825032230
         H            0.741653448849     2.703936128049    -1.025512490521     1.007825032230
         H            0.045258448849     2.514746128049     0.582355509479     1.007825032230
         H            1.726226448849     3.019109128049     0.408215509479     1.007825032230
         H            3.051645448849    -2.623886871951    -0.016807490521     1.007825032230
         H            4.513323448849    -0.591702871951    -0.000731490521     1.007825032230

  Basis Set: AUG-CC-PVTZ
    Blend: AUG-CC-PVTZ
  Basis Set: (AUG-CC-PVTZ AUX)
    Blend: AUG-CC-PVTZ-JKFIT
	 Reference Energy          =   -1685.6388801138868985 [Eh]
	 Singles Energy            =      -0.0000000000000000 [Eh]
	 Same-Spin Energy          =      -0.5443558909085255 [Eh]
	 Opposite-Spin Energy      =      -1.6259314531340656 [Eh]
	 Correlation Energy        =      -2.1702873440425909 [Eh]
	 Total Energy              =   -1687.8091674579295614 [Eh]

	 ================> DF-SCS-MP2 Energies <==================
	-----------------------------------------------------------
	 SCS Same-Spin Scale       =       0.3333333333333333 [-]
	 SCS Opposite-Spin Scale   =       1.2000000000000000 [-]
	 SCS Same-Spin Energy      =      -0.1814519636361752 [Eh]
	 SCS Opposite-Spin Energy  =      -1.9511177437608787 [Eh]
	 SCS Correlation Energy    =      -2.1325697073970540 [Eh]
	 SCS Total Energy          =   -1687.7714498212840226 [Eh]
	-----------------------------------------------------------

  Dipole Moment: [D]
     X:     2.1277      Y:     0.2605      Z:    -0.8943     Total:     2.3227

*** Psi4 exiting successfully. Buy a developer a beer!
