                               Psi4 1.3.2 release

  ==> Input File <==

--------------------------------------------------------------------------
#psi4
#
memory 32 gb

molecule  {
0 1
 Cl       -1.5623360     0.9145460    -1.3283100
 Cl       -1.8035240    -1.6987570    -0.1947580
 Cl       -1.5102210     0.5498050     1.5667370
  C        0.5425250    -0.2377090    -0.0306430
  C        1.3583330     0.9211750     0.0000800
  C        1.1449540    -1.5037020    -0.0241300
  C        2.7480770     0.7402810    -0.0004710
  C       -0.9741296    -0.1264145    -0.2523861
  C        0.8627320     2.3487980    -0.0134970
  C        2.5304820    -1.6481190    -0.0246080
  C        3.3427940    -0.5189970    -0.0108730
  H        0.5328240    -2.3960530    -0.0303120
  H        3.3795310     1.6262990     0.0194810
  H        0.6542430     2.6831410    -1.0334720
  H       -0.0421520     2.4939510     0.5743960
  H        1.6388160     2.9983140     0.4002560
  H        2.9642350    -2.6446820    -0.0247670
  H        4.4259130    -0.6124980    -0.0086910
units angstrom
no_reorient  #important for SAPT in psi4, default
symmetry c1  #important for SAPT in psi4, default
}

set PROPERTIES_ORIGIN ["COM"]
properties('MP2/aug-cc-pvtz', properties = ['dipole'])
--------------------------------------------------------------------------

    Molecular point group: c1
  Charge       = 0
  Multiplicity = 1
  Basis Set: AUG-CC-PVTZ
    Blend: AUG-CC-PVTZ
  Basis Set: (AUG-CC-PVTZ AUX)
    Blend: AUG-CC-PVTZ-JKFIT

    Orbital Energies [Eh]
    ---------------------

    Doubly Occupied:

       1A   -104.883278     2A   -104.862909     3A   -104.816426
       4A    -11.449334     5A    -11.279168     6A    -11.268337
       7A    -11.254430     8A    -11.252061     9A    -11.245895
      10A    -11.245120    11A    -11.230380    12A    -10.611026
      13A    -10.587366    14A    -10.540435    15A     -8.078183
      16A     -8.075518    17A     -8.075404    18A     -8.054060
      19A     -8.051983    20A     -8.051971    21A     -8.006817
      22A     -8.005158    23A     -8.005140    24A     -1.272300
      25A     -1.170223    26A     -1.134010    27A     -1.068666
      28A     -1.053790    29A     -1.036177    30A     -0.951848
      31A     -0.882300    32A     -0.825953    33A     -0.794095
      34A     -0.709584    35A     -0.673272    36A     -0.660595
      37A     -0.630300    38A     -0.621003    39A     -0.608451
      40A     -0.587457    41A     -0.583294    42A     -0.555072
      43A     -0.526192    44A     -0.509526    45A     -0.506037
      46A     -0.501270    47A     -0.484201    48A     -0.466449
      49A     -0.446672    50A     -0.431923    51A     -0.421239
      52A     -0.348773    53A     -0.338590

  @DF-RHF Final Energy: -1685.61982574968533

   => Energetics <=

    Nuclear Repulsion Energy =            901.3527164515664936
    One-Electron Energy =               -4114.4857647006992920
    Two-Electron Energy =                1527.5132224994476928
    Total Energy =                      -1685.6198257496853330
  Basis Set: (AUG-CC-PVTZ AUX)
    Blend: AUG-CC-PVTZ-RI
    Molecular point group: c1

    Geometry (in Angstrom), charge = 0, multiplicity = 1:

       Center              X                  Y                   Z               Mass
    ------------   -----------------  -----------------  -----------------  -----------------
         CL          -1.474904922317     0.935281705464    -1.314580533283    34.968852682000
         CL          -1.716092922317    -1.678021294536    -0.181028533283    34.968852682000
         CL          -1.422789922317     0.570540705464     1.580466466717    34.968852682000
         C            0.629956077683    -0.216973294536    -0.016913533283    12.000000000000
         C            1.445764077683     0.941910705464     0.013809466717    12.000000000000
         C            1.232385077683    -1.482966294536    -0.010400533283    12.000000000000
         C            2.835508077683     0.761016705464     0.013258466717    12.000000000000
         C           -0.886698522317    -0.105678794536    -0.238656633283    12.000000000000
         C            0.950163077683     2.369533705464     0.000232466717    12.000000000000
         C            2.617913077683    -1.627383294536    -0.010878533283    12.000000000000
         C            3.430225077683    -0.498261294536     0.002856466717    12.000000000000
         H            0.620255077683    -2.375317294536    -0.016582533283     1.007825032230
         H            3.466962077683     1.647034705464     0.033210466717     1.007825032230
         H            0.741674077683     2.703876705464    -1.019742533283     1.007825032230
         H            0.045279077683     2.514686705464     0.588125466717     1.007825032230
         H            1.726247077683     3.019049705464     0.413985466717     1.007825032230
         H            3.051666077683    -2.623946294536    -0.011037533283     1.007825032230
         H            4.513344077683    -0.591762294536     0.005038466717     1.007825032230

  Basis Set: AUG-CC-PVTZ
    Blend: AUG-CC-PVTZ
  Basis Set: (AUG-CC-PVTZ AUX)
    Blend: AUG-CC-PVTZ-JKFIT
	 Reference Energy          =   -1685.6198257496853330 [Eh]
	 Singles Energy            =      -0.0000000000000000 [Eh]
	 Same-Spin Energy          =      -0.5455929976761711 [Eh]
	 Opposite-Spin Energy      =      -1.6273696643487368 [Eh]
	 Correlation Energy        =      -2.1729626620249078 [Eh]
	 Total Energy              =   -1687.7927884117102622 [Eh]

	 ================> DF-SCS-MP2 Energies <==================
	-----------------------------------------------------------
	 SCS Same-Spin Scale       =       0.3333333333333333 [-]
	 SCS Opposite-Spin Scale   =       1.2000000000000000 [-]
	 SCS Same-Spin Energy      =      -0.1818643325587237 [Eh]
	 SCS Opposite-Spin Energy  =      -1.9528435972184841 [Eh]
	 SCS Correlation Energy    =      -2.1347079297772078 [Eh]
	 SCS Total Energy          =   -1687.7545336794626110 [Eh]
	-----------------------------------------------------------

  Dipole Moment: [D]
     X:     2.1325      Y:     0.3063      Z:    -1.4933     Total:     2.6213

*** Psi4 exiting successfully. Buy a developer a beer!
