                               Psi4 1.3.2 release

  ==> Input File <==

--------------------------------------------------------------------------
#psi4
#
memory 32 gb

molecule  {
0 1
 Cl       -1.5623360     0.9145460    -1.3283100
 Cl       -1.8035240    -1.6987570    -0.1947580
 Cl       -1.5102210     0.5498050     1.5667370
  C        0.5425250    -0.2377090    -0.0306430
  C        1.3583330     0.9211750     0.0000800
  C        1.1449540    -1.5037020    -0.0241300
  C        2.7480770     0.7402810    -0.0004710
  C       -0.9739509    -0.1269294    -0.2023891
  C        0.8627320     2.3487980    -0.0134970
  C        2.5304820    -1.6481190    -0.0246080
  C        3.3427940    -0.5189970    -0.0108730
  H        0.5328240    -2.3960530    -0.0303120
  H        3.3795310     1.6262990     0.0194810
  H        0.6542430     2.6831410    -1.0334720
  H       -0.0421520     2.4939510     0.5743960
  H        1.6388160     2.9983140     0.4002560
  H        2.9642350    -2.6446820    -0.0247670
  H        4.4259130    -0.6124980    -0.0086910
units angstrom
no_reorient  #important for SAPT in psi4, default
symmetry c1  #important for SAPT in psi4, default
}

set PROPERTIES_ORIGIN ["COM"]
properties('MP2/aug-cc-pvtz', properties = ['dipole'])
--------------------------------------------------------------------------

    Molecular point group: c1
  Charge       = 0
  Multiplicity = 1
  Basis Set: AUG-CC-PVTZ
    Blend: AUG-CC-PVTZ
  Basis Set: (AUG-CC-PVTZ AUX)
    Blend: AUG-CC-PVTZ-JKFIT

    Orbital Energies [Eh]
    ---------------------

    Doubly Occupied:

       1A   -104.877418     2A   -104.861782     3A   -104.825658
       4A    -11.446978     5A    -11.277405     6A    -11.268043
       7A    -11.254012     8A    -11.251785     9A    -11.245532
      10A    -11.244808    11A    -11.230224    12A    -10.604364
      13A    -10.586324    14A    -10.549561    15A     -8.071419
      16A     -8.068903    17A     -8.068815    18A     -8.053025
      19A     -8.050952    20A     -8.050945    21A     -8.015991
      22A     -8.014259    23A     -8.014238    24A     -1.263118
      25A     -1.168531    26A     -1.130053    27A     -1.074300
      28A     -1.056505    29A     -1.037055    30A     -0.951723
      31A     -0.882436    32A     -0.825623    33A     -0.792240
      34A     -0.707424    35A     -0.671161    36A     -0.658339
      37A     -0.628213    38A     -0.619966    39A     -0.605909
      40A     -0.587406    41A     -0.582834    42A     -0.555152
      43A     -0.524462    44A     -0.507791    45A     -0.505269
      46A     -0.501962    47A     -0.484870    48A     -0.464069
      49A     -0.451237    50A     -0.437815    51A     -0.427504
      52A     -0.349445    53A     -0.338822

  @DF-RHF Final Energy: -1685.63050122656819

   => Energetics <=

    Nuclear Repulsion Energy =            901.3875956120191404
    One-Electron Energy =               -4114.5888478039569236
    Two-Electron Energy =                1527.5707509653695979
    Total Energy =                      -1685.6305012265681853
  Basis Set: (AUG-CC-PVTZ AUX)
    Blend: AUG-CC-PVTZ-RI
    Molecular point group: c1

    Geometry (in Angstrom), charge = 0, multiplicity = 1:

       Center              X                  Y                   Z               Mass
    ------------   -----------------  -----------------  -----------------  -----------------
         CL          -1.474915233849     0.935311416757    -1.317465511902    34.968852682000
         CL          -1.716103233849    -1.677991583243    -0.183913511902    34.968852682000
         CL          -1.422800233849     0.570570416757     1.577581488098    34.968852682000
         C            0.629945766151    -0.216943583243    -0.019798511902    12.000000000000
         C            1.445753766151     0.941940416757     0.010924488098    12.000000000000
         C            1.232374766151    -1.482936583243    -0.013285511902    12.000000000000
         C            2.835497766151     0.761046416757     0.010373488098    12.000000000000
         C           -0.886530133849    -0.106163983243    -0.191544611902    12.000000000000
         C            0.950152766151     2.369563416757    -0.002652511902    12.000000000000
         C            2.617902766151    -1.627353583243    -0.013763511902    12.000000000000
         C            3.430214766151    -0.498231583243    -0.000028511902    12.000000000000
         H            0.620244766151    -2.375287583243    -0.019467511902     1.007825032230
         H            3.466951766151     1.647064416757     0.030325488098     1.007825032230
         H            0.741663766151     2.703906416757    -1.022627511902     1.007825032230
         H            0.045268766151     2.514716416757     0.585240488098     1.007825032230
         H            1.726236766151     3.019079416757     0.411100488098     1.007825032230
         H            3.051655766151    -2.623916583243    -0.013922511902     1.007825032230
         H            4.513333766151    -0.591732583243     0.002153488098     1.007825032230

  Basis Set: AUG-CC-PVTZ
    Blend: AUG-CC-PVTZ
  Basis Set: (AUG-CC-PVTZ AUX)
    Blend: AUG-CC-PVTZ-JKFIT
	 Reference Energy          =   -1685.6305012265681853 [Eh]
	 Singles Energy            =      -0.0000000000000000 [Eh]
	 Same-Spin Energy          =      -0.5449176009901551 [Eh]
	 Opposite-Spin Energy      =      -1.6265927437423318 [Eh]
	 Correlation Energy        =      -2.1715103447324866 [Eh]
	 Total Energy              =   -1687.8020115713006817 [Eh]

	 ================> DF-SCS-MP2 Energies <==================
	-----------------------------------------------------------
	 SCS Same-Spin Scale       =       0.3333333333333333 [-]
	 SCS Opposite-Spin Scale   =       1.2000000000000000 [-]
	 SCS Same-Spin Energy      =      -0.1816392003300517 [Eh]
	 SCS Opposite-Spin Energy  =      -1.9519112924907980 [Eh]
	 SCS Correlation Energy    =      -2.1335504928208495 [Eh]
	 SCS Total Energy          =   -1687.7640517193890446 [Eh]
	-----------------------------------------------------------

  Dipole Moment: [D]
     X:     2.1297      Y:     0.2804      Z:    -1.1884     Total:     2.4549

*** Psi4 exiting successfully. Buy a developer a beer!
