                               Psi4 1.3.2 release

  ==> Input File <==

--------------------------------------------------------------------------
#psi4
#
memory 32 gb

molecule  {
0 1
  O        1.7627890     2.3683800    -0.1458810
  O        1.6754140    -2.4069960    -0.1279020
  C       -1.0215720    -0.0077180     0.3641480
  C       -2.5139530    -0.0194410     0.5634370
  C       -0.3025951    -1.1948061     0.2305298
  C       -0.3163543     1.1928857     0.2310049
  C       -3.2735700    -0.0197480    -0.7643280
  C        1.0346870     1.2106680    -0.0181020
  C        1.0480560    -1.1910380    -0.0190010
  C        1.7368580     0.0147850    -0.1457440
  H       -2.7927850    -0.9030380     1.1483340
  H       -2.8082890     0.8538600     1.1573130
  H       -0.8312370    -2.1635460     0.3309200
  H       -0.8789600     2.1456520     0.3351900
  H       -3.0230990     0.8672620    -1.3527740
  H       -4.3574070    -0.0294260    -0.6053230
  H       -3.0076490    -0.8981260    -1.3586750
  H        2.8074370     0.0467670    -0.3362510
  H        1.1590650     3.1223080    -0.0299710
  H        2.6215300    -2.2543830    -0.2976190
units angstrom
no_reorient  #important for SAPT in psi4, default
symmetry c1  #important for SAPT in psi4, default
}

set PROPERTIES_ORIGIN ["COM"]
properties('MP2/aug-cc-pvtz', properties = ['dipole'])
--------------------------------------------------------------------------

    Molecular point group: c1
  Charge       = 0
  Multiplicity = 1
  Basis Set: AUG-CC-PVTZ
    Blend: AUG-CC-PVTZ
  Basis Set: (AUG-CC-PVTZ AUX)
    Blend: AUG-CC-PVTZ-JKFIT

    Orbital Energies [Eh]
    ---------------------

    Doubly Occupied:

       1A    -20.594724     2A    -20.592251     3A    -11.306877
       4A    -11.305192     5A    -11.251753     6A    -11.233932
       7A    -11.223610     8A    -11.223017     9A    -11.220620
      10A    -11.216012    11A     -1.404691    12A     -1.401071
      13A     -1.153962    14A     -1.064860    15A     -1.005226
      16A     -0.988253    17A     -0.878584    18A     -0.833894
      19A     -0.810401    20A     -0.741158    21A     -0.686321
      22A     -0.676030    23A     -0.662577    24A     -0.613135
      25A     -0.602661    26A     -0.595724    27A     -0.586265
      28A     -0.576399    29A     -0.551877    30A     -0.549337
      31A     -0.523477    32A     -0.514410    33A     -0.488689
      34A     -0.486281    35A     -0.456210    36A     -0.324407
      37A     -0.315113

  @DF-RHF Final Energy:  -458.65853244746012

   => Energetics <=

    Nuclear Repulsion Energy =            508.2016839845370555
    One-Electron Energy =               -1632.4024335115163922
    Two-Electron Energy =                 665.5422170795192187
    Total Energy =                       -458.6585324474600611
  Basis Set: (AUG-CC-PVTZ AUX)
    Blend: AUG-CC-PVTZ-RI
    Molecular point group: c1

    Geometry (in Angstrom), charge = 0, multiplicity = 1:

       Center              X                  Y                   Z               Mass
    ------------   -----------------  -----------------  -----------------  -----------------
         O            1.759210318996     2.368359122910    -0.145210681123    15.994914619570
         O            1.671835318996    -2.407016877090    -0.127231681123    15.994914619570
         C           -1.025150681004    -0.007738877090     0.364818318877    12.000000000000
         C           -2.517531681004    -0.019461877090     0.564107318877    12.000000000000
         C           -0.306173781004    -1.194826977090     0.231200118877    12.000000000000
         C           -0.319932981004     1.192864822910     0.231675218877    12.000000000000
         C           -3.277148681004    -0.019768877090    -0.763657681123    12.000000000000
         C            1.031108318996     1.210647122910    -0.017431681123    12.000000000000
         C            1.044477318996    -1.191058877090    -0.018330681123    12.000000000000
         C            1.733279318996     0.014764122910    -0.145073681123    12.000000000000
         H           -2.796363681004    -0.903058877090     1.149004318877     1.007825032230
         H           -2.811867681004     0.853839122910     1.157983318877     1.007825032230
         H           -0.834815681004    -2.163566877090     0.331590318877     1.007825032230
         H           -0.882538681004     2.145631122910     0.335860318877     1.007825032230
         H           -3.026677681004     0.867241122910    -1.352103681123     1.007825032230
         H           -4.360985681004    -0.029446877090    -0.604652681123     1.007825032230
         H           -3.011227681004    -0.898146877090    -1.358004681123     1.007825032230
         H            2.803858318996     0.046746122910    -0.335580681123     1.007825032230
         H            1.155486318996     3.122287122910    -0.029300681123     1.007825032230
         H            2.617951318996    -2.254403877090    -0.296948681123     1.007825032230

  Basis Set: AUG-CC-PVTZ
    Blend: AUG-CC-PVTZ
  Basis Set: (AUG-CC-PVTZ AUX)
    Blend: AUG-CC-PVTZ-JKFIT
	 Reference Energy          =    -458.6585324474601180 [Eh]
	 Singles Energy            =      -0.0000000000000000 [Eh]
	 Same-Spin Energy          =      -0.4819673126274862 [Eh]
	 Opposite-Spin Energy      =      -1.5053220653331421 [Eh]
	 Correlation Energy        =      -1.9872893779606282 [Eh]
	 Total Energy              =    -460.6458218254207395 [Eh]

	 ================> DF-SCS-MP2 Energies <==================
	-----------------------------------------------------------
	 SCS Same-Spin Scale       =       0.3333333333333333 [-]
	 SCS Opposite-Spin Scale   =       1.2000000000000000 [-]
	 SCS Same-Spin Energy      =      -0.1606557708758287 [Eh]
	 SCS Opposite-Spin Energy  =      -1.8063864783997703 [Eh]
	 SCS Correlation Energy    =      -1.9670422492755990 [Eh]
	 SCS Total Energy          =    -460.6255746967357254 [Eh]
	-----------------------------------------------------------

  Dipole Moment: [D]
     X:    -0.5635      Y:     1.2190      Z:     0.0148     Total:     1.3430

*** Psi4 exiting successfully. Buy a developer a beer!
