                               Psi4 1.3.2 release

  ==> Input File <==

--------------------------------------------------------------------------
#psi4
#
memory 32 gb

molecule  {
0 1
  O        1.7528324     2.3747865    -0.1440086
  O        1.6754140    -2.4069960    -0.1279020
  C       -1.0215720    -0.0077180     0.3641480
  C       -2.5139530    -0.0194410     0.5634370
  C       -0.3230660    -1.2073880     0.2343750
  C       -0.3370412     1.2174005     0.2349372
  C       -3.2735700    -0.0197480    -0.7643280
  C        1.0346870     1.2106680    -0.0181020
  C        1.0480560    -1.1910380    -0.0190010
  C        1.7368580     0.0147850    -0.1457440
  H       -2.7927850    -0.9030380     1.1483340
  H       -2.8082890     0.8538600     1.1573130
  H       -0.8312370    -2.1635460     0.3309200
  H       -0.8789600     2.1456520     0.3351900
  H       -3.0230990     0.8672620    -1.3527740
  H       -4.3574070    -0.0294260    -0.6053230
  H       -3.0076490    -0.8981260    -1.3586750
  H        2.8074370     0.0467670    -0.3362510
  H        1.1590650     3.1223080    -0.0299710
  H        2.6215300    -2.2543830    -0.2976190
units angstrom
no_reorient  #important for SAPT in psi4, default
symmetry c1  #important for SAPT in psi4, default
}

set PROPERTIES_ORIGIN ["COM"]
properties('MP2/aug-cc-pvtz', properties = ['dipole'])
--------------------------------------------------------------------------

    Molecular point group: c1
  Charge       = 0
  Multiplicity = 1
  Basis Set: AUG-CC-PVTZ
    Blend: AUG-CC-PVTZ
  Basis Set: (AUG-CC-PVTZ AUX)
    Blend: AUG-CC-PVTZ-JKFIT

    Orbital Energies [Eh]
    ---------------------

    Doubly Occupied:

       1A    -20.593758     2A    -20.593590     3A    -11.310754
       4A    -11.309417     5A    -11.252622     6A    -11.232040
       7A    -11.224312     8A    -11.222296     9A    -11.219741
      10A    -11.216227    11A     -1.406674    12A     -1.402438
      13A     -1.149377    14A     -1.064015    15A     -1.001861
      16A     -0.987554    17A     -0.876857    18A     -0.837978
      19A     -0.808297    20A     -0.739315    21A     -0.688579
      22A     -0.676814    23A     -0.667433    24A     -0.611526
      25A     -0.602337    26A     -0.595455    27A     -0.587446
      28A     -0.576544    29A     -0.552877    30A     -0.548807
      31A     -0.525314    32A     -0.521130    33A     -0.487766
      34A     -0.482060    35A     -0.453263    36A     -0.325433
      37A     -0.311515

  @DF-RHF Final Energy:  -458.66073100682326

   => Energetics <=

    Nuclear Repulsion Energy =            507.3733590069329580
    One-Electron Energy =               -1630.7413393404187900
    Two-Electron Energy =                 664.7072493266625770
    Total Energy =                       -458.6607310068231982
  Basis Set: (AUG-CC-PVTZ AUX)
    Blend: AUG-CC-PVTZ-RI
    Molecular point group: c1

    Geometry (in Angstrom), charge = 0, multiplicity = 1:

       Center              X                  Y                   Z               Mass
    ------------   -----------------  -----------------  -----------------  -----------------
         O            1.753984345865     2.372986310695    -0.144231165840    15.994914619570
         O            1.676565945865    -2.408796189305    -0.128124565840    15.994914619570
         C           -1.020420054135    -0.009518189305     0.363925434160    12.000000000000
         C           -2.512801054135    -0.021241189305     0.563214434160    12.000000000000
         C           -0.321914054135    -1.209188189305     0.234152434160    12.000000000000
         C           -0.335889254135     1.215600310695     0.234714634160    12.000000000000
         C           -3.272418054135    -0.021548189305    -0.764550565840    12.000000000000
         C            1.035838945865     1.208867810695    -0.018324565840    12.000000000000
         C            1.049207945865    -1.192838189305    -0.019223565840    12.000000000000
         C            1.738009945865     0.012984810695    -0.145966565840    12.000000000000
         H           -2.791633054135    -0.904838189305     1.148111434160     1.007825032230
         H           -2.807137054135     0.852059810695     1.157090434160     1.007825032230
         H           -0.830085054135    -2.165346189305     0.330697434160     1.007825032230
         H           -0.877808054135     2.143851810695     0.334967434160     1.007825032230
         H           -3.021947054135     0.865461810695    -1.352996565840     1.007825032230
         H           -4.356255054135    -0.031226189305    -0.605545565840     1.007825032230
         H           -3.006497054135    -0.899926189305    -1.358897565840     1.007825032230
         H            2.808588945865     0.044966810695    -0.336473565840     1.007825032230
         H            1.160216945865     3.120507810695    -0.030193565840     1.007825032230
         H            2.622681945865    -2.256183189305    -0.297841565840     1.007825032230

  Basis Set: AUG-CC-PVTZ
    Blend: AUG-CC-PVTZ
  Basis Set: (AUG-CC-PVTZ AUX)
    Blend: AUG-CC-PVTZ-JKFIT
	 Reference Energy          =    -458.6607310068232550 [Eh]
	 Singles Energy            =      -0.0000000000000000 [Eh]
	 Same-Spin Energy          =      -0.4814820509465555 [Eh]
	 Opposite-Spin Energy      =      -1.5047370845890631 [Eh]
	 Correlation Energy        =      -1.9862191355356185 [Eh]
	 Total Energy              =    -460.6469501423588895 [Eh]

	 ================> DF-SCS-MP2 Energies <==================
	-----------------------------------------------------------
	 SCS Same-Spin Scale       =       0.3333333333333333 [-]
	 SCS Opposite-Spin Scale   =       1.2000000000000000 [-]
	 SCS Same-Spin Energy      =      -0.1604940169821852 [Eh]
	 SCS Opposite-Spin Energy  =      -1.8056845015068756 [Eh]
	 SCS Correlation Energy    =      -1.9661785184890608 [Eh]
	 SCS Total Energy          =    -460.6269095253123282 [Eh]
	-----------------------------------------------------------

  Dipole Moment: [D]
     X:    -0.4926      Y:     1.1976      Z:     0.0087     Total:     1.2950

*** Psi4 exiting successfully. Buy a developer a beer!
