                               Psi4 1.4a3.dev225

  ==> Input File <==

--------------------------------------------------------------------------
#psi4
#
memory 32 gb

molecule  {
0 1
  O       -1.8116000     2.3801270     0.1363720
  O       -1.7799440    -2.3994320     0.1189850
  C        0.9489570    -0.0306590    -0.3689570
  C        2.4429910    -0.0568610    -0.5708560
  C        0.2354480    -1.2220220    -0.2373930
  C        0.2798030     1.1938580    -0.2383990
  C        3.1984060    -0.0265600     0.7613490
  C       -1.0921630     1.2139390     0.0079710
  C       -1.1396310    -1.1871160     0.0102260
  C       -1.8132500     0.0254130     0.1385790
  H        2.7180680    -0.9584190    -1.1301260
  H        2.7446220     0.7994920    -1.1857830
  H        0.7348561    -2.2049777    -0.3387794
  H        0.8309290     2.1284970    -0.3452230
  H        2.9508560     0.8787730     1.3230630
  H        4.2811760    -0.0477390     0.6027570
  H        2.9230980    -0.8883860     1.3756490
  H       -2.8837580     0.0741080     0.3259950
  H       -1.1979550     3.1274200     0.0245130
  H       -2.7238770    -2.2320380     0.2881370
units angstrom
no_reorient  #important for SAPT in psi4, default
symmetry c1  #important for SAPT in psi4, default
}

set PROPERTIES_ORIGIN ["COM"]
properties('MP2/aug-cc-pvtz', properties = ['dipole'])
--------------------------------------------------------------------------

    Molecular point group: c1
  Charge       = 0
  Multiplicity = 1
  Basis Set: AUG-CC-PVTZ
    Blend: AUG-CC-PVTZ
  Basis Set: (AUG-CC-PVTZ AUX)
    Blend: AUG-CC-PVTZ-JKFIT

    Orbital Energies [Eh]
    ---------------------

    Doubly Occupied:

       1A    -20.595749     2A    -20.593393     3A    -11.311227
       4A    -11.309472     5A    -11.252535     6A    -11.232614
       7A    -11.224722     8A    -11.223539     9A    -11.219868
      10A    -11.219170    11A     -1.404318    12A     -1.400860
      13A     -1.149755    14A     -1.063597    15A     -1.000513
      16A     -0.987737    17A     -0.876332    18A     -0.835472
      19A     -0.807600    20A     -0.739055    21A     -0.686258
      22A     -0.673737    23A     -0.664872    24A     -0.611735
      25A     -0.602148    26A     -0.595364    27A     -0.586002
      28A     -0.575828    29A     -0.553428    30A     -0.548410
      31A     -0.523242    32A     -0.520430    33A     -0.488346
      34A     -0.482601    35A     -0.453836    36A     -0.326078
      37A     -0.311640

  @DF-RHF Final Energy:  -458.65900709748854

   => Energetics <=

    Nuclear Repulsion Energy =            506.9822617808668497
    One-Electron Energy =               -1629.9795709083900874
    Two-Electron Energy =                 664.3383020300348107
    Total Energy =                       -458.6590070974884839
  Basis Set: (AUG-CC-PVTZ AUX)
    Blend: AUG-CC-PVTZ-RI
    Molecular point group: c1

    Geometry (in Angstrom), charge = 0, multiplicity = 1:

       Center              X                  Y                   Z               Mass
    ------------   -----------------  -----------------  -----------------  -----------------
         O           -1.737285326671     2.385246590948     0.143164206242    15.994914619570
         O           -1.705629326671    -2.394312409052     0.125777206242    15.994914619570
         C            1.023271673329    -0.025539409052    -0.362164793758    12.000000000000
         C            2.517305673329    -0.051741409052    -0.564063793758    12.000000000000
         C            0.309762673329    -1.216902409052    -0.230600793758    12.000000000000
         C            0.354117673329     1.198977590948    -0.231606793758    12.000000000000
         C            3.272720673329    -0.021440409052     0.768141206242    12.000000000000
         C           -1.017848326671     1.219058590948     0.014763206242    12.000000000000
         C           -1.065316326671    -1.181996409052     0.017018206242    12.000000000000
         C           -1.738935326671     0.030532590948     0.145371206242    12.000000000000
         H            2.792382673329    -0.953299409052    -1.123333793758     1.007825032230
         H            2.818936673329     0.804611590948    -1.178990793758     1.007825032230
         H            0.809170773329    -2.199858109052    -0.331987193758     1.007825032230
         H            0.905243673329     2.133616590948    -0.338430793758     1.007825032230
         H            3.025170673329     0.883892590948     1.329855206242     1.007825032230
         H            4.355490673329    -0.042619409052     0.609549206242     1.007825032230
         H            2.997412673329    -0.883266409052     1.382441206242     1.007825032230
         H           -2.809443326671     0.079227590948     0.332787206242     1.007825032230
         H           -1.123640326671     3.132539590948     0.031305206242     1.007825032230
         H           -2.649562326671    -2.226918409052     0.294929206242     1.007825032230

  Basis Set: AUG-CC-PVTZ
    Blend: AUG-CC-PVTZ
  Basis Set: (AUG-CC-PVTZ AUX)
    Blend: AUG-CC-PVTZ-JKFIT
	 Reference Energy          =    -458.6590070974885407 [Eh]
	 Singles Energy            =      -0.0000000000000000 [Eh]
	 Same-Spin Energy          =      -0.4817875892258030 [Eh]
	 Opposite-Spin Energy      =      -1.5056495241922763 [Eh]
	 Correlation Energy        =      -1.9874371134180793 [Eh]
	 Total Energy              =    -460.6464442109066226 [Eh]

	 ================> DF-SCS-MP2 Energies <==================
	-----------------------------------------------------------
	 SCS Same-Spin Scale       =       0.3333333333333333 [-]
	 SCS Opposite-Spin Scale   =       1.2000000000000000 [-]
	 SCS Same-Spin Energy      =      -0.1605958630752677 [Eh]
	 SCS Opposite-Spin Energy  =      -1.8067794290307315 [Eh]
	 SCS Correlation Energy    =      -1.9673752921059993 [Eh]
	 SCS Total Energy          =    -460.6263823895945393 [Eh]
	-----------------------------------------------------------

  Dipole Moment: [D]
     X:     0.5262      Y:     1.2262      Z:    -0.0172     Total:     1.3345

*** Psi4 exiting successfully. Buy a developer a beer!
