                               Psi4 1.3.2 release

  ==> Input File <==

--------------------------------------------------------------------------
#psi4
#
memory 32 gb

molecule  {
0 1
  O        1.7627890     2.3683800    -0.1458810
  O        1.6754140    -2.4069960    -0.1279020
  C       -1.0215720    -0.0077180     0.3641480
  C       -2.5139530    -0.0194410     0.5634370
  C       -0.3230660    -1.2073880     0.2343750
  C       -0.3370590     1.2052280     0.2348720
  C       -3.2735700    -0.0197480    -0.7643280
  C        1.0346870     1.2106680    -0.0181020
  C        1.0480560    -1.1910380    -0.0190010
  C        1.7368580     0.0147850    -0.1457440
  H       -2.8436799    -1.0643200     1.2550946
  H       -2.8082890     0.8538600     1.1573130
  H       -0.8312370    -2.1635460     0.3309200
  H       -0.8789600     2.1456520     0.3351900
  H       -3.0230990     0.8672620    -1.3527740
  H       -4.3574070    -0.0294260    -0.6053230
  H       -3.0076490    -0.8981260    -1.3586750
  H        2.8074370     0.0467670    -0.3362510
  H        1.1590650     3.1223080    -0.0299710
  H        2.6215300    -2.2543830    -0.2976190
units angstrom
no_reorient  #important for SAPT in psi4, default
symmetry c1  #important for SAPT in psi4, default
}

set PROPERTIES_ORIGIN ["COM"]
properties('MP2/aug-cc-pvtz', properties = ['dipole'])
--------------------------------------------------------------------------

    Molecular point group: c1
  Charge       = 0
  Multiplicity = 1
  Basis Set: AUG-CC-PVTZ
    Blend: AUG-CC-PVTZ
  Basis Set: (AUG-CC-PVTZ AUX)
    Blend: AUG-CC-PVTZ-JKFIT

    Orbital Energies [Eh]
    ---------------------

    Doubly Occupied:

       1A    -20.596488     2A    -20.593675     3A    -11.311482
       4A    -11.309177     5A    -11.255199     6A    -11.253424
       7A    -11.224831     8A    -11.224582     9A    -11.222105
      10A    -11.216379    11A     -1.406114    12A     -1.402288
      13A     -1.150936    14A     -1.061287    15A     -1.002152
      16A     -0.987609    17A     -0.874338    18A     -0.837509
      19A     -0.803023    20A     -0.735241    21A     -0.688444
      22A     -0.675883    23A     -0.666873    24A     -0.607628
      25A     -0.598798    26A     -0.595632    27A     -0.584489
      28A     -0.577011    29A     -0.553756    30A     -0.550913
      31A     -0.524696    32A     -0.519301    33A     -0.486404
      34A     -0.467218    35A     -0.452194    36A     -0.326630
      37A     -0.311919

  @DF-RHF Final Energy:  -458.64019855271323

   => Energetics <=

    Nuclear Repulsion Energy =            506.6447200788020382
    One-Electron Energy =               -1629.2585841763097960
    Two-Electron Energy =                 663.9736655447945850
    Total Energy =                       -458.6401985527131728
  Basis Set: (AUG-CC-PVTZ AUX)
    Blend: AUG-CC-PVTZ-RI
    Molecular point group: c1

    Geometry (in Angstrom), charge = 0, multiplicity = 1:

       Center              X                  Y                   Z               Mass
    ------------   -----------------  -----------------  -----------------  -----------------
         O            1.763160546710     2.369557221974    -0.146660281971    15.994914619570
         O            1.675785546710    -2.405818778026    -0.128681281971    15.994914619570
         C           -1.021200453290    -0.006540778026     0.363368718029    12.000000000000
         C           -2.513581453290    -0.018263778026     0.562657718029    12.000000000000
         C           -0.322694453290    -1.206210778026     0.233595718029    12.000000000000
         C           -0.336687453290     1.206405221974     0.234092718029    12.000000000000
         C           -3.273198453290    -0.018570778026    -0.765107281971    12.000000000000
         C            1.035058546710     1.211845221974    -0.018881281971    12.000000000000
         C            1.048427546710    -1.189860778026    -0.019780281971    12.000000000000
         C            1.737229546710     0.015962221974    -0.146523281971    12.000000000000
         H           -2.843308353290    -1.063142778026     1.254315318029     1.007825032230
         H           -2.807917453290     0.855037221974     1.156533718029     1.007825032230
         H           -0.830865453290    -2.162368778026     0.330140718029     1.007825032230
         H           -0.878588453290     2.146829221974     0.334410718029     1.007825032230
         H           -3.022727453290     0.868439221974    -1.353553281971     1.007825032230
         H           -4.357035453290    -0.028248778026    -0.606102281971     1.007825032230
         H           -3.007277453290    -0.896948778026    -1.359454281971     1.007825032230
         H            2.807808546710     0.047944221974    -0.337030281971     1.007825032230
         H            1.159436546710     3.123485221974    -0.030750281971     1.007825032230
         H            2.621901546710    -2.253205778026    -0.298398281971     1.007825032230

  Basis Set: AUG-CC-PVTZ
    Blend: AUG-CC-PVTZ
  Basis Set: (AUG-CC-PVTZ AUX)
    Blend: AUG-CC-PVTZ-JKFIT
	 Reference Energy          =    -458.6401985527132297 [Eh]
	 Singles Energy            =      -0.0000000000000000 [Eh]
	 Same-Spin Energy          =      -0.4819099740612414 [Eh]
	 Opposite-Spin Energy      =      -1.5070602188871316 [Eh]
	 Correlation Energy        =      -1.9889701929483730 [Eh]
	 Total Energy              =    -460.6291687456616160 [Eh]

	 ================> DF-SCS-MP2 Energies <==================
	-----------------------------------------------------------
	 SCS Same-Spin Scale       =       0.3333333333333333 [-]
	 SCS Opposite-Spin Scale   =       1.2000000000000000 [-]
	 SCS Same-Spin Energy      =      -0.1606366580204138 [Eh]
	 SCS Opposite-Spin Energy  =      -1.8084722626645577 [Eh]
	 SCS Correlation Energy    =      -1.9691089206849715 [Eh]
	 SCS Total Energy          =    -460.6093074733981894 [Eh]
	-----------------------------------------------------------

  Dipole Moment: [D]
     X:    -0.4171      Y:     1.3205      Z:    -0.1003     Total:     1.3884

*** Psi4 exiting successfully. Buy a developer a beer!
