                               Psi4 1.3.2 release

  ==> Input File <==

--------------------------------------------------------------------------
#psi4
#
memory 32 gb

molecule  {
0 1
  O        1.7627890     2.3683800    -0.1458810
  O        1.6754140    -2.4069960    -0.1279020
  C       -1.0215720    -0.0077180     0.3641480
  C       -2.5139530    -0.0194410     0.5634370
  C       -0.3231358    -1.1830510     0.2343990
  C       -0.3370590     1.2052280     0.2348720
  C       -3.2735700    -0.0197480    -0.7643280
  C        1.0346870     1.2106680    -0.0181020
  C        1.0480560    -1.1910380    -0.0190010
  C        1.7160600     0.0268244    -0.1418951
  H       -2.7927850    -0.9030380     1.1483340
  H       -2.8082890     0.8538600     1.1573130
  H       -0.8312370    -2.1635460     0.3309200
  H       -0.8789600     2.1456520     0.3351900
  H       -3.0230990     0.8672620    -1.3527740
  H       -4.3574070    -0.0294260    -0.6053230
  H       -3.0076490    -0.8981260    -1.3586750
  H        2.8074370     0.0467670    -0.3362510
  H        1.1590650     3.1223080    -0.0299710
  H        2.6215300    -2.2543830    -0.2976190
units angstrom
no_reorient  #important for SAPT in psi4, default
symmetry c1  #important for SAPT in psi4, default
}

set PROPERTIES_ORIGIN ["COM"]
properties('MP2/aug-cc-pvtz', properties = ['dipole'])
--------------------------------------------------------------------------

    Molecular point group: c1
  Charge       = 0
  Multiplicity = 1
  Basis Set: AUG-CC-PVTZ
    Blend: AUG-CC-PVTZ
  Basis Set: (AUG-CC-PVTZ AUX)
    Blend: AUG-CC-PVTZ-JKFIT

    Orbital Energies [Eh]
    ---------------------

    Doubly Occupied:

       1A    -20.595952     2A    -20.594707     3A    -11.309188
       4A    -11.306948     5A    -11.247951     6A    -11.231876
       7A    -11.224131     8A    -11.222154     9A    -11.219451
      10A    -11.216163    11A     -1.405368    12A     -1.402626
      13A     -1.154574    14A     -1.065678    15A     -1.002139
      16A     -0.988818    17A     -0.876028    18A     -0.837930
      19A     -0.809004    20A     -0.740006    21A     -0.688560
      22A     -0.675200    23A     -0.664168    24A     -0.612070
      25A     -0.602966    26A     -0.595458    27A     -0.586313
      28A     -0.577103    29A     -0.553641    30A     -0.547330
      31A     -0.524342    32A     -0.517802    33A     -0.488264
      34A     -0.480278    35A     -0.456588    36A     -0.328591
      37A     -0.311380

  @DF-RHF Final Energy:  -458.65841961378965

   => Energetics <=

    Nuclear Repulsion Energy =            508.2573266360334969
    One-Electron Energy =               -1632.5099985940419174
    Two-Electron Energy =                 665.5942523442188303
    Total Energy =                       -458.6584196137896470
  Basis Set: (AUG-CC-PVTZ AUX)
    Blend: AUG-CC-PVTZ-RI
    Molecular point group: c1

    Geometry (in Angstrom), charge = 0, multiplicity = 1:

       Center              X                  Y                   Z               Mass
    ------------   -----------------  -----------------  -----------------  -----------------
         O            1.764602737014     2.365218341918    -0.146217593079    15.994914619570
         O            1.677227737014    -2.410157658082    -0.128238593079    15.994914619570
         C           -1.019758262986    -0.010879658082     0.363811406921    12.000000000000
         C           -2.512139262986    -0.022602658082     0.563100406921    12.000000000000
         C           -0.321322062986    -1.186212658082     0.234062406921    12.000000000000
         C           -0.335245262986     1.202066341918     0.234535406921    12.000000000000
         C           -3.271756262986    -0.022909658082    -0.764664593079    12.000000000000
         C            1.036500737014     1.207506341918    -0.018438593079    12.000000000000
         C            1.049869737014    -1.194199658082    -0.019337593079    12.000000000000
         C            1.717873737014     0.023662741918    -0.142231693079    12.000000000000
         H           -2.790971262986    -0.906199658082     1.147997406921     1.007825032230
         H           -2.806475262986     0.850698341918     1.156976406921     1.007825032230
         H           -0.829423262986    -2.166707658082     0.330583406921     1.007825032230
         H           -0.877146262986     2.142490341918     0.334853406921     1.007825032230
         H           -3.021285262986     0.864100341918    -1.353110593079     1.007825032230
         H           -4.355593262986    -0.032587658082    -0.605659593079     1.007825032230
         H           -3.005835262986    -0.901287658082    -1.359011593079     1.007825032230
         H            2.809250737014     0.043605341918    -0.336587593079     1.007825032230
         H            1.160878737014     3.119146341918    -0.030307593079     1.007825032230
         H            2.623343737014    -2.257544658082    -0.297955593079     1.007825032230

  Basis Set: AUG-CC-PVTZ
    Blend: AUG-CC-PVTZ
  Basis Set: (AUG-CC-PVTZ AUX)
    Blend: AUG-CC-PVTZ-JKFIT
	 Reference Energy          =    -458.6584196137896470 [Eh]
	 Singles Energy            =      -0.0000000000000000 [Eh]
	 Same-Spin Energy          =      -0.4819759042785086 [Eh]
	 Opposite-Spin Energy      =      -1.5053730247572923 [Eh]
	 Correlation Energy        =      -1.9873489290358008 [Eh]
	 Total Energy              =    -460.6457685428254649 [Eh]

	 ================> DF-SCS-MP2 Energies <==================
	-----------------------------------------------------------
	 SCS Same-Spin Scale       =       0.3333333333333333 [-]
	 SCS Opposite-Spin Scale   =       1.2000000000000000 [-]
	 SCS Same-Spin Energy      =      -0.1606586347595028 [Eh]
	 SCS Opposite-Spin Energy  =      -1.8064476297087506 [Eh]
	 SCS Correlation Energy    =      -1.9671062644682535 [Eh]
	 SCS Total Energy          =    -460.6255258782579176 [Eh]
	-----------------------------------------------------------

  Dipole Moment: [D]
     X:    -0.4858      Y:     1.1756      Z:     0.0074     Total:     1.2720

*** Psi4 exiting successfully. Buy a developer a beer!
