                               Psi4 1.3.2 release

  ==> Input File <==

--------------------------------------------------------------------------
#psi4
#
memory 32 gb

molecule  {
0 1
  O        1.7021570     2.4054814    -0.1349855
  O        1.6754140    -2.4069960    -0.1279020
  C       -1.0215720    -0.0077180     0.3641480
  C       -2.5139530    -0.0194410     0.5634370
  C       -0.3230660    -1.2073880     0.2343750
  C       -0.3370590     1.2052280     0.2348720
  C       -3.2735700    -0.0197480    -0.7643280
  C        1.0346870     1.2106680    -0.0181020
  C        1.0480560    -1.1910380    -0.0190010
  C        1.6742698    -0.0209269    -0.1346382
  H       -2.7927850    -0.9030380     1.1483340
  H       -2.8082890     0.8538600     1.1573130
  H       -0.8312370    -2.1635460     0.3309200
  H       -0.8789600     2.1456520     0.3351900
  H       -3.0230990     0.8672620    -1.3527740
  H       -4.3574070    -0.0294260    -0.6053230
  H       -3.0076490    -0.8981260    -1.3586750
  H        2.8074370     0.0467670    -0.3362510
  H        1.1590650     3.1223080    -0.0299710
  H        2.6215300    -2.2543830    -0.2976190
units angstrom
no_reorient  #important for SAPT in psi4, default
symmetry c1  #important for SAPT in psi4, default
}

set PROPERTIES_ORIGIN ["COM"]
properties('MP2/aug-cc-pvtz', properties = ['dipole'])
--------------------------------------------------------------------------

    Molecular point group: c1
  Charge       = 0
  Multiplicity = 1
  Basis Set: AUG-CC-PVTZ
    Blend: AUG-CC-PVTZ
  Basis Set: (AUG-CC-PVTZ AUX)
    Blend: AUG-CC-PVTZ-JKFIT

    Orbital Energies [Eh]
    ---------------------

    Doubly Occupied:

       1A    -20.592804     2A    -20.590300     3A    -11.313174
       4A    -11.301149     5A    -11.248696     6A    -11.231135
       7A    -11.227060     8A    -11.221938     9A    -11.219009
      10A    -11.216267    11A     -1.418882    12A     -1.402505
      13A     -1.157168    14A     -1.068432    15A     -1.006303
      16A     -0.988571    17A     -0.873932    18A     -0.852026
      19A     -0.809661    20A     -0.744399    21A     -0.701461
      22A     -0.678590    23A     -0.662711    24A     -0.611495
      25A     -0.604112    26A     -0.595692    27A     -0.583408
      28A     -0.578539    29A     -0.555528    30A     -0.540782
      31A     -0.526801    32A     -0.517639    33A     -0.486916
      34A     -0.477283    35A     -0.458106    36A     -0.332083
      37A     -0.311018

  @DF-RHF Final Energy:  -458.65107034777407

   => Energetics <=

    Nuclear Repulsion Energy =            509.0129071055071677
    One-Electron Energy =               -1633.9168048135345543
    Two-Electron Energy =                 666.2528273602533773
    Total Energy =                       -458.6510703477740662
  Basis Set: (AUG-CC-PVTZ AUX)
    Blend: AUG-CC-PVTZ-RI
    Molecular point group: c1

    Geometry (in Angstrom), charge = 0, multiplicity = 1:

       Center              X                  Y                   Z               Mass
    ------------   -----------------  -----------------  -----------------  -----------------
         O            1.714620906611     2.404287074813    -0.137212952958    15.994914619570
         O            1.687877906611    -2.408190325187    -0.130129452958    15.994914619570
         C           -1.009108093389    -0.008912325187     0.361920547042    12.000000000000
         C           -2.501489093389    -0.020635325187     0.561209547042    12.000000000000
         C           -0.310602093389    -1.208582325187     0.232147547042    12.000000000000
         C           -0.324595093389     1.204033674813     0.232644547042    12.000000000000
         C           -3.261106093389    -0.020942325187    -0.766555452958    12.000000000000
         C            1.047150906611     1.209473674813    -0.020329452958    12.000000000000
         C            1.060519906611    -1.192232325187    -0.021228452958    12.000000000000
         C            1.686733706611    -0.022121225187    -0.136865652958    12.000000000000
         H           -2.780321093389    -0.904232325187     1.146106547042     1.007825032230
         H           -2.795825093389     0.852665674813     1.155085547042     1.007825032230
         H           -0.818773093389    -2.164740325187     0.328692547042     1.007825032230
         H           -0.866496093389     2.144457674813     0.332962547042     1.007825032230
         H           -3.010635093389     0.866067674813    -1.355001452958     1.007825032230
         H           -4.344943093389    -0.030620325187    -0.607550452958     1.007825032230
         H           -2.995185093389    -0.899320325187    -1.360902452958     1.007825032230
         H            2.819900906611     0.045572674813    -0.338478452958     1.007825032230
         H            1.171528906611     3.121113674813    -0.032198452958     1.007825032230
         H            2.633993906611    -2.255577325187    -0.299846452958     1.007825032230

  Basis Set: AUG-CC-PVTZ
    Blend: AUG-CC-PVTZ
  Basis Set: (AUG-CC-PVTZ AUX)
    Blend: AUG-CC-PVTZ-JKFIT
	 Reference Energy          =    -458.6510703477740662 [Eh]
	 Singles Energy            =      -0.0000000000000000 [Eh]
	 Same-Spin Energy          =      -0.4811547564880926 [Eh]
	 Opposite-Spin Energy      =      -1.5032946624924166 [Eh]
	 Correlation Energy        =      -1.9844494189805093 [Eh]
	 Total Energy              =    -460.6355197667545553 [Eh]

	 ================> DF-SCS-MP2 Energies <==================
	-----------------------------------------------------------
	 SCS Same-Spin Scale       =       0.3333333333333333 [-]
	 SCS Opposite-Spin Scale   =       1.2000000000000000 [-]
	 SCS Same-Spin Energy      =      -0.1603849188293642 [Eh]
	 SCS Opposite-Spin Energy  =      -1.8039535949908998 [Eh]
	 SCS Correlation Energy    =      -1.9643385138202640 [Eh]
	 SCS Total Energy          =    -460.6154088615943465 [Eh]
	-----------------------------------------------------------

  Dipole Moment: [D]
     X:    -0.4605      Y:     1.2325      Z:     0.0063     Total:     1.3158

*** Psi4 exiting successfully. Buy a developer a beer!
