                               Psi4 1.3.2 release

  ==> Input File <==

--------------------------------------------------------------------------
#psi4
#
memory 32 gb

molecule  {
0 1
  O        1.7627890     2.3683800    -0.1458810
  O        1.6754140    -2.4069960    -0.1279020
  C       -1.0215720    -0.0077180     0.3641480
  C       -2.5139530    -0.0194410     0.5634370
  C       -0.3230660    -1.2073880     0.2343750
  C       -0.3370590     1.2052280     0.2348720
  C       -3.2735700    -0.0197480    -0.7643280
  C        1.0346870     1.2106680    -0.0181020
  C        1.0480560    -1.1910380    -0.0190010
  C        1.7368580     0.0147850    -0.1457440
  H       -2.7673376    -0.8223970     1.0949537
  H       -2.8082890     0.8538600     1.1573130
  H       -0.8312370    -2.1635460     0.3309200
  H       -0.8789600     2.1456520     0.3351900
  H       -3.0230990     0.8672620    -1.3527740
  H       -4.3574070    -0.0294260    -0.6053230
  H       -3.0076490    -0.8981260    -1.3586750
  H        2.8074370     0.0467670    -0.3362510
  H        1.1590650     3.1223080    -0.0299710
  H        2.6215300    -2.2543830    -0.2976190
units angstrom
no_reorient  #important for SAPT in psi4, default
symmetry c1  #important for SAPT in psi4, default
}

set PROPERTIES_ORIGIN ["COM"]
properties('MP2/aug-cc-pvtz', properties = ['dipole'])
--------------------------------------------------------------------------

    Molecular point group: c1
  Charge       = 0
  Multiplicity = 1
  Basis Set: AUG-CC-PVTZ
    Blend: AUG-CC-PVTZ
  Basis Set: (AUG-CC-PVTZ AUX)
    Blend: AUG-CC-PVTZ-JKFIT

    Orbital Energies [Eh]
    ---------------------

    Doubly Occupied:

       1A    -20.595442     2A    -20.593231     3A    -11.310181
       4A    -11.308714     5A    -11.250627     6A    -11.223715
       7A    -11.222090     8A    -11.219722     9A    -11.218829
      10A    -11.215892    11A     -1.405163    12A     -1.401747
      13A     -1.150644    14A     -1.067302    15A     -1.001111
      16A     -0.989103    17A     -0.879577    18A     -0.836445
      19A     -0.812716    20A     -0.743100    21A     -0.687382
      22A     -0.675052    23A     -0.665923    24A     -0.618774
      25A     -0.603068    26A     -0.594977    27A     -0.588213
      28A     -0.576312    29A     -0.552592    30A     -0.548478
      31A     -0.524202    32A     -0.522454    33A     -0.493888
      34A     -0.482789    35A     -0.453914    36A     -0.325740
      37A     -0.311168

  @DF-RHF Final Energy:  -458.65444973644310

   => Energetics <=

    Nuclear Repulsion Energy =            508.0099118630810153
    One-Electron Energy =               -1631.9881746962498710
    Two-Electron Energy =                 665.3238130967257575
    Total Energy =                       -458.6544497364430981
  Basis Set: (AUG-CC-PVTZ AUX)
    Blend: AUG-CC-PVTZ-RI
    Molecular point group: c1

    Geometry (in Angstrom), charge = 0, multiplicity = 1:

       Center              X                  Y                   Z               Mass
    ------------   -----------------  -----------------  -----------------  -----------------
         O            1.762603287702     2.367791310142    -0.145491336852    15.994914619570
         O            1.675228287702    -2.407584689858    -0.127512336852    15.994914619570
         C           -1.021757712298    -0.008306689858     0.364537663148    12.000000000000
         C           -2.514138712298    -0.020029689858     0.563826663148    12.000000000000
         C           -0.323251712298    -1.207976689858     0.234764663148    12.000000000000
         C           -0.337244712298     1.204639310142     0.235261663148    12.000000000000
         C           -3.273755712298    -0.020336689858    -0.763938336852    12.000000000000
         C            1.034501287702     1.210079310142    -0.017712336852    12.000000000000
         C            1.047870287702    -1.191626689858    -0.018611336852    12.000000000000
         C            1.736672287702     0.014196310142    -0.145354336852    12.000000000000
         H           -2.767523312298    -0.822985689858     1.095343363148     1.007825032230
         H           -2.808474712298     0.853271310142     1.157702663148     1.007825032230
         H           -0.831422712298    -2.164134689858     0.331309663148     1.007825032230
         H           -0.879145712298     2.145063310142     0.335579663148     1.007825032230
         H           -3.023284712298     0.866673310142    -1.352384336852     1.007825032230
         H           -4.357592712298    -0.030014689858    -0.604933336852     1.007825032230
         H           -3.007834712298    -0.898714689858    -1.358285336852     1.007825032230
         H            2.807251287702     0.046178310142    -0.335861336852     1.007825032230
         H            1.158879287702     3.121719310142    -0.029581336852     1.007825032230
         H            2.621344287702    -2.254971689858    -0.297229336852     1.007825032230

  Basis Set: AUG-CC-PVTZ
    Blend: AUG-CC-PVTZ
  Basis Set: (AUG-CC-PVTZ AUX)
    Blend: AUG-CC-PVTZ-JKFIT
	 Reference Energy          =    -458.6544497364430981 [Eh]
	 Singles Energy            =      -0.0000000000000000 [Eh]
	 Same-Spin Energy          =      -0.4816763859636276 [Eh]
	 Opposite-Spin Energy      =      -1.5046096942110196 [Eh]
	 Correlation Energy        =      -1.9862860801746471 [Eh]
	 Total Energy              =    -460.6407358166177346 [Eh]

	 ================> DF-SCS-MP2 Energies <==================
	-----------------------------------------------------------
	 SCS Same-Spin Scale       =       0.3333333333333333 [-]
	 SCS Opposite-Spin Scale   =       1.2000000000000000 [-]
	 SCS Same-Spin Energy      =      -0.1605587953212092 [Eh]
	 SCS Opposite-Spin Energy  =      -1.8055316330532234 [Eh]
	 SCS Correlation Energy    =      -1.9660904283744327 [Eh]
	 SCS Total Energy          =    -460.6205401648175553 [Eh]
	-----------------------------------------------------------

  Dipole Moment: [D]
     X:    -0.5247      Y:     1.1897      Z:     0.0456     Total:     1.3010

*** Psi4 exiting successfully. Buy a developer a beer!
