                               Psi4 1.3.2 release

  ==> Input File <==

--------------------------------------------------------------------------
#psi4
#
memory 32 gb

molecule  {
0 1
  O        1.7627890     2.3683800    -0.1458810
  O        1.6754140    -2.4069960    -0.1279020
  C       -1.0215720    -0.0077180     0.3641480
  C       -2.5139530    -0.0194410     0.5634370
  C       -0.3230660    -1.2073880     0.2343750
  C       -0.3360233     1.1565509     0.2347562
  C       -3.2735700    -0.0197480    -0.7643280
  C        1.0346870     1.2106680    -0.0181020
  C        1.0480560    -1.1910380    -0.0190010
  C        1.6953934    -0.0093934    -0.1380601
  H       -2.7927850    -0.9030380     1.1483340
  H       -2.8082890     0.8538600     1.1573130
  H       -0.8312370    -2.1635460     0.3309200
  H       -0.8789600     2.1456520     0.3351900
  H       -3.0230990     0.8672620    -1.3527740
  H       -4.3574070    -0.0294260    -0.6053230
  H       -3.0076490    -0.8981260    -1.3586750
  H        2.8074370     0.0467670    -0.3362510
  H        1.1590650     3.1223080    -0.0299710
  H        2.6215300    -2.2543830    -0.2976190
units angstrom
no_reorient  #important for SAPT in psi4, default
symmetry c1  #important for SAPT in psi4, default
}

set PROPERTIES_ORIGIN ["COM"]
properties('MP2/aug-cc-pvtz', properties = ['dipole'])
--------------------------------------------------------------------------

    Molecular point group: c1
  Charge       = 0
  Multiplicity = 1
  Basis Set: AUG-CC-PVTZ
    Blend: AUG-CC-PVTZ
  Basis Set: (AUG-CC-PVTZ AUX)
    Blend: AUG-CC-PVTZ-JKFIT

    Orbital Energies [Eh]
    ---------------------

    Doubly Occupied:

       1A    -20.600795     2A    -20.591377     3A    -11.311232
       4A    -11.301483     5A    -11.244619     6A    -11.231815
       7A    -11.224546     8A    -11.223981     9A    -11.219262
      10A    -11.215179    11A     -1.407835    12A     -1.400815
      13A     -1.159114    14A     -1.067337    15A     -1.002619
      16A     -0.990212    17A     -0.874067    18A     -0.841401
      19A     -0.808729    20A     -0.744875    21A     -0.688857
      22A     -0.676129    23A     -0.657643    24A     -0.613216
      25A     -0.604155    26A     -0.594526    27A     -0.585682
      28A     -0.577500    29A     -0.556241    30A     -0.544055
      31A     -0.522208    32A     -0.516237    33A     -0.488234
      34A     -0.478817    35A     -0.459483    36A     -0.332861
      37A     -0.309854

  @DF-RHF Final Energy:  -458.65319146014531

   => Energetics <=

    Nuclear Repulsion Energy =            509.0194952763410470
    One-Electron Energy =               -1634.0113992334206614
    Two-Electron Energy =                 666.3387124969342494
    Total Energy =                       -458.6531914601453082
  Basis Set: (AUG-CC-PVTZ AUX)
    Blend: AUG-CC-PVTZ-RI
    Molecular point group: c1

    Geometry (in Angstrom), charge = 0, multiplicity = 1:

       Center              X                  Y                   Z               Mass
    ------------   -----------------  -----------------  -----------------  -----------------
         O            1.766302863508     2.374712084455    -0.146538756378    15.994914619570
         O            1.678927863508    -2.400663915545    -0.128559756378    15.994914619570
         C           -1.018058136492    -0.001385915545     0.363490243622    12.000000000000
         C           -2.510439136492    -0.013108915545     0.562779243622    12.000000000000
         C           -0.319552136492    -1.201055915545     0.233717243622    12.000000000000
         C           -0.332509436492     1.162882984455     0.234098443622    12.000000000000
         C           -3.270056136492    -0.013415915545    -0.764985756378    12.000000000000
         C            1.038200863508     1.217000084455    -0.018759756378    12.000000000000
         C            1.051569863508    -1.184705915545    -0.019658756378    12.000000000000
         C            1.698907263508    -0.003061315545    -0.138717856378    12.000000000000
         H           -2.789271136492    -0.896705915545     1.147676243622     1.007825032230
         H           -2.804775136492     0.860192084455     1.156655243622     1.007825032230
         H           -0.827723136492    -2.157213915545     0.330262243622     1.007825032230
         H           -0.875446136492     2.151984084455     0.334532243622     1.007825032230
         H           -3.019585136492     0.873594084455    -1.353431756378     1.007825032230
         H           -4.353893136492    -0.023093915545    -0.605980756378     1.007825032230
         H           -3.004135136492    -0.891793915545    -1.359332756378     1.007825032230
         H            2.810950863508     0.053099084455    -0.336908756378     1.007825032230
         H            1.162578863508     3.128640084455    -0.030628756378     1.007825032230
         H            2.625043863508    -2.248050915545    -0.298276756378     1.007825032230

  Basis Set: AUG-CC-PVTZ
    Blend: AUG-CC-PVTZ
  Basis Set: (AUG-CC-PVTZ AUX)
    Blend: AUG-CC-PVTZ-JKFIT
	 Reference Energy          =    -458.6531914601453082 [Eh]
	 Singles Energy            =      -0.0000000000000000 [Eh]
	 Same-Spin Energy          =      -0.4823601155943164 [Eh]
	 Opposite-Spin Energy      =      -1.5057977537624059 [Eh]
	 Correlation Energy        =      -1.9881578693567223 [Eh]
	 Total Energy              =    -460.6413493295020203 [Eh]

	 ================> DF-SCS-MP2 Energies <==================
	-----------------------------------------------------------
	 SCS Same-Spin Scale       =       0.3333333333333333 [-]
	 SCS Opposite-Spin Scale   =       1.2000000000000000 [-]
	 SCS Same-Spin Energy      =      -0.1607867051981055 [Eh]
	 SCS Opposite-Spin Energy  =      -1.8069573045148870 [Eh]
	 SCS Correlation Energy    =      -1.9677440097129923 [Eh]
	 SCS Total Energy          =    -460.6209354698582956 [Eh]
	-----------------------------------------------------------

  Dipole Moment: [D]
     X:    -0.4912      Y:     1.3152      Z:     0.0081     Total:     1.4039

*** Psi4 exiting successfully. Buy a developer a beer!
