                               Psi4 1.3.2 release

  ==> Input File <==

--------------------------------------------------------------------------
#psi4
#
memory 32 gb

molecule  {
0 1
  O        1.7627890     2.3683800    -0.1458810
  O        1.6754140    -2.4069960    -0.1279020
  C       -1.0215720    -0.0077180     0.3641480
  C       -2.5139530    -0.0194410     0.5634370
  C       -0.3230660    -1.2073880     0.2343750
  C       -0.3370590     1.2052280     0.2348720
  C       -3.2735700    -0.0197480    -0.7643280
  C        1.0346870     1.2106680    -0.0181020
  C        1.1463843    -1.1898655    -0.0371715
  C        1.7368580     0.0147850    -0.1457440
  H       -2.7927850    -0.9030380     1.1483340
  H       -2.8082890     0.8538600     1.1573130
  H       -0.8312370    -2.1635460     0.3309200
  H       -0.8789600     2.1456520     0.3351900
  H       -3.0230990     0.8672620    -1.3527740
  H       -4.3574070    -0.0294260    -0.6053230
  H       -3.0076490    -0.8981260    -1.3586750
  H        2.8074370     0.0467670    -0.3362510
  H        1.1590650     3.1223080    -0.0299710
  H        2.6215300    -2.2543830    -0.2976190
units angstrom
no_reorient  #important for SAPT in psi4, default
symmetry c1  #important for SAPT in psi4, default
}

set PROPERTIES_ORIGIN ["COM"]
properties('MP2/aug-cc-pvtz', properties = ['dipole'])
--------------------------------------------------------------------------

    Molecular point group: c1
  Charge       = 0
  Multiplicity = 1
  Basis Set: AUG-CC-PVTZ
    Blend: AUG-CC-PVTZ
  Basis Set: (AUG-CC-PVTZ AUX)
    Blend: AUG-CC-PVTZ-JKFIT

    Orbital Energies [Eh]
    ---------------------

    Doubly Occupied:

       1A    -20.606244     2A    -20.595966     3A    -11.312681
       4A    -11.311609     5A    -11.246111     6A    -11.229242
       7A    -11.220400     8A    -11.220089     9A    -11.219213
      10A    -11.217264    11A     -1.430930    12A     -1.404728
      13A     -1.144326    14A     -1.066078    15A     -0.994314
      16A     -0.982240    17A     -0.871909    18A     -0.843906
      19A     -0.810531    20A     -0.742683    21A     -0.695150
      22A     -0.671373    23A     -0.661465    24A     -0.614219
      25A     -0.608427    26A     -0.599662    27A     -0.592070
      28A     -0.583363    29A     -0.550931    30A     -0.543237
      31A     -0.527284    32A     -0.516523    33A     -0.484632
      34A     -0.471635    35A     -0.450808    36A     -0.333557
      37A     -0.298170

  @DF-RHF Final Energy:  -458.64812814558536

   => Energetics <=

    Nuclear Repulsion Energy =            507.0968737836583387
    One-Electron Energy =               -1630.1440607746906153
    Two-Electron Energy =                 664.3990588454469162
    Total Energy =                       -458.6481281455853605
  Basis Set: (AUG-CC-PVTZ AUX)
    Blend: AUG-CC-PVTZ-RI
    Molecular point group: c1

    Geometry (in Angstrom), charge = 0, multiplicity = 1:

       Center              X                  Y                   Z               Mass
    ------------   -----------------  -----------------  -----------------  -----------------
         O            1.754242969539     2.368278041171    -0.144301720845    15.994914619570
         O            1.666867969539    -2.407097958829    -0.126322720845    15.994914619570
         C           -1.030118030461    -0.007819958829     0.365727279155    12.000000000000
         C           -2.522499030461    -0.019542958829     0.565016279155    12.000000000000
         C           -0.331612030461    -1.207489958829     0.235954279155    12.000000000000
         C           -0.345605030461     1.205126041171     0.236451279155    12.000000000000
         C           -3.282116030461    -0.019849958829    -0.762748720845    12.000000000000
         C            1.026140969539     1.210566041171    -0.016522720845    12.000000000000
         C            1.137838269539    -1.189967458829    -0.035592220845    12.000000000000
         C            1.728311969539     0.014683041171    -0.144164720845    12.000000000000
         H           -2.801331030461    -0.903139958829     1.149913279155     1.007825032230
         H           -2.816835030461     0.853758041171     1.158892279155     1.007825032230
         H           -0.839783030461    -2.163647958829     0.332499279155     1.007825032230
         H           -0.887506030461     2.145550041171     0.336769279155     1.007825032230
         H           -3.031645030461     0.867160041171    -1.351194720845     1.007825032230
         H           -4.365953030461    -0.029527958829    -0.603743720845     1.007825032230
         H           -3.016195030461    -0.898227958829    -1.357095720845     1.007825032230
         H            2.798890969539     0.046665041171    -0.334671720845     1.007825032230
         H            1.150518969539     3.122206041171    -0.028391720845     1.007825032230
         H            2.612983969539    -2.254484958829    -0.296039720845     1.007825032230

  Basis Set: AUG-CC-PVTZ
    Blend: AUG-CC-PVTZ
  Basis Set: (AUG-CC-PVTZ AUX)
    Blend: AUG-CC-PVTZ-JKFIT
	 Reference Energy          =    -458.6481281455853605 [Eh]
	 Singles Energy            =      -0.0000000000000000 [Eh]
	 Same-Spin Energy          =      -0.4816402912876377 [Eh]
	 Opposite-Spin Energy      =      -1.5057989439415045 [Eh]
	 Correlation Energy        =      -1.9874392352291421 [Eh]
	 Total Energy              =    -460.6355673808145070 [Eh]

	 ================> DF-SCS-MP2 Energies <==================
	-----------------------------------------------------------
	 SCS Same-Spin Scale       =       0.3333333333333333 [-]
	 SCS Opposite-Spin Scale   =       1.2000000000000000 [-]
	 SCS Same-Spin Energy      =      -0.1605467637625459 [Eh]
	 SCS Opposite-Spin Energy  =      -1.8069587327298053 [Eh]
	 SCS Correlation Energy    =      -1.9675054964923513 [Eh]
	 SCS Total Energy          =    -460.6156336420777393 [Eh]
	-----------------------------------------------------------

  Dipole Moment: [D]
     X:    -0.2075      Y:     0.9373      Z:    -0.0344     Total:     0.9606

*** Psi4 exiting successfully. Buy a developer a beer!
