                               Psi4 1.3.2 release

  ==> Input File <==

--------------------------------------------------------------------------
#psi4
#
memory 32 gb

molecule  {
0 1
  O        1.7627890     2.3683800    -0.1458810
  O        1.6754140    -2.4069960    -0.1279020
  C       -1.0823141    -0.0465446     0.3756001
  C       -2.5139530    -0.0194410     0.5634370
  C       -0.3230660    -1.2073880     0.2343750
  C       -0.3370590     1.2052280     0.2348720
  C       -3.2735700    -0.0197480    -0.7643280
  C        1.0346870     1.2106680    -0.0181020
  C        1.0480560    -1.1910380    -0.0190010
  C        1.7368580     0.0147850    -0.1457440
  H       -2.7927850    -0.9030380     1.1483340
  H       -2.8082890     0.8538600     1.1573130
  H       -0.8797281    -2.1351644     0.3399930
  H       -0.8789600     2.1456520     0.3351900
  H       -3.0230990     0.8672620    -1.3527740
  H       -4.3574070    -0.0294260    -0.6053230
  H       -3.0076490    -0.8981260    -1.3586750
  H        2.8074370     0.0467670    -0.3362510
  H        1.1590650     3.1223080    -0.0299710
  H        2.6215300    -2.2543830    -0.2976190
units angstrom
no_reorient  #important for SAPT in psi4, default
symmetry c1  #important for SAPT in psi4, default
}

set PROPERTIES_ORIGIN ["COM"]
properties('MP2/aug-cc-pvtz', properties = ['dipole'])
--------------------------------------------------------------------------

    Molecular point group: c1
  Charge       = 0
  Multiplicity = 1
  Basis Set: AUG-CC-PVTZ
    Blend: AUG-CC-PVTZ
  Basis Set: (AUG-CC-PVTZ AUX)
    Blend: AUG-CC-PVTZ-JKFIT

    Orbital Energies [Eh]
    ---------------------

    Doubly Occupied:

       1A    -20.594263     2A    -20.593815     3A    -11.311013
       4A    -11.308999     5A    -11.255661     6A    -11.230821
       7A    -11.225931     8A    -11.224469     9A    -11.222106
      10A    -11.218004    11A     -1.404434    12A     -1.401731
      13A     -1.147160    14A     -1.072791    15A     -0.999077
      16A     -0.983519    17A     -0.884419    18A     -0.836435
      19A     -0.807235    20A     -0.735974    21A     -0.687328
      22A     -0.676578    23A     -0.664775    24A     -0.616889
      25A     -0.603130    26A     -0.597853    27A     -0.587372
      28A     -0.576191    29A     -0.552901    30A     -0.548732
      31A     -0.525925    32A     -0.515327    33A     -0.499192
      34A     -0.479561    35A     -0.448984    36A     -0.322204
      37A     -0.309532

  @DF-RHF Final Energy:  -458.65109243457084

   => Energetics <=

    Nuclear Repulsion Energy =            507.0235379270712315
    One-Electron Energy =               -1630.0086050066447569
    Two-Electron Energy =                 664.3339746450027405
    Total Energy =                       -458.6510924345708418
  Basis Set: (AUG-CC-PVTZ AUX)
    Blend: AUG-CC-PVTZ-RI
    Molecular point group: c1

    Geometry (in Angstrom), charge = 0, multiplicity = 1:

       Center              X                  Y                   Z               Mass
    ------------   -----------------  -----------------  -----------------  -----------------
         O            1.768422317515     2.371547337844    -0.146942557146    15.994914619570
         O            1.681047317515    -2.403828662156    -0.128963557146    15.994914619570
         C           -1.076680782485    -0.043377262156     0.374538542854    12.000000000000
         C           -2.508319682485    -0.016273662156     0.562375442854    12.000000000000
         C           -0.317432682485    -1.204220662156     0.233313442854    12.000000000000
         C           -0.331425682485     1.208395337844     0.233810442854    12.000000000000
         C           -3.267936682485    -0.016580662156    -0.765389557146    12.000000000000
         C            1.040320317515     1.213835337844    -0.019163557146    12.000000000000
         C            1.053689317515    -1.187870662156    -0.020062557146    12.000000000000
         C            1.742491317515     0.017952337844    -0.146805557146    12.000000000000
         H           -2.787151682485    -0.899870662156     1.147272442854     1.007825032230
         H           -2.802655682485     0.857027337844     1.156251442854     1.007825032230
         H           -0.874094782485    -2.131997062156     0.338931442854     1.007825032230
         H           -0.873326682485     2.148819337844     0.334128442854     1.007825032230
         H           -3.017465682485     0.870429337844    -1.353835557146     1.007825032230
         H           -4.351773682485    -0.026258662156    -0.606384557146     1.007825032230
         H           -3.002015682485    -0.894958662156    -1.359736557146     1.007825032230
         H            2.813070317515     0.049934337844    -0.337312557146     1.007825032230
         H            1.164698317515     3.125475337844    -0.031032557146     1.007825032230
         H            2.627163317515    -2.251215662156    -0.298680557146     1.007825032230

  Basis Set: AUG-CC-PVTZ
    Blend: AUG-CC-PVTZ
  Basis Set: (AUG-CC-PVTZ AUX)
    Blend: AUG-CC-PVTZ-JKFIT
	 Reference Energy          =    -458.6510924345708418 [Eh]
	 Singles Energy            =      -0.0000000000000000 [Eh]
	 Same-Spin Energy          =      -0.4825597274080456 [Eh]
	 Opposite-Spin Energy      =      -1.5067116661848745 [Eh]
	 Correlation Energy        =      -1.9892713935929200 [Eh]
	 Total Energy              =    -460.6403638281637427 [Eh]

	 ================> DF-SCS-MP2 Energies <==================
	-----------------------------------------------------------
	 SCS Same-Spin Scale       =       0.3333333333333333 [-]
	 SCS Opposite-Spin Scale   =       1.2000000000000000 [-]
	 SCS Same-Spin Energy      =      -0.1608532424693485 [Eh]
	 SCS Opposite-Spin Energy  =      -1.8080539994218494 [Eh]
	 SCS Correlation Energy    =      -1.9689072418911979 [Eh]
	 SCS Total Energy          =    -460.6199996764620437 [Eh]
	-----------------------------------------------------------

  Dipole Moment: [D]
     X:    -0.6048      Y:     1.1850      Z:     0.0091     Total:     1.3304

*** Psi4 exiting successfully. Buy a developer a beer!
