                               Psi4 1.3.2 release

  ==> Input File <==

--------------------------------------------------------------------------
#psi4
#
memory 32 gb

molecule  {
0 1
  O        1.7627890     2.3683800    -0.1458810
  O        1.6754140    -2.4069960    -0.1279020
  C       -1.0215720    -0.0077180     0.3641480
  C       -2.5139530    -0.0194410     0.5634370
  C       -0.3230660    -1.2073880     0.2343750
  C       -0.3370590     1.2052280     0.2348720
  C       -3.2735700    -0.0197480    -0.7643280
  C        1.0343865     1.2350111    -0.0180367
  C        1.0480560    -1.1910380    -0.0190010
  C        1.7368580     0.0147850    -0.1457440
  H       -2.7927850    -0.9030380     1.1483340
  H       -2.8082890     0.8538600     1.1573130
  H       -0.8312370    -2.1635460     0.3309200
  H       -0.8627363     2.1551269     0.3322019
  H       -3.0230990     0.8672620    -1.3527740
  H       -4.3574070    -0.0294260    -0.6053230
  H       -3.0076490    -0.8981260    -1.3586750
  H        2.8074370     0.0467670    -0.3362510
  H        1.1590650     3.1223080    -0.0299710
  H        2.6215300    -2.2543830    -0.2976190
units angstrom
no_reorient  #important for SAPT in psi4, default
symmetry c1  #important for SAPT in psi4, default
}

set PROPERTIES_ORIGIN ["COM"]
properties('MP2/aug-cc-pvtz', properties = ['dipole'])
--------------------------------------------------------------------------

    Molecular point group: c1
  Charge       = 0
  Multiplicity = 1
  Basis Set: AUG-CC-PVTZ
    Blend: AUG-CC-PVTZ
  Basis Set: (AUG-CC-PVTZ AUX)
    Blend: AUG-CC-PVTZ-JKFIT

    Orbital Energies [Eh]
    ---------------------

    Doubly Occupied:

       1A    -20.600368     2A    -20.592374     3A    -11.312161
       4A    -11.307703     5A    -11.251416     6A    -11.231806
       7A    -11.224097     8A    -11.222183     9A    -11.219352
      10A    -11.215220    11A     -1.416549    12A     -1.401411
      13A     -1.148071    14A     -1.061551    15A     -1.001066
      16A     -0.985834    17A     -0.876215    18A     -0.837870
      19A     -0.808797    20A     -0.742079    21A     -0.687226
      22A     -0.676999    23A     -0.664921    24A     -0.613180
      25A     -0.605033    26A     -0.595653    27A     -0.588802
      28A     -0.578983    29A     -0.553145    30A     -0.547158
      31A     -0.521487    32A     -0.519739    33A     -0.487493
      34A     -0.482543    35A     -0.452579    36A     -0.323455
      37A     -0.310123

  @DF-RHF Final Energy:  -458.65947919950423

   => Energetics <=

    Nuclear Repulsion Energy =            507.3495986008845193
    One-Electron Energy =               -1630.6888696682137834
    Two-Electron Energy =                 664.6797918678250880
    Total Energy =                       -458.6594791995041760
  Basis Set: (AUG-CC-PVTZ AUX)
    Blend: AUG-CC-PVTZ-RI
    Molecular point group: c1

    Geometry (in Angstrom), charge = 0, multiplicity = 1:

       Center              X                  Y                   Z               Mass
    ------------   -----------------  -----------------  -----------------  -----------------
         O            1.762696733456     2.366195038045    -0.145864849113    15.994914619570
         O            1.675321733456    -2.409180961955    -0.127885849113    15.994914619570
         C           -1.021664266544    -0.009902961955     0.364164150887    12.000000000000
         C           -2.514045266544    -0.021625961955     0.563453150887    12.000000000000
         C           -0.323158266544    -1.209572961955     0.234391150887    12.000000000000
         C           -0.337151266544     1.203043038045     0.234888150887    12.000000000000
         C           -3.273662266544    -0.021932961955    -0.764311849113    12.000000000000
         C            1.034294233456     1.232826138045    -0.018020549113    12.000000000000
         C            1.047963733456    -1.193222961955    -0.018984849113    12.000000000000
         C            1.736765733456     0.012600038045    -0.145727849113    12.000000000000
         H           -2.792877266544    -0.905222961955     1.148350150887     1.007825032230
         H           -2.808381266544     0.851675038045     1.157329150887     1.007825032230
         H           -0.831329266544    -2.165730961955     0.330936150887     1.007825032230
         H           -0.862828566544     2.152941938045     0.332218050887     1.007825032230
         H           -3.023191266544     0.865077038045    -1.352757849113     1.007825032230
         H           -4.357499266544    -0.031610961955    -0.605306849113     1.007825032230
         H           -3.007741266544    -0.900310961955    -1.358658849113     1.007825032230
         H            2.807344733456     0.044582038045    -0.336234849113     1.007825032230
         H            1.158972733456     3.120123038045    -0.029954849113     1.007825032230
         H            2.621437733456    -2.256567961955    -0.297602849113     1.007825032230

  Basis Set: AUG-CC-PVTZ
    Blend: AUG-CC-PVTZ
  Basis Set: (AUG-CC-PVTZ AUX)
    Blend: AUG-CC-PVTZ-JKFIT
	 Reference Energy          =    -458.6594791995042328 [Eh]
	 Singles Energy            =      -0.0000000000000000 [Eh]
	 Same-Spin Energy          =      -0.4817396896735521 [Eh]
	 Opposite-Spin Energy      =      -1.5051355753162077 [Eh]
	 Correlation Energy        =      -1.9868752649897599 [Eh]
	 Total Energy              =    -460.6463544644939816 [Eh]

	 ================> DF-SCS-MP2 Energies <==================
	-----------------------------------------------------------
	 SCS Same-Spin Scale       =       0.3333333333333333 [-]
	 SCS Opposite-Spin Scale   =       1.2000000000000000 [-]
	 SCS Same-Spin Energy      =      -0.1605798965578507 [Eh]
	 SCS Opposite-Spin Energy  =      -1.8061626903794492 [Eh]
	 SCS Correlation Energy    =      -1.9667425869372999 [Eh]
	 SCS Total Energy          =    -460.6262217864415334 [Eh]
	-----------------------------------------------------------

  Dipole Moment: [D]
     X:    -0.4357      Y:     1.3596      Z:     0.0009     Total:     1.4277

*** Psi4 exiting successfully. Buy a developer a beer!
