                               Psi4 1.3.2 release

  ==> Input File <==

--------------------------------------------------------------------------
#psi4
#
memory 32 gb

molecule  {
0 1
  O        1.7627890     2.3683800    -0.1458810
  O        1.6754140    -2.4069960    -0.1279020
  C       -1.0215720    -0.0077180     0.3641480
  C       -2.5139530    -0.0194410     0.5634370
  C       -0.3230660    -1.2073880     0.2343750
  C       -0.3370590     1.2052280     0.2348720
  C       -3.2735700    -0.0197480    -0.7643280
  C        1.0345890     1.2228402    -0.0180790
  C        1.0480560    -1.1910380    -0.0190010
  C        1.7368580     0.0147850    -0.1457440
  H       -2.7927850    -0.9030380     1.1483340
  H       -2.8082890     0.8538600     1.1573130
  H       -0.8312370    -2.1635460     0.3309200
  H       -0.8708685     2.1504255     0.3336997
  H       -3.0230990     0.8672620    -1.3527740
  H       -4.3574070    -0.0294260    -0.6053230
  H       -3.0076490    -0.8981260    -1.3586750
  H        2.8074370     0.0467670    -0.3362510
  H        1.1590650     3.1223080    -0.0299710
  H        2.6215300    -2.2543830    -0.2976190
units angstrom
no_reorient  #important for SAPT in psi4, default
symmetry c1  #important for SAPT in psi4, default
}

set PROPERTIES_ORIGIN ["COM"]
properties('MP2/aug-cc-pvtz', properties = ['dipole'])
--------------------------------------------------------------------------

    Molecular point group: c1
  Charge       = 0
  Multiplicity = 1
  Basis Set: AUG-CC-PVTZ
    Blend: AUG-CC-PVTZ
  Basis Set: (AUG-CC-PVTZ AUX)
    Blend: AUG-CC-PVTZ-JKFIT

    Orbital Energies [Eh]
    ---------------------

    Doubly Occupied:

       1A    -20.598027     2A    -20.592847     3A    -11.311320
       4A    -11.308245     5A    -11.251393     6A    -11.231956
       7A    -11.224039     8A    -11.222451     9A    -11.219542
      10A    -11.215581    11A     -1.410743    12A     -1.401812
      13A     -1.149224    14A     -1.062765    15A     -1.001199
      16A     -0.986930    17A     -0.876422    18A     -0.837213
      19A     -0.808490    20A     -0.740925    21A     -0.687392
      22A     -0.676181    23A     -0.665474    24A     -0.612477
      25A     -0.603537    26A     -0.595426    27A     -0.588194
      28A     -0.577874    29A     -0.552975    30A     -0.548136
      31A     -0.522133    32A     -0.520956    33A     -0.487627
      34A     -0.482694    35A     -0.453271    36A     -0.324632
      37A     -0.310780

  @DF-RHF Final Energy:  -458.66005882437906

   => Energetics <=

    Nuclear Repulsion Energy =            507.4257840475951866
    One-Electron Energy =               -1630.8499164097615903
    Two-Electron Energy =                 664.7640735377873398
    Total Energy =                       -458.6600588243790071
  Basis Set: (AUG-CC-PVTZ AUX)
    Blend: AUG-CC-PVTZ-RI
    Molecular point group: c1

    Geometry (in Angstrom), charge = 0, multiplicity = 1:

       Center              X                  Y                   Z               Mass
    ------------   -----------------  -----------------  -----------------  -----------------
         O            1.762738494265     2.367287173092    -0.145872105825    15.994914619570
         O            1.675363494265    -2.408088826908    -0.127893105825    15.994914619570
         C           -1.021622505735    -0.008810826908     0.364156894175    12.000000000000
         C           -2.514003505735    -0.020533826908     0.563445894175    12.000000000000
         C           -0.323116505735    -1.208480826908     0.234383894175    12.000000000000
         C           -0.337109505735     1.204135173092     0.234880894175    12.000000000000
         C           -3.273620505735    -0.020840826908    -0.764319105825    12.000000000000
         C            1.034538494265     1.221747373092    -0.018070105825    12.000000000000
         C            1.048005494265    -1.192130826908    -0.018992105825    12.000000000000
         C            1.736807494265     0.013692173092    -0.145735105825    12.000000000000
         H           -2.792835505735    -0.904130826908     1.148342894175     1.007825032230
         H           -2.808339505735     0.852767173092     1.157321894175     1.007825032230
         H           -0.831287505735    -2.164638826908     0.330928894175     1.007825032230
         H           -0.870919005735     2.149332673092     0.333708594175     1.007825032230
         H           -3.023149505735     0.866169173092    -1.352765105825     1.007825032230
         H           -4.357457505735    -0.030518826908    -0.605314105825     1.007825032230
         H           -3.007699505735    -0.899218826908    -1.358666105825     1.007825032230
         H            2.807386494265     0.045674173092    -0.336242105825     1.007825032230
         H            1.159014494265     3.121215173092    -0.029962105825     1.007825032230
         H            2.621479494265    -2.255475826908    -0.297610105825     1.007825032230

  Basis Set: AUG-CC-PVTZ
    Blend: AUG-CC-PVTZ
  Basis Set: (AUG-CC-PVTZ AUX)
    Blend: AUG-CC-PVTZ-JKFIT
	 Reference Energy          =    -458.6600588243790639 [Eh]
	 Singles Energy            =      -0.0000000000000000 [Eh]
	 Same-Spin Energy          =      -0.4817316995563230 [Eh]
	 Opposite-Spin Energy      =      -1.5051586370220920 [Eh]
	 Correlation Energy        =      -1.9868903365784150 [Eh]
	 Total Energy              =    -460.6469491609574902 [Eh]

	 ================> DF-SCS-MP2 Energies <==================
	-----------------------------------------------------------
	 SCS Same-Spin Scale       =       0.3333333333333333 [-]
	 SCS Opposite-Spin Scale   =       1.2000000000000000 [-]
	 SCS Same-Spin Energy      =      -0.1605772331854410 [Eh]
	 SCS Opposite-Spin Energy  =      -1.8061903644265103 [Eh]
	 SCS Correlation Energy    =      -1.9667675976119512 [Eh]
	 SCS Total Energy          =    -460.6268264219910407 [Eh]
	-----------------------------------------------------------

  Dipole Moment: [D]
     X:    -0.4671      Y:     1.2904      Z:     0.0052     Total:     1.3724

*** Psi4 exiting successfully. Buy a developer a beer!
