                               Psi4 1.3.2 release

  ==> Input File <==

--------------------------------------------------------------------------
#psi4
#
memory 32 gb

molecule  {
0 1
  O        1.7627890     2.3683800    -0.1458810
  O        1.6754140    -2.4069960    -0.1279020
  C       -1.0215720    -0.0077180     0.3641480
  C       -2.5139530    -0.0194410     0.5634370
  C       -0.3230660    -1.2073880     0.2343750
  C       -0.3370590     1.2052280     0.2348720
  C       -3.2735700    -0.0197480    -0.7643280
  C        1.0142648     1.1980305    -0.0143591
  C        1.0274583    -1.1786313    -0.0152421
  C        1.7368580     0.0147850    -0.1457440
  H       -2.7927850    -0.9030380     1.1483340
  H       -2.8082890     0.8538600     1.1573130
  H       -0.8312370    -2.1635460     0.3309200
  H       -0.8789600     2.1456520     0.3351900
  H       -3.0230990     0.8672620    -1.3527740
  H       -4.3574070    -0.0294260    -0.6053230
  H       -3.0076490    -0.8981260    -1.3586750
  H        2.8074370     0.0467670    -0.3362510
  H        1.1590650     3.1223080    -0.0299710
  H        2.6215300    -2.2543830    -0.2976190
units angstrom
no_reorient  #important for SAPT in psi4, default
symmetry c1  #important for SAPT in psi4, default
}

set PROPERTIES_ORIGIN ["COM"]
properties('MP2/aug-cc-pvtz', properties = ['dipole'])
--------------------------------------------------------------------------

    Molecular point group: c1
  Charge       = 0
  Multiplicity = 1
  Basis Set: AUG-CC-PVTZ
    Blend: AUG-CC-PVTZ
  Basis Set: (AUG-CC-PVTZ AUX)
    Blend: AUG-CC-PVTZ-JKFIT

    Orbital Energies [Eh]
    ---------------------

    Doubly Occupied:

       1A    -20.592100     2A    -20.588847     3A    -11.308645
       4A    -11.307131     5A    -11.253502     6A    -11.233520
       7A    -11.225560     8A    -11.223377     9A    -11.221064
      10A    -11.216608    11A     -1.394917    12A     -1.390793
      13A     -1.156139    14A     -1.065731    15A     -1.008191
      16A     -0.989688    17A     -0.879398    18A     -0.833113
      19A     -0.807078    20A     -0.736458    21A     -0.688960
      22A     -0.669750    23A     -0.665153    24A     -0.612007
      25A     -0.600363    26A     -0.593492    27A     -0.584883
      28A     -0.569595    29A     -0.555609    30A     -0.551337
      31A     -0.525339    32A     -0.520988    33A     -0.489253
      34A     -0.485997    35A     -0.457049    36A     -0.326159
      37A     -0.318494

  @DF-RHF Final Energy:  -458.65816906966160

   => Energetics <=

    Nuclear Repulsion Energy =            507.8535033027284271
    One-Electron Energy =               -1631.7307785559303284
    Two-Electron Energy =                 665.2191061835402479
    Total Energy =                       -458.6581690696615397
  Basis Set: (AUG-CC-PVTZ AUX)
    Blend: AUG-CC-PVTZ-RI
    Molecular point group: c1

    Geometry (in Angstrom), charge = 0, multiplicity = 1:

       Center              X                  Y                   Z               Mass
    ------------   -----------------  -----------------  -----------------  -----------------
         O            1.766354229472     2.368400007089    -0.146532994004    15.994914619570
         O            1.678979229472    -2.406975992911    -0.128553994004    15.994914619570
         C           -1.018006770528    -0.007697992911     0.363496005996    12.000000000000
         C           -2.510387770528    -0.019420992911     0.562785005996    12.000000000000
         C           -0.319500770528    -1.207367992911     0.233723005996    12.000000000000
         C           -0.333493770528     1.205248007089     0.234220005996    12.000000000000
         C           -3.270004770528    -0.019727992911    -0.764979994004    12.000000000000
         C            1.017830029472     1.198050507089    -0.015011094004    12.000000000000
         C            1.031023529472    -1.178611292911    -0.015894094004    12.000000000000
         C            1.740423229472     0.014805007089    -0.146395994004    12.000000000000
         H           -2.789219770528    -0.903017992911     1.147682005996     1.007825032230
         H           -2.804723770528     0.853880007089     1.156661005996     1.007825032230
         H           -0.827671770528    -2.163525992911     0.330268005996     1.007825032230
         H           -0.875394770528     2.145672007089     0.334538005996     1.007825032230
         H           -3.019533770528     0.867282007089    -1.353425994004     1.007825032230
         H           -4.353841770528    -0.029405992911    -0.605974994004     1.007825032230
         H           -3.004083770528    -0.898105992911    -1.359326994004     1.007825032230
         H            2.811002229472     0.046787007089    -0.336902994004     1.007825032230
         H            1.162630229472     3.122328007089    -0.030622994004     1.007825032230
         H            2.625095229472    -2.254362992911    -0.298270994004     1.007825032230

  Basis Set: AUG-CC-PVTZ
    Blend: AUG-CC-PVTZ
  Basis Set: (AUG-CC-PVTZ AUX)
    Blend: AUG-CC-PVTZ-JKFIT
	 Reference Energy          =    -458.6581690696615965 [Eh]
	 Singles Energy            =      -0.0000000000000000 [Eh]
	 Same-Spin Energy          =      -0.4818402807267698 [Eh]
	 Opposite-Spin Energy      =      -1.5057405343861396 [Eh]
	 Correlation Energy        =      -1.9875808151129095 [Eh]
	 Total Energy              =    -460.6457498847744887 [Eh]

	 ================> DF-SCS-MP2 Energies <==================
	-----------------------------------------------------------
	 SCS Same-Spin Scale       =       0.3333333333333333 [-]
	 SCS Opposite-Spin Scale   =       1.2000000000000000 [-]
	 SCS Same-Spin Energy      =      -0.1606134269089232 [Eh]
	 SCS Opposite-Spin Energy  =      -1.8068886412633676 [Eh]
	 SCS Correlation Energy    =      -1.9675020681722908 [Eh]
	 SCS Total Energy          =    -460.6256711378338764 [Eh]
	-----------------------------------------------------------

  Dipole Moment: [D]
     X:    -0.6841      Y:     1.2229      Z:     0.0371     Total:     1.4017

*** Psi4 exiting successfully. Buy a developer a beer!
