                               Psi4 1.3.2 release

  ==> Input File <==

--------------------------------------------------------------------------
#psi4
#
memory 32 gb

molecule  {
0 1
  O        1.7627890     2.3683800    -0.1458810
  O        1.6754140    -2.4069960    -0.1279020
  C       -1.0422783     0.0046243     0.3680063
  C       -2.5139530    -0.0194410     0.5634370
  C       -0.3230660    -1.2073880     0.2343750
  C       -0.3370590     1.2052280     0.2348720
  C       -3.2735700    -0.0197480    -0.7643280
  C        1.0346870     1.2106680    -0.0181020
  C        1.0480560    -1.1910380    -0.0190010
  C        1.7368580     0.0147850    -0.1457440
  H       -2.7927850    -0.9030380     1.1483340
  H       -2.8082890     0.8538600     1.1573130
  H       -0.8312370    -2.1635460     0.3309200
  H       -0.8950087     2.1358906     0.3382010
  H       -3.0230990     0.8672620    -1.3527740
  H       -4.3574070    -0.0294260    -0.6053230
  H       -3.0076490    -0.8981260    -1.3586750
  H        2.8074370     0.0467670    -0.3362510
  H        1.1590650     3.1223080    -0.0299710
  H        2.6215300    -2.2543830    -0.2976190
units angstrom
no_reorient  #important for SAPT in psi4, default
symmetry c1  #important for SAPT in psi4, default
}

set PROPERTIES_ORIGIN ["COM"]
properties('MP2/aug-cc-pvtz', properties = ['dipole'])
--------------------------------------------------------------------------

    Molecular point group: c1
  Charge       = 0
  Multiplicity = 1
  Basis Set: AUG-CC-PVTZ
    Blend: AUG-CC-PVTZ
  Basis Set: (AUG-CC-PVTZ AUX)
    Blend: AUG-CC-PVTZ-JKFIT

    Orbital Energies [Eh]
    ---------------------

    Doubly Occupied:

       1A    -20.595849     2A    -20.592793     3A    -11.311072
       4A    -11.308165     5A    -11.252910     6A    -11.231734
       7A    -11.224153     8A    -11.223312     9A    -11.220504
      10A    -11.217245    11A     -1.405383    12A     -1.401437
      13A     -1.149073    14A     -1.066866    15A     -0.999809
      16A     -0.987404    17A     -0.879038    18A     -0.835777
      19A     -0.807241    20A     -0.740924    21A     -0.686219
      22A     -0.674907    23A     -0.666588    24A     -0.614494
      25A     -0.602317    26A     -0.595744    27A     -0.587017
      28A     -0.576284    29A     -0.551549    30A     -0.549598
      31A     -0.523788    32A     -0.519202    33A     -0.488389
      34A     -0.486556    35A     -0.452295    36A     -0.324771
      37A     -0.310295

  @DF-RHF Final Energy:  -458.65864850644317

   => Energetics <=

    Nuclear Repulsion Energy =            507.3326744576510237
    One-Electron Energy =               -1630.6612410970813016
    Two-Electron Energy =                 664.6699181329872772
    Total Energy =                       -458.6586485064431145
  Basis Set: (AUG-CC-PVTZ AUX)
    Blend: AUG-CC-PVTZ-RI
    Molecular point group: c1

    Geometry (in Angstrom), charge = 0, multiplicity = 1:

       Center              X                  Y                   Z               Mass
    ------------   -----------------  -----------------  -----------------  -----------------
         O            1.764705847608     2.367378486277    -0.146238302871    15.994914619570
         O            1.677330847608    -2.407997513723    -0.128259302871    15.994914619570
         C           -1.040361452392     0.003622786277     0.367648997129    12.000000000000
         C           -2.512036152392    -0.020442513723     0.563079697129    12.000000000000
         C           -0.321149152392    -1.208389513723     0.234017697129    12.000000000000
         C           -0.335142152392     1.204226486277     0.234514697129    12.000000000000
         C           -3.271653152392    -0.020749513723    -0.764685302871    12.000000000000
         C            1.036603847608     1.209666486277    -0.018459302871    12.000000000000
         C            1.049972847608    -1.192039513723    -0.019358302871    12.000000000000
         C            1.738774847608     0.013783486277    -0.146101302871    12.000000000000
         H           -2.790868152392    -0.904039513723     1.147976697129     1.007825032230
         H           -2.806372152392     0.852858486277     1.156955697129     1.007825032230
         H           -0.829320152392    -2.164547513723     0.330562697129     1.007825032230
         H           -0.893091852392     2.134889086277     0.337843697129     1.007825032230
         H           -3.021182152392     0.866260486277    -1.353131302871     1.007825032230
         H           -4.355490152392    -0.030427513723    -0.605680302871     1.007825032230
         H           -3.005732152392    -0.899127513723    -1.359032302871     1.007825032230
         H            2.809353847608     0.045765486277    -0.336608302871     1.007825032230
         H            1.160981847608     3.121306486277    -0.030328302871     1.007825032230
         H            2.623446847608    -2.255384513723    -0.297976302871     1.007825032230

  Basis Set: AUG-CC-PVTZ
    Blend: AUG-CC-PVTZ
  Basis Set: (AUG-CC-PVTZ AUX)
    Blend: AUG-CC-PVTZ-JKFIT
	 Reference Energy          =    -458.6586485064431713 [Eh]
	 Singles Energy            =      -0.0000000000000000 [Eh]
	 Same-Spin Energy          =      -0.4820219128157543 [Eh]
	 Opposite-Spin Energy      =      -1.5056441938613911 [Eh]
	 Correlation Energy        =      -1.9876661066771455 [Eh]
	 Total Energy              =    -460.6463146131202961 [Eh]

	 ================> DF-SCS-MP2 Energies <==================
	-----------------------------------------------------------
	 SCS Same-Spin Scale       =       0.3333333333333333 [-]
	 SCS Opposite-Spin Scale   =       1.2000000000000000 [-]
	 SCS Same-Spin Energy      =      -0.1606739709385848 [Eh]
	 SCS Opposite-Spin Energy  =      -1.8067730326336693 [Eh]
	 SCS Correlation Energy    =      -1.9674470035722540 [Eh]
	 SCS Total Energy          =    -460.6260955100154320 [Eh]
	-----------------------------------------------------------

  Dipole Moment: [D]
     X:    -0.5344      Y:     1.2335      Z:     0.0098     Total:     1.3443

*** Psi4 exiting successfully. Buy a developer a beer!
