                               Psi4 1.4a3.dev225

  ==> Input File <==

--------------------------------------------------------------------------
#psi4
#
memory 32 gb

molecule  {
0 1
  O       -1.8116000     2.3801270     0.1363720
  O       -1.7799440    -2.3994320     0.1189850
  C        0.9489570    -0.0306590    -0.3689570
  C        2.4429910    -0.0568610    -0.5708560
  C        0.2354480    -1.2220220    -0.2373930
  C        0.2798030     1.1938580    -0.2383990
  C        3.1984060    -0.0265600     0.7613490
  C       -1.1026180     1.2308863     0.0098370
  C       -1.1396310    -1.1871160     0.0102260
  C       -1.8132500     0.0254130     0.1385790
  H        2.7180680    -0.9584190    -1.1301260
  H        2.7446220     0.7994920    -1.1857830
  H        0.7258350    -2.1872220    -0.3369480
  H        0.8309290     2.1284970    -0.3452230
  H        2.9508560     0.8787730     1.3230630
  H        4.2811760    -0.0477390     0.6027570
  H        2.9230980    -0.8883860     1.3756490
  H       -2.8837580     0.0741080     0.3259950
  H       -1.1979550     3.1274200     0.0245130
  H       -2.7238770    -2.2320380     0.2881370
units angstrom
no_reorient  #important for SAPT in psi4, default
symmetry c1  #important for SAPT in psi4, default
}

set PROPERTIES_ORIGIN ["COM"]
properties('MP2/aug-cc-pvtz', properties = ['dipole'])
--------------------------------------------------------------------------

    Molecular point group: c1
  Charge       = 0
  Multiplicity = 1
  Basis Set: AUG-CC-PVTZ
    Blend: AUG-CC-PVTZ
  Basis Set: (AUG-CC-PVTZ AUX)
    Blend: AUG-CC-PVTZ-JKFIT

    Orbital Energies [Eh]
    ---------------------

    Doubly Occupied:

       1A    -20.599767     2A    -20.592823     3A    -11.313174
       4A    -11.308642     5A    -11.251768     6A    -11.232168
       7A    -11.224244     8A    -11.223434     9A    -11.219417
      10A    -11.215763    11A     -1.414612    12A     -1.400760
      13A     -1.147294    14A     -1.062114    15A     -0.999189
      16A     -0.986409    17A     -0.875287    18A     -0.838260
      19A     -0.807730    20A     -0.740914    21A     -0.686857
      22A     -0.677183    23A     -0.665076    24A     -0.612479
      25A     -0.604392    26A     -0.595907    27A     -0.588289
      28A     -0.578278    29A     -0.553242    30A     -0.546450
      31A     -0.521410    32A     -0.521125    33A     -0.487891
      34A     -0.481796    35A     -0.452253    36A     -0.324821
      37A     -0.309150

  @DF-RHF Final Energy:  -458.65937478326720

   => Energetics <=

    Nuclear Repulsion Energy =            506.9396989672933387
    One-Electron Energy =               -1629.8774082717075089
    Two-Electron Energy =                 664.2783345211469168
    Total Energy =                       -458.6593747832671397
  Basis Set: (AUG-CC-PVTZ AUX)
    Blend: AUG-CC-PVTZ-RI
    Molecular point group: c1

    Geometry (in Angstrom), charge = 0, multiplicity = 1:

       Center              X                  Y                   Z               Mass
    ------------   -----------------  -----------------  -----------------  -----------------
         O           -1.736310795187     2.383644031981     0.142988657116    15.994914619570
         O           -1.704654795187    -2.395914968019     0.125601657116    15.994914619570
         C            1.024246204813    -0.027141968019    -0.362340342884    12.000000000000
         C            2.518280204813    -0.053343968019    -0.564239342884    12.000000000000
         C            0.310737204813    -1.218504968019    -0.230776342884    12.000000000000
         C            0.355092204813     1.197375031981    -0.231782342884    12.000000000000
         C            3.273695204813    -0.023042968019     0.767965657116    12.000000000000
         C           -1.027328795187     1.234403331981     0.016453657116    12.000000000000
         C           -1.064341795187    -1.183598968019     0.016842657116    12.000000000000
         C           -1.737960795187     0.028930031981     0.145195657116    12.000000000000
         H            2.793357204813    -0.954901968019    -1.123509342884     1.007825032230
         H            2.819911204813     0.803009031981    -1.179166342884     1.007825032230
         H            0.801124204813    -2.183704968019    -0.330331342884     1.007825032230
         H            0.906218204813     2.132014031981    -0.338606342884     1.007825032230
         H            3.026145204813     0.882290031981     1.329679657116     1.007825032230
         H            4.356465204813    -0.044221968019     0.609373657116     1.007825032230
         H            2.998387204813    -0.884868968019     1.382265657116     1.007825032230
         H           -2.808468795187     0.077625031981     0.332611657116     1.007825032230
         H           -1.122665795187     3.130937031981     0.031129657116     1.007825032230
         H           -2.648587795187    -2.228520968019     0.294753657116     1.007825032230

  Basis Set: AUG-CC-PVTZ
    Blend: AUG-CC-PVTZ
  Basis Set: (AUG-CC-PVTZ AUX)
    Blend: AUG-CC-PVTZ-JKFIT
	 Reference Energy          =    -458.6593747832671966 [Eh]
	 Singles Energy            =      -0.0000000000000000 [Eh]
	 Same-Spin Energy          =      -0.4817249399838223 [Eh]
	 Opposite-Spin Energy      =      -1.5053136553989115 [Eh]
	 Correlation Energy        =      -1.9870385953827339 [Eh]
	 Total Energy              =    -460.6464133786499247 [Eh]

	 ================> DF-SCS-MP2 Energies <==================
	-----------------------------------------------------------
	 SCS Same-Spin Scale       =       0.3333333333333333 [-]
	 SCS Opposite-Spin Scale   =       1.2000000000000000 [-]
	 SCS Same-Spin Energy      =      -0.1605749799946074 [Eh]
	 SCS Opposite-Spin Energy  =      -1.8063763864786937 [Eh]
	 SCS Correlation Energy    =      -1.9669513664733012 [Eh]
	 SCS Total Energy          =    -460.6263261497405210 [Eh]
	-----------------------------------------------------------

  Dipole Moment: [D]
     X:     0.4599      Y:     1.3503      Z:    -0.0076     Total:     1.4265

*** Psi4 exiting successfully. Buy a developer a beer!
