                               Psi4 1.4a3.dev225

  ==> Input File <==

--------------------------------------------------------------------------
#psi4
#
memory 32 gb

molecule  {
0 1
  O       -1.8116000     2.3801270     0.1363720
  O       -1.7799440    -2.3994320     0.1189850
  C        0.9489570    -0.0306590    -0.3689570
  C        2.4925331    -0.0577299    -0.5775510
  C        0.2354480    -1.2220220    -0.2373930
  C        0.2798030     1.1938580    -0.2383990
  C        3.1984060    -0.0265600     0.7613490
  C       -1.0921630     1.2139390     0.0079710
  C       -1.1396310    -1.1871160     0.0102260
  C       -1.8132500     0.0254130     0.1385790
  H        2.7180680    -0.9584190    -1.1301260
  H        2.7446220     0.7994920    -1.1857830
  H        0.7258350    -2.1872220    -0.3369480
  H        0.8309290     2.1284970    -0.3452230
  H        2.9508560     0.8787730     1.3230630
  H        4.2811760    -0.0477390     0.6027570
  H        2.9230980    -0.8883860     1.3756490
  H       -2.8837580     0.0741080     0.3259950
  H       -1.1979550     3.1274200     0.0245130
  H       -2.7238770    -2.2320380     0.2881370
units angstrom
no_reorient  #important for SAPT in psi4, default
symmetry c1  #important for SAPT in psi4, default
}

set PROPERTIES_ORIGIN ["COM"]
properties('MP2/aug-cc-pvtz', properties = ['dipole'])
--------------------------------------------------------------------------

    Molecular point group: c1
  Charge       = 0
  Multiplicity = 1
  Basis Set: AUG-CC-PVTZ
    Blend: AUG-CC-PVTZ
  Basis Set: (AUG-CC-PVTZ AUX)
    Blend: AUG-CC-PVTZ-JKFIT

    Orbital Energies [Eh]
    ---------------------

    Doubly Occupied:

       1A    -20.595395     2A    -20.593089     3A    -11.310809
       4A    -11.308929     5A    -11.253713     6A    -11.232683
       7A    -11.224136     8A    -11.223044     9A    -11.219001
      10A    -11.216485    11A     -1.403967    12A     -1.400551
      13A     -1.147309    14A     -1.061681    15A     -1.000440
      16A     -0.989973    17A     -0.872897    18A     -0.835318
      19A     -0.809247    20A     -0.738612    21A     -0.686597
      22A     -0.673872    23A     -0.664493    24A     -0.611438
      25A     -0.603146    26A     -0.594981    27A     -0.587290
      28A     -0.575506    29A     -0.553094    30A     -0.547554
      31A     -0.527974    32A     -0.521956    33A     -0.494259
      34A     -0.470910    35A     -0.455138    36A     -0.326299
      37A     -0.311125

  @DF-RHF Final Energy:  -458.65790987779610

   => Energetics <=

    Nuclear Repulsion Energy =            506.3788247458582532
    One-Electron Energy =               -1628.7876469420079957
    Two-Electron Energy =                 663.7509123183535849
    Total Energy =                       -458.6579098777961008
  Basis Set: (AUG-CC-PVTZ AUX)
    Blend: AUG-CC-PVTZ-RI
    Molecular point group: c1

    Geometry (in Angstrom), charge = 0, multiplicity = 1:

       Center              X                  Y                   Z               Mass
    ------------   -----------------  -----------------  -----------------  -----------------
         O           -1.741525361815     2.385192502856     0.143732724827    15.994914619570
         O           -1.709869361815    -2.394366497144     0.126345724827    15.994914619570
         C            1.019031638185    -0.025593497144    -0.361596275173    12.000000000000
         C            2.562607738185    -0.052664397144    -0.570190275173    12.000000000000
         C            0.305522638185    -1.216956497144    -0.230032275173    12.000000000000
         C            0.349877638185     1.198923502856    -0.231038275173    12.000000000000
         C            3.268480638185    -0.021494497144     0.768709724827    12.000000000000
         C           -1.022088361815     1.219004502856     0.015331724827    12.000000000000
         C           -1.069556361815    -1.182050497144     0.017586724827    12.000000000000
         C           -1.743175361815     0.030478502856     0.145939724827    12.000000000000
         H            2.788142638185    -0.953353497144    -1.122765275173     1.007825032230
         H            2.814696638185     0.804557502856    -1.178422275173     1.007825032230
         H            0.795909638185    -2.182156497144    -0.329587275173     1.007825032230
         H            0.901003638185     2.133562502856    -0.337862275173     1.007825032230
         H            3.020930638185     0.883838502856     1.330423724827     1.007825032230
         H            4.351250638185    -0.042673497144     0.610117724827     1.007825032230
         H            2.993172638185    -0.883320497144     1.383009724827     1.007825032230
         H           -2.813683361815     0.079173502856     0.333355724827     1.007825032230
         H           -1.127880361815     3.132485502856     0.031873724827     1.007825032230
         H           -2.653802361815    -2.226972497144     0.295497724827     1.007825032230

  Basis Set: AUG-CC-PVTZ
    Blend: AUG-CC-PVTZ
  Basis Set: (AUG-CC-PVTZ AUX)
    Blend: AUG-CC-PVTZ-JKFIT
	 Reference Energy          =    -458.6579098777961008 [Eh]
	 Singles Energy            =      -0.0000000000000000 [Eh]
	 Same-Spin Energy          =      -0.4815127775636405 [Eh]
	 Opposite-Spin Energy      =      -1.5053149681019535 [Eh]
	 Correlation Energy        =      -1.9868277456655941 [Eh]
	 Total Energy              =    -460.6447376234617082 [Eh]

	 ================> DF-SCS-MP2 Energies <==================
	-----------------------------------------------------------
	 SCS Same-Spin Scale       =       0.3333333333333333 [-]
	 SCS Opposite-Spin Scale   =       1.2000000000000000 [-]
	 SCS Same-Spin Energy      =      -0.1605042591878802 [Eh]
	 SCS Opposite-Spin Energy  =      -1.8063779617223441 [Eh]
	 SCS Correlation Energy    =      -1.9668822209102244 [Eh]
	 SCS Total Energy          =    -460.6247920987063367 [Eh]
	-----------------------------------------------------------

  Dipole Moment: [D]
     X:     0.5526      Y:     1.2230      Z:    -0.0181     Total:     1.3422

*** Psi4 exiting successfully. Buy a developer a beer!
