                               Psi4 1.3.2 release

  ==> Input File <==

--------------------------------------------------------------------------
#psi4
#
memory 32 gb

molecule  {
0 1
  O        1.7627890     2.3683800    -0.1458810
  O        1.6754140    -2.4069960    -0.1279020
  C       -1.0215720    -0.0077180     0.3641480
  C       -2.5139530    -0.0194410     0.5634370
  C       -0.3230660    -1.2073880     0.2343750
  C       -0.3370590     1.2052280     0.2348720
  C       -3.2735700    -0.0197480    -0.7643280
  C        1.0449905     1.2168503    -0.0199225
  C        1.0480560    -1.1910380    -0.0190010
  C        1.7368580     0.0147850    -0.1457440
  H       -2.7927850    -0.9030380     1.1483340
  H       -2.8082890     0.8538600     1.1573130
  H       -0.8312370    -2.1635460     0.3309200
  H       -0.8789600     2.1456520     0.3351900
  H       -3.0230990     0.8672620    -1.3527740
  H       -4.3574070    -0.0294260    -0.6053230
  H       -3.0076490    -0.8981260    -1.3586750
  H        2.8071251     0.0562550    -0.3361745
  H        1.1590650     3.1223080    -0.0299710
  H        2.6215300    -2.2543830    -0.2976190
units angstrom
no_reorient  #important for SAPT in psi4, default
symmetry c1  #important for SAPT in psi4, default
}

set PROPERTIES_ORIGIN ["COM"]
properties('MP2/aug-cc-pvtz', properties = ['dipole'])
--------------------------------------------------------------------------

    Molecular point group: c1
  Charge       = 0
  Multiplicity = 1
  Basis Set: AUG-CC-PVTZ
    Blend: AUG-CC-PVTZ
  Basis Set: (AUG-CC-PVTZ AUX)
    Blend: AUG-CC-PVTZ-JKFIT

    Orbital Energies [Eh]
    ---------------------

    Doubly Occupied:

       1A    -20.597732     2A    -20.593130     3A    -11.311469
       4A    -11.308781     5A    -11.250916     6A    -11.231771
       7A    -11.223501     8A    -11.222986     9A    -11.219413
      10A    -11.215263    11A     -1.410634    12A     -1.402052
      13A     -1.149027    14A     -1.063612    15A     -0.999853
      16A     -0.987483    17A     -0.875856    18A     -0.838126
      19A     -0.808045    20A     -0.740617    21A     -0.687471
      22A     -0.677506    23A     -0.665842    24A     -0.612147
      25A     -0.603524    26A     -0.595505    27A     -0.587909
      28A     -0.577913    29A     -0.552851    30A     -0.547698
      31A     -0.522503    32A     -0.521231    33A     -0.487452
      34A     -0.481782    35A     -0.453121    36A     -0.325863
      37A     -0.309531

  @DF-RHF Final Energy:  -458.66009264540571

   => Energetics <=

    Nuclear Repulsion Energy =            507.4259727311803090
    One-Electron Energy =               -1630.8518955145555083
    Two-Electron Energy =                 664.7658301379694876
    Total Energy =                       -458.6600926454057117
  Basis Set: (AUG-CC-PVTZ AUX)
    Blend: AUG-CC-PVTZ-RI
    Molecular point group: c1

    Geometry (in Angstrom), charge = 0, multiplicity = 1:

       Center              X                  Y                   Z               Mass
    ------------   -----------------  -----------------  -----------------  -----------------
         O            1.761895802432     2.367773363739    -0.145723317345    15.994914619570
         O            1.674520802432    -2.407602636261    -0.127744317345    15.994914619570
         C           -1.022465197568    -0.008324636261     0.364305682655    12.000000000000
         C           -2.514846197568    -0.020047636261     0.563594682655    12.000000000000
         C           -0.323959197568    -1.207994636261     0.234532682655    12.000000000000
         C           -0.337952197568     1.204621363739     0.235029682655    12.000000000000
         C           -3.274463197568    -0.020354636261    -0.764170317345    12.000000000000
         C            1.044097302432     1.216243663739    -0.019764817345    12.000000000000
         C            1.047162802432    -1.191644636261    -0.018843317345    12.000000000000
         C            1.735964802432     0.014178363739    -0.145586317345    12.000000000000
         H           -2.793678197568    -0.903644636261     1.148491682655     1.007825032230
         H           -2.809182197568     0.853253363739     1.157470682655     1.007825032230
         H           -0.832130197568    -2.164152636261     0.331077682655     1.007825032230
         H           -0.879853197568     2.145045363739     0.335347682655     1.007825032230
         H           -3.023992197568     0.866655363739    -1.352616317345     1.007825032230
         H           -4.358300197569    -0.030032636261    -0.605165317345     1.007825032230
         H           -3.008542197568    -0.898732636261    -1.358517317345     1.007825032230
         H            2.806231902432     0.055648363739    -0.336016817345     1.007825032230
         H            1.158171802432     3.121701363739    -0.029813317345     1.007825032230
         H            2.620636802432    -2.254989636261    -0.297461317345     1.007825032230

  Basis Set: AUG-CC-PVTZ
    Blend: AUG-CC-PVTZ
  Basis Set: (AUG-CC-PVTZ AUX)
    Blend: AUG-CC-PVTZ-JKFIT
	 Reference Energy          =    -458.6600926454057117 [Eh]
	 Singles Energy            =      -0.0000000000000000 [Eh]
	 Same-Spin Energy          =      -0.4817191290930296 [Eh]
	 Opposite-Spin Energy      =      -1.5050756580554117 [Eh]
	 Correlation Energy        =      -1.9867947871484413 [Eh]
	 Total Energy              =    -460.6468874325541378 [Eh]

	 ================> DF-SCS-MP2 Energies <==================
	-----------------------------------------------------------
	 SCS Same-Spin Scale       =       0.3333333333333333 [-]
	 SCS Opposite-Spin Scale   =       1.2000000000000000 [-]
	 SCS Same-Spin Energy      =      -0.1605730430310099 [Eh]
	 SCS Opposite-Spin Energy  =      -1.8060907896664939 [Eh]
	 SCS Correlation Energy    =      -1.9666638326975039 [Eh]
	 SCS Total Energy          =    -460.6267564781032320 [Eh]
	-----------------------------------------------------------

  Dipole Moment: [D]
     X:    -0.4535      Y:     1.2887      Z:     0.0028     Total:     1.3661

*** Psi4 exiting successfully. Buy a developer a beer!
