                               Psi4 1.3.2 release

  ==> Input File <==

--------------------------------------------------------------------------
#psi4
#
memory 32 gb

molecule  {
0 1
  O        1.7627890     2.3683800    -0.1458810
  O        1.6754140    -2.4069960    -0.1279020
  C       -1.0233683    -0.0076796     0.3511320
  C       -2.5139530    -0.0194410     0.5634370
  C       -0.3230660    -1.2073880     0.2343750
  C       -0.3370590     1.2052280     0.2348720
  C       -3.2619547    -0.0196369    -0.7709061
  C        1.0346870     1.2106680    -0.0181020
  C        1.0480560    -1.1910380    -0.0190010
  C        1.7368580     0.0147850    -0.1457440
  H       -2.7927850    -0.9030380     1.1483340
  H       -2.8082890     0.8538600     1.1573130
  H       -0.8312370    -2.1635460     0.3309200
  H       -0.8789600     2.1456520     0.3351900
  H       -3.0230990     0.8672620    -1.3527740
  H       -4.3574070    -0.0294260    -0.6053230
  H       -3.0076490    -0.8981260    -1.3586750
  H        2.8074370     0.0467670    -0.3362510
  H        1.1590650     3.1223080    -0.0299710
  H        2.6215300    -2.2543830    -0.2976190
units angstrom
no_reorient  #important for SAPT in psi4, default
symmetry c1  #important for SAPT in psi4, default
}

set PROPERTIES_ORIGIN ["COM"]
properties('MP2/aug-cc-pvtz', properties = ['dipole'])
--------------------------------------------------------------------------

    Molecular point group: c1
  Charge       = 0
  Multiplicity = 1
  Basis Set: AUG-CC-PVTZ
    Blend: AUG-CC-PVTZ
  Basis Set: (AUG-CC-PVTZ AUX)
    Blend: AUG-CC-PVTZ-JKFIT

    Orbital Energies [Eh]
    ---------------------

    Doubly Occupied:

       1A    -20.595669     2A    -20.593278     3A    -11.310467
       4A    -11.308739     5A    -11.251217     6A    -11.232222
       7A    -11.223775     8A    -11.222575     9A    -11.219651
      10A    -11.215765    11A     -1.405350    12A     -1.401820
      13A     -1.150491    14A     -1.064259    15A     -1.001312
      16A     -0.987851    17A     -0.876313    18A     -0.836657
      19A     -0.808295    20A     -0.739928    21A     -0.687606
      22A     -0.675203    23A     -0.666129    24A     -0.611922
      25A     -0.602571    26A     -0.595421    27A     -0.587543
      28A     -0.576423    29A     -0.553190    30A     -0.547630
      31A     -0.523979    32A     -0.521454    33A     -0.489765
      34A     -0.481264    35A     -0.453792    36A     -0.325738
      37A     -0.311310

  @DF-RHF Final Energy:  -458.66001254697591

   => Energetics <=

    Nuclear Repulsion Energy =            507.6390098287000683
    One-Electron Energy =               -1631.2848899574821644
    Two-Electron Energy =                 664.9858675818063602
    Total Energy =                       -458.6600125469758495
  Basis Set: (AUG-CC-PVTZ AUX)
    Blend: AUG-CC-PVTZ-RI
    Molecular point group: c1

    Geometry (in Angstrom), charge = 0, multiplicity = 1:

       Center              X                  Y                   Z               Mass
    ------------   -----------------  -----------------  -----------------  -----------------
         O            1.761935635385     2.368366953830    -0.144177990581    15.994914619570
         O            1.674560635385    -2.407009046170    -0.126198990581    15.994914619570
         C           -1.024221664615    -0.007692646170     0.352835009419    12.000000000000
         C           -2.514806364615    -0.019454046170     0.565140009419    12.000000000000
         C           -0.323919364615    -1.207401046170     0.236078009419    12.000000000000
         C           -0.337912364615     1.205214953830     0.236575009419    12.000000000000
         C           -3.262808064615    -0.019649946170    -0.769203090581    12.000000000000
         C            1.033833635385     1.210654953830    -0.016398990581    12.000000000000
         C            1.047202635385    -1.191051046170    -0.017297990581    12.000000000000
         C            1.736004635385     0.014771953830    -0.144040990581    12.000000000000
         H           -2.793638364615    -0.903051046170     1.150037009419     1.007825032230
         H           -2.809142364615     0.853846953830     1.159016009419     1.007825032230
         H           -0.832090364615    -2.163559046170     0.332623009419     1.007825032230
         H           -0.879813364615     2.145638953830     0.336893009419     1.007825032230
         H           -3.023952364615     0.867248953830    -1.351070990581     1.007825032230
         H           -4.358260364615    -0.029439046170    -0.603619990581     1.007825032230
         H           -3.008502364615    -0.898139046170    -1.356971990581     1.007825032230
         H            2.806583635385     0.046753953830    -0.334547990581     1.007825032230
         H            1.158211635385     3.122294953830    -0.028267990581     1.007825032230
         H            2.620676635385    -2.254396046170    -0.295915990581     1.007825032230

  Basis Set: AUG-CC-PVTZ
    Blend: AUG-CC-PVTZ
  Basis Set: (AUG-CC-PVTZ AUX)
    Blend: AUG-CC-PVTZ-JKFIT
	 Reference Energy          =    -458.6600125469759064 [Eh]
	 Singles Energy            =      -0.0000000000000000 [Eh]
	 Same-Spin Energy          =      -0.4817355364426243 [Eh]
	 Opposite-Spin Energy      =      -1.5052190538802739 [Eh]
	 Correlation Energy        =      -1.9869545903228982 [Eh]
	 Total Energy              =    -460.6469671372988159 [Eh]

	 ================> DF-SCS-MP2 Energies <==================
	-----------------------------------------------------------
	 SCS Same-Spin Scale       =       0.3333333333333333 [-]
	 SCS Opposite-Spin Scale   =       1.2000000000000000 [-]
	 SCS Same-Spin Energy      =      -0.1605785121475414 [Eh]
	 SCS Opposite-Spin Energy  =      -1.8062628646563286 [Eh]
	 SCS Correlation Energy    =      -1.9668413768038699 [Eh]
	 SCS Total Energy          =    -460.6268539237797768 [Eh]
	-----------------------------------------------------------

  Dipole Moment: [D]
     X:    -0.5010      Y:     1.2214      Z:     0.0166     Total:     1.3202

*** Psi4 exiting successfully. Buy a developer a beer!
