                               Psi4 1.3.2 release

  ==> Input File <==

--------------------------------------------------------------------------
#psi4
#
memory 32 gb

molecule  {
0 1
  O        1.7627890     2.3683800    -0.1458810
  O        1.6754140    -2.4069960    -0.1279020
  C       -1.0215720    -0.0077180     0.3641480
  C       -2.5139530    -0.0194410     0.5634370
  C       -0.3230660    -1.2073880     0.2343750
  C       -0.3367500     1.1808849     0.2348526
  C       -3.2735700    -0.0197480    -0.7643280
  C        1.0346870     1.2106680    -0.0181020
  C        1.0480560    -1.1910380    -0.0190010
  C        1.7162295     0.0025118    -0.1419209
  H       -2.7927850    -0.9030380     1.1483340
  H       -2.8082890     0.8538600     1.1573130
  H       -0.8312370    -2.1635460     0.3309200
  H       -0.8789600     2.1456520     0.3351900
  H       -3.0230990     0.8672620    -1.3527740
  H       -4.3574070    -0.0294260    -0.6053230
  H       -3.0076490    -0.8981260    -1.3586750
  H        2.8074370     0.0467670    -0.3362510
  H        1.1590650     3.1223080    -0.0299710
  H        2.6215300    -2.2543830    -0.2976190
units angstrom
no_reorient  #important for SAPT in psi4, default
symmetry c1  #important for SAPT in psi4, default
}

set PROPERTIES_ORIGIN ["COM"]
properties('MP2/aug-cc-pvtz', properties = ['dipole'])
--------------------------------------------------------------------------

    Molecular point group: c1
  Charge       = 0
  Multiplicity = 1
  Basis Set: AUG-CC-PVTZ
    Blend: AUG-CC-PVTZ
  Basis Set: (AUG-CC-PVTZ AUX)
    Blend: AUG-CC-PVTZ-JKFIT

    Orbital Energies [Eh]
    ---------------------

    Doubly Occupied:

       1A    -20.598264     2A    -20.592300     3A    -11.310797
       4A    -11.305105     5A    -11.247956     6A    -11.231919
       7A    -11.224215     8A    -11.223314     9A    -11.219471
      10A    -11.215475    11A     -1.406544    12A     -1.401367
      13A     -1.154605    14A     -1.065578    15A     -1.001761
      16A     -0.989162    17A     -0.875275    18A     -0.838901
      19A     -0.808524    20A     -0.742283    21A     -0.687591
      22A     -0.675882    23A     -0.662013    24A     -0.612539
      25A     -0.603109    26A     -0.594836    27A     -0.586468
      28A     -0.576963    29A     -0.554414    30A     -0.546524
      31A     -0.521847    32A     -0.520017    33A     -0.487869
      34A     -0.481543    35A     -0.456671    36A     -0.329166
      37A     -0.310696

  @DF-RHF Final Energy:  -458.65842052119751

   => Energetics <=

    Nuclear Repulsion Energy =            508.2533519320876394
    One-Electron Energy =               -1632.5016199812669129
    Two-Electron Energy =                 665.5898475279818740
    Total Energy =                       -458.6584205211975132
  Basis Set: (AUG-CC-PVTZ AUX)
    Blend: AUG-CC-PVTZ-RI
    Molecular point group: c1

    Geometry (in Angstrom), charge = 0, multiplicity = 1:

       Center              X                  Y                   Z               Mass
    ------------   -----------------  -----------------  -----------------  -----------------
         O            1.764555082263     2.371562403505    -0.146211578655    15.994914619570
         O            1.677180082263    -2.403813596495    -0.128232578655    15.994914619570
         C           -1.019805917737    -0.004535596495     0.363817421345    12.000000000000
         C           -2.512186917737    -0.016258596495     0.563106421345    12.000000000000
         C           -0.321299917737    -1.204205596495     0.234044421345    12.000000000000
         C           -0.334983917737     1.184067303505     0.234522021345    12.000000000000
         C           -3.271803917737    -0.016565596495    -0.764658578655    12.000000000000
         C            1.036453082263     1.213850403505    -0.018432578655    12.000000000000
         C            1.049822082263    -1.187855596495    -0.019331578655    12.000000000000
         C            1.717995582263     0.005694203505    -0.142251478655    12.000000000000
         H           -2.791018917737    -0.899855596495     1.148003421345     1.007825032230
         H           -2.806522917737     0.857042403505     1.156982421345     1.007825032230
         H           -0.829470917737    -2.160363596495     0.330589421345     1.007825032230
         H           -0.877193917737     2.148834403505     0.334859421345     1.007825032230
         H           -3.021332917737     0.870444403505    -1.353104578655     1.007825032230
         H           -4.355640917737    -0.026243596495    -0.605653578655     1.007825032230
         H           -3.005882917737    -0.894943596495    -1.359005578655     1.007825032230
         H            2.809203082263     0.049949403505    -0.336581578655     1.007825032230
         H            1.160831082263     3.125490403505    -0.030301578655     1.007825032230
         H            2.623296082263    -2.251200596495    -0.297949578655     1.007825032230

  Basis Set: AUG-CC-PVTZ
    Blend: AUG-CC-PVTZ
  Basis Set: (AUG-CC-PVTZ AUX)
    Blend: AUG-CC-PVTZ-JKFIT
	 Reference Energy          =    -458.6584205211975132 [Eh]
	 Singles Energy            =      -0.0000000000000000 [Eh]
	 Same-Spin Energy          =      -0.4820096138140426 [Eh]
	 Opposite-Spin Energy      =      -1.5054075550668387 [Eh]
	 Correlation Energy        =      -1.9874171688808813 [Eh]
	 Total Energy              =    -460.6458376900783946 [Eh]

	 ================> DF-SCS-MP2 Energies <==================
	-----------------------------------------------------------
	 SCS Same-Spin Scale       =       0.3333333333333333 [-]
	 SCS Opposite-Spin Scale   =       1.2000000000000000 [-]
	 SCS Same-Spin Energy      =      -0.1606698712713475 [Eh]
	 SCS Opposite-Spin Energy  =      -1.8064890660802062 [Eh]
	 SCS Correlation Energy    =      -1.9671589373515537 [Eh]
	 SCS Total Energy          =    -460.6255794585490548 [Eh]
	-----------------------------------------------------------

  Dipole Moment: [D]
     X:    -0.4934      Y:     1.2709      Z:     0.0086     Total:     1.3633

*** Psi4 exiting successfully. Buy a developer a beer!
