                               Psi4 1.4a3.dev225

  ==> Input File <==

--------------------------------------------------------------------------
#psi4
#
memory 32 gb

molecule  {
0 1
  O       -1.8116000     2.3801270     0.1363720
  O       -1.7799440    -2.3994320     0.1189850
  C        0.9489570    -0.0306590    -0.3689570
  C        2.4429910    -0.0568610    -0.5708560
  C        0.2354480    -1.2220220    -0.2373930
  C        0.2798030     1.1938580    -0.2383990
  C        3.1984060    -0.0265600     0.7613490
  C       -1.0921630     1.2139390     0.0079710
  C       -1.1396310    -1.1871160     0.0102260
  C       -1.8029214     0.0424371     0.1367082
  H        2.7180680    -0.9584190    -1.1301260
  H        2.7446220     0.7994920    -1.1857830
  H        0.7258350    -2.1872220    -0.3369480
  H        0.8309290     2.1284970    -0.3452230
  H        2.9508560     0.8787730     1.3230630
  H        4.2811760    -0.0477390     0.6027570
  H        2.9230980    -0.8883860     1.3756490
  H       -2.8837580     0.0741080     0.3259950
  H       -1.1979550     3.1274200     0.0245130
  H       -2.7238770    -2.2320380     0.2881370
units angstrom
no_reorient  #important for SAPT in psi4, default
symmetry c1  #important for SAPT in psi4, default
}

set PROPERTIES_ORIGIN ["COM"]
properties('MP2/aug-cc-pvtz', properties = ['dipole'])
--------------------------------------------------------------------------

    Molecular point group: c1
  Charge       = 0
  Multiplicity = 1
  Basis Set: AUG-CC-PVTZ
    Blend: AUG-CC-PVTZ
  Basis Set: (AUG-CC-PVTZ AUX)
    Blend: AUG-CC-PVTZ-JKFIT

    Orbital Energies [Eh]
    ---------------------

    Doubly Occupied:

       1A    -20.594934     2A    -20.594711     3A    -11.310585
       4A    -11.308350     5A    -11.252079     6A    -11.232513
       7A    -11.224539     8A    -11.223226     9A    -11.219798
      10A    -11.216923    11A     -1.404125    12A     -1.401298
      13A     -1.150565    14A     -1.064237    15A     -1.001657
      16A     -0.987663    17A     -0.876229    18A     -0.836139
      19A     -0.807410    20A     -0.739337    21A     -0.687902
      22A     -0.673481    23A     -0.665166    24A     -0.611492
      25A     -0.602152    26A     -0.595010    27A     -0.587918
      28A     -0.576034    29A     -0.552602    30A     -0.548428
      31A     -0.524753    32A     -0.520586    33A     -0.488261
      34A     -0.482102    35A     -0.454295    36A     -0.326439
      37A     -0.311620

  @DF-RHF Final Energy:  -458.65912000065640

   => Energetics <=

    Nuclear Repulsion Energy =            507.2753988748997926
    One-Electron Energy =               -1630.5599156053674506
    Two-Electron Energy =                 664.6253967298113139
    Total Energy =                       -458.6591200006563440
  Basis Set: (AUG-CC-PVTZ AUX)
    Blend: AUG-CC-PVTZ-RI
    Molecular point group: c1

    Geometry (in Angstrom), charge = 0, multiplicity = 1:

       Center              X                  Y                   Z               Mass
    ------------   -----------------  -----------------  -----------------  -----------------
         O           -1.738117173612     2.383637357013     0.143313436023    15.994914619570
         O           -1.706461173612    -2.395921642987     0.125926436023    15.994914619570
         C            1.022439826388    -0.027148642987    -0.362015563977    12.000000000000
         C            2.516473826388    -0.053350642987    -0.563914563977    12.000000000000
         C            0.308930826388    -1.218511642987    -0.230451563977    12.000000000000
         C            0.353285826388     1.197368357013    -0.231457563977    12.000000000000
         C            3.271888826388    -0.023049642987     0.768290436023    12.000000000000
         C           -1.018680173612     1.217449357013     0.014912436023    12.000000000000
         C           -1.066148173612    -1.183605642987     0.017167436023    12.000000000000
         C           -1.729438573612     0.045947457013     0.143649636023    12.000000000000
         H            2.791550826388    -0.954908642987    -1.123184563977     1.007825032230
         H            2.818104826388     0.803002357013    -1.178841563977     1.007825032230
         H            0.799317826388    -2.183711642987    -0.330006563977     1.007825032230
         H            0.904411826388     2.132007357013    -0.338281563977     1.007825032230
         H            3.024338826388     0.882283357013     1.330004436023     1.007825032230
         H            4.354658826388    -0.044228642987     0.609698436023     1.007825032230
         H            2.996580826388    -0.884875642987     1.382590436023     1.007825032230
         H           -2.810275173612     0.077618357013     0.332936436023     1.007825032230
         H           -1.124472173612     3.130930357013     0.031454436023     1.007825032230
         H           -2.650394173612    -2.228527642987     0.295078436023     1.007825032230

  Basis Set: AUG-CC-PVTZ
    Blend: AUG-CC-PVTZ
  Basis Set: (AUG-CC-PVTZ AUX)
    Blend: AUG-CC-PVTZ-JKFIT
	 Reference Energy          =    -458.6591200006564009 [Eh]
	 Singles Energy            =      -0.0000000000000000 [Eh]
	 Same-Spin Energy          =      -0.4818295755089194 [Eh]
	 Opposite-Spin Energy      =      -1.5055688369885316 [Eh]
	 Correlation Energy        =      -1.9873984124974511 [Eh]
	 Total Energy              =    -460.6465184131538422 [Eh]

	 ================> DF-SCS-MP2 Energies <==================
	-----------------------------------------------------------
	 SCS Same-Spin Scale       =       0.3333333333333333 [-]
	 SCS Opposite-Spin Scale   =       1.2000000000000000 [-]
	 SCS Same-Spin Energy      =      -0.1606098585029731 [Eh]
	 SCS Opposite-Spin Energy  =      -1.8066826043862378 [Eh]
	 SCS Correlation Energy    =      -1.9672924628892110 [Eh]
	 SCS Total Energy          =    -460.6264124635455914 [Eh]
	-----------------------------------------------------------

  Dipole Moment: [D]
     X:     0.5230      Y:     1.1828      Z:    -0.0171     Total:     1.2934

*** Psi4 exiting successfully. Buy a developer a beer!
