                               Psi4 1.3.2 release

  ==> Input File <==

--------------------------------------------------------------------------
#psi4
#
memory 32 gb

molecule  {
0 1
  O        1.7627890     2.3683800    -0.1458810
  O        1.6754140    -2.4069960    -0.1279020
  C       -1.0215720    -0.0077180     0.3641480
  C       -2.5139530    -0.0194410     0.5634370
  C       -0.3230660    -1.2073880     0.2343750
  C       -0.3370590     1.2052280     0.2348720
  C       -3.2735700    -0.0197480    -0.7643280
  C        1.0346870     1.2106680    -0.0181020
  C        1.0690359    -1.1801107    -0.0227853
  C        1.7368580     0.0147850    -0.1457440
  H       -2.7927850    -0.9030380     1.1483340
  H       -2.8082890     0.8538600     1.1573130
  H       -0.8312370    -2.1635460     0.3309200
  H       -0.8789600     2.1456520     0.3351900
  H       -3.0230990     0.8672620    -1.3527740
  H       -4.3574070    -0.0294260    -0.6053230
  H       -3.0076490    -0.8981260    -1.3586750
  H        2.8074370     0.0467670    -0.3362510
  H        1.1590650     3.1223080    -0.0299710
  H        2.6187560    -2.2376307    -0.2971689
units angstrom
no_reorient  #important for SAPT in psi4, default
symmetry c1  #important for SAPT in psi4, default
}

set PROPERTIES_ORIGIN ["COM"]
properties('MP2/aug-cc-pvtz', properties = ['dipole'])
--------------------------------------------------------------------------

    Molecular point group: c1
  Charge       = 0
  Multiplicity = 1
  Basis Set: AUG-CC-PVTZ
    Blend: AUG-CC-PVTZ
  Basis Set: (AUG-CC-PVTZ AUX)
    Blend: AUG-CC-PVTZ-JKFIT

    Orbital Energies [Eh]
    ---------------------

    Doubly Occupied:

       1A    -20.596303     2A    -20.594825     3A    -11.311409
       4A    -11.308749     5A    -11.250391     6A    -11.231641
       7A    -11.223171     8A    -11.222435     9A    -11.219382
      10A    -11.217505    11A     -1.406314    12A     -1.403426
      13A     -1.150070    14A     -1.065565    15A     -0.998049
      16A     -0.989376    17A     -0.875683    18A     -0.839177
      19A     -0.807013    20A     -0.739470    21A     -0.689554
      22A     -0.674872    23A     -0.662938    24A     -0.611984
      25A     -0.602848    26A     -0.595997    27A     -0.588246
      28A     -0.577078    29A     -0.553378    30A     -0.549078
      31A     -0.525423    32A     -0.521587    33A     -0.487151
      34A     -0.481184    35A     -0.454006    36A     -0.329178
      37A     -0.308679

  @DF-RHF Final Energy:  -458.65917254513363

   => Energetics <=

    Nuclear Repulsion Energy =            507.5134813512138408
    One-Electron Energy =               -1631.0190409438005190
    Two-Electron Energy =                 664.8463870474530495
    Total Energy =                       -458.6591725451336288
  Basis Set: (AUG-CC-PVTZ AUX)
    Blend: AUG-CC-PVTZ-RI
    Molecular point group: c1

    Geometry (in Angstrom), charge = 0, multiplicity = 1:

       Center              X                  Y                   Z               Mass
    ------------   -----------------  -----------------  -----------------  -----------------
         O            1.760985849643     2.367307932891    -0.145555363415    15.994914619570
         O            1.673610849643    -2.408068067109    -0.127576363415    15.994914619570
         C           -1.023375150357    -0.008790067109     0.364473636585    12.000000000000
         C           -2.515756150357    -0.020513067109     0.563762636585    12.000000000000
         C           -0.324869150357    -1.208460067109     0.234700636585    12.000000000000
         C           -0.338862150357     1.204155932891     0.235197636585    12.000000000000
         C           -3.275373150357    -0.020820067109    -0.764002363415    12.000000000000
         C            1.032883849643     1.209595932891    -0.017776363415    12.000000000000
         C            1.067232749643    -1.181182767109    -0.022459663415    12.000000000000
         C            1.735054849643     0.013712932891    -0.145418363415    12.000000000000
         H           -2.794588150357    -0.904110067109     1.148659636585     1.007825032230
         H           -2.810092150357     0.852787932891     1.157638636585     1.007825032230
         H           -0.833040150357    -2.164618067109     0.331245636585     1.007825032230
         H           -0.880763150357     2.144579932891     0.335515636585     1.007825032230
         H           -3.024902150357     0.866189932891    -1.352448363415     1.007825032230
         H           -4.359210150357    -0.030498067109    -0.604997363415     1.007825032230
         H           -3.009452150357    -0.899198067109    -1.358349363415     1.007825032230
         H            2.805633849643     0.045694932891    -0.335925363415     1.007825032230
         H            1.157261849643     3.121235932891    -0.029645363415     1.007825032230
         H            2.616952849643    -2.238702767109    -0.296843263415     1.007825032230

  Basis Set: AUG-CC-PVTZ
    Blend: AUG-CC-PVTZ
  Basis Set: (AUG-CC-PVTZ AUX)
    Blend: AUG-CC-PVTZ-JKFIT
	 Reference Energy          =    -458.6591725451336288 [Eh]
	 Singles Energy            =      -0.0000000000000000 [Eh]
	 Same-Spin Energy          =      -0.4817700400025274 [Eh]
	 Opposite-Spin Energy      =      -1.5054298655473879 [Eh]
	 Correlation Energy        =      -1.9871999055499152 [Eh]
	 Total Energy              =    -460.6463724506835433 [Eh]

	 ================> DF-SCS-MP2 Energies <==================
	-----------------------------------------------------------
	 SCS Same-Spin Scale       =       0.3333333333333333 [-]
	 SCS Opposite-Spin Scale   =       1.2000000000000000 [-]
	 SCS Same-Spin Energy      =      -0.1605900133341758 [Eh]
	 SCS Opposite-Spin Energy  =      -1.8065158386568654 [Eh]
	 SCS Correlation Energy    =      -1.9671058519910412 [Eh]
	 SCS Total Energy          =    -460.6262783971246790 [Eh]
	-----------------------------------------------------------

  Dipole Moment: [D]
     X:    -0.4757      Y:     1.2413      Z:     0.0059     Total:     1.3294

*** Psi4 exiting successfully. Buy a developer a beer!
