                               Psi4 1.3.2 release

  ==> Input File <==

--------------------------------------------------------------------------
#psi4
#
memory 32 gb

molecule  {
0 1
  O        1.7627890     2.3683800    -0.1458810
  O        1.6754140    -2.4069960    -0.1279020
  C       -1.0215720    -0.0077180     0.3641480
  C       -2.5139530    -0.0194410     0.5634370
  C       -0.3230660    -1.2073880     0.2343750
  C       -0.3370590     1.2052280     0.2348720
  C       -3.2735700    -0.0197480    -0.7643280
  C        1.0346870     1.2106680    -0.0181020
  C        1.0480560    -1.1910380    -0.0190010
  C        1.7368580     0.0147850    -0.1457440
  H       -2.7927850    -0.9030380     1.1483340
  H       -2.8082890     0.8538600     1.1573130
  H       -0.8312370    -2.1635460     0.3309200
  H       -0.8789600     2.1456520     0.3351900
  H       -3.0230990     0.8672620    -1.3527740
  H       -4.3574070    -0.0294260    -0.6053230
  H       -3.0076490    -0.8981260    -1.3586750
  H        2.8074370     0.0467670    -0.3362510
  H        1.1590650     3.1223080    -0.0299710
  H        2.7187413    -2.2387024    -0.3150570
units angstrom
no_reorient  #important for SAPT in psi4, default
symmetry c1  #important for SAPT in psi4, default
}

set PROPERTIES_ORIGIN ["COM"]
properties('MP2/aug-cc-pvtz', properties = ['dipole'])
--------------------------------------------------------------------------

    Molecular point group: c1
  Charge       = 0
  Multiplicity = 1
  Basis Set: AUG-CC-PVTZ
    Blend: AUG-CC-PVTZ
  Basis Set: (AUG-CC-PVTZ AUX)
    Blend: AUG-CC-PVTZ-JKFIT

    Orbital Energies [Eh]
    ---------------------

    Doubly Occupied:

       1A    -20.600437     2A    -20.595358     3A    -11.309977
       4A    -11.307973     5A    -11.251043     6A    -11.231798
       7A    -11.223164     8A    -11.222060     9A    -11.219452
      10A    -11.215480    11A     -1.404508    12A     -1.384350
      13A     -1.148914    14A     -1.063028    15A     -0.998224
      16A     -0.987394    17A     -0.875124    18A     -0.834765
      19A     -0.801142    20A     -0.733155    21A     -0.686442
      22A     -0.669491    23A     -0.660894    24A     -0.611386
      25A     -0.601428    26A     -0.594465    27A     -0.584386
      28A     -0.574407    29A     -0.549932    30A     -0.547415
      31A     -0.522796    32A     -0.519668    33A     -0.487355
      34A     -0.482127    35A     -0.452934    36A     -0.325256
      37A     -0.310533

  @DF-RHF Final Energy:  -458.64665983202661

   => Energetics <=

    Nuclear Repulsion Energy =            506.9473542573649070
    One-Electron Energy =               -1630.0115006092200929
    Two-Electron Energy =                 664.4174865198285715
    Total Energy =                       -458.6466598320266712
  Basis Set: (AUG-CC-PVTZ AUX)
    Blend: AUG-CC-PVTZ-RI
    Molecular point group: c1

    Geometry (in Angstrom), charge = 0, multiplicity = 1:

       Center              X                  Y                   Z               Mass
    ------------   -----------------  -----------------  -----------------  -----------------
         O            1.762079448629     2.368265487211    -0.145753696912    15.994914619570
         O            1.674704448629    -2.407110512789    -0.127774696912    15.994914619570
         C           -1.022281551371    -0.007832512789     0.364275303088    12.000000000000
         C           -2.514662551371    -0.019555512789     0.563564303088    12.000000000000
         C           -0.323775551371    -1.207502512789     0.234502303088    12.000000000000
         C           -0.337768551371     1.205113487211     0.234999303088    12.000000000000
         C           -3.274279551371    -0.019862512789    -0.764200696912    12.000000000000
         C            1.033977448629     1.210553487211    -0.017974696912    12.000000000000
         C            1.047346448629    -1.191152512789    -0.018873696912    12.000000000000
         C            1.736148448629     0.014670487211    -0.145616696912    12.000000000000
         H           -2.793494551371    -0.903152512789     1.148461303088     1.007825032230
         H           -2.808998551371     0.853745487211     1.157440303088     1.007825032230
         H           -0.831946551371    -2.163660512789     0.331047303088     1.007825032230
         H           -0.879669551371     2.145537487211     0.335317303088     1.007825032230
         H           -3.023808551371     0.867147487211    -1.352646696912     1.007825032230
         H           -4.358116551371    -0.029540512789    -0.605195696912     1.007825032230
         H           -3.008358551371    -0.898240512789    -1.358547696912     1.007825032230
         H            2.806727448629     0.046652487211    -0.336123696912     1.007825032230
         H            1.158355448629     3.122193487211    -0.029843696912     1.007825032230
         H            2.718031748629    -2.238816912789    -0.314929696912     1.007825032230

  Basis Set: AUG-CC-PVTZ
    Blend: AUG-CC-PVTZ
  Basis Set: (AUG-CC-PVTZ AUX)
    Blend: AUG-CC-PVTZ-JKFIT
	 Reference Energy          =    -458.6466598320266144 [Eh]
	 Singles Energy            =      -0.0000000000000000 [Eh]
	 Same-Spin Energy          =      -0.4829613308943337 [Eh]
	 Opposite-Spin Energy      =      -1.5084857237961340 [Eh]
	 Correlation Energy        =      -1.9914470546904677 [Eh]
	 Total Energy              =    -460.6381068867170825 [Eh]

	 ================> DF-SCS-MP2 Energies <==================
	-----------------------------------------------------------
	 SCS Same-Spin Scale       =       0.3333333333333333 [-]
	 SCS Opposite-Spin Scale   =       1.2000000000000000 [-]
	 SCS Same-Spin Energy      =      -0.1609871102981112 [Eh]
	 SCS Opposite-Spin Energy  =      -1.8101828685553607 [Eh]
	 SCS Correlation Energy    =      -1.9711699788534720 [Eh]
	 SCS Total Energy          =    -460.6178298108800959 [Eh]
	-----------------------------------------------------------

  Dipole Moment: [D]
     X:    -0.3955      Y:     1.1949      Z:    -0.0082     Total:     1.2587

*** Psi4 exiting successfully. Buy a developer a beer!
