                               Psi4 1.4a3.dev225

  ==> Input File <==

--------------------------------------------------------------------------
#psi4
#
memory 32 gb

molecule  {
0 1
  O       -1.8116000     2.3801270     0.1363720
  O       -1.7799440    -2.3994320     0.1189850
  C        0.9489570    -0.0306590    -0.3689570
  C        2.4429910    -0.0568610    -0.5708560
  C        0.2354480    -1.2220220    -0.2373930
  C        0.2798030     1.1938580    -0.2383990
  C        3.1984060    -0.0265600     0.7613490
  C       -1.0921630     1.2139390     0.0079710
  C       -1.0904378    -1.1883648     0.0013675
  C       -1.8132500     0.0254130     0.1385790
  H        2.7180680    -0.9584190    -1.1301260
  H        2.7446220     0.7994920    -1.1857830
  H        0.7258350    -2.1872220    -0.3369480
  H        0.8309290     2.1284970    -0.3452230
  H        2.9508560     0.8787730     1.3230630
  H        4.2811760    -0.0477390     0.6027570
  H        2.9230980    -0.8883860     1.3756490
  H       -2.8837580     0.0741080     0.3259950
  H       -1.1979550     3.1274200     0.0245130
  H       -2.7238770    -2.2320380     0.2881370
units angstrom
no_reorient  #important for SAPT in psi4, default
symmetry c1  #important for SAPT in psi4, default
}

set PROPERTIES_ORIGIN ["COM"]
properties('MP2/aug-cc-pvtz', properties = ['dipole'])
--------------------------------------------------------------------------

    Molecular point group: c1
  Charge       = 0
  Multiplicity = 1
  Basis Set: AUG-CC-PVTZ
    Blend: AUG-CC-PVTZ
  Basis Set: (AUG-CC-PVTZ AUX)
    Blend: AUG-CC-PVTZ-JKFIT

    Orbital Energies [Eh]
    ---------------------

    Doubly Occupied:

       1A    -20.595517     2A    -20.586663     3A    -11.310530
       4A    -11.306734     5A    -11.255061     6A    -11.234152
       7A    -11.226617     8A    -11.225535     9A    -11.221210
      10A    -11.213904    11A     -1.403666    12A     -1.387213
      13A     -1.153885    14A     -1.062966    15A     -1.010207
      16A     -0.986263    17A     -0.878908    18A     -0.831913
      19A     -0.807498    20A     -0.737075    21A     -0.686685
      22A     -0.673407    23A     -0.667682    24A     -0.612152
      25A     -0.601558    26A     -0.593903    27A     -0.586112
      28A     -0.570745    29A     -0.555008    30A     -0.549121
      31A     -0.524274    32A     -0.516901    33A     -0.490209
      34A     -0.486170    35A     -0.455619    36A     -0.322438
      37A     -0.319199

  @DF-RHF Final Energy:  -458.65629689508091

   => Energetics <=

    Nuclear Repulsion Energy =            507.3264963679457082
    One-Electron Energy =               -1630.6721889679990909
    Two-Electron Energy =                 664.6893957049724122
    Total Energy =                       -458.6562968950809136
  Basis Set: (AUG-CC-PVTZ AUX)
    Blend: AUG-CC-PVTZ-RI
    Molecular point group: c1

    Geometry (in Angstrom), charge = 0, multiplicity = 1:

       Center              X                  Y                   Z               Mass
    ------------   -----------------  -----------------  -----------------  -----------------
         O           -1.741495037644     2.385225521350     0.143920762497    15.994914619570
         O           -1.709839037644    -2.394333478650     0.126533762497    15.994914619570
         C            1.019061962356    -0.025560478650    -0.361408237503    12.000000000000
         C            2.513095962356    -0.051762478650    -0.563307237503    12.000000000000
         C            0.305552962356    -1.216923478650    -0.229844237503    12.000000000000
         C            0.349907962356     1.198956521350    -0.230850237503    12.000000000000
         C            3.268510962356    -0.021461478650     0.768897762497    12.000000000000
         C           -1.022058037644     1.219037521350     0.015519762497    12.000000000000
         C           -1.020332837644    -1.183266278650     0.008916262497    12.000000000000
         C           -1.743145037644     0.030511521350     0.146127762497    12.000000000000
         H            2.788172962356    -0.953320478650    -1.122577237503     1.007825032230
         H            2.814726962356     0.804590521350    -1.178234237503     1.007825032230
         H            0.795939962356    -2.182123478650    -0.329399237503     1.007825032230
         H            0.901033962356     2.133595521350    -0.337674237503     1.007825032230
         H            3.020960962356     0.883871521350     1.330611762497     1.007825032230
         H            4.351280962356    -0.042640478650     0.610305762497     1.007825032230
         H            2.993202962356    -0.883287478650     1.383197762497     1.007825032230
         H           -2.813653037644     0.079206521350     0.333543762497     1.007825032230
         H           -1.127850037644     3.132518521350     0.032061762497     1.007825032230
         H           -2.653772037644    -2.226939478650     0.295685762497     1.007825032230

  Basis Set: AUG-CC-PVTZ
    Blend: AUG-CC-PVTZ
  Basis Set: (AUG-CC-PVTZ AUX)
    Blend: AUG-CC-PVTZ-JKFIT
	 Reference Energy          =    -458.6562968950809136 [Eh]
	 Singles Energy            =      -0.0000000000000000 [Eh]
	 Same-Spin Energy          =      -0.4817492999772054 [Eh]
	 Opposite-Spin Energy      =      -1.5057040697686053 [Eh]
	 Correlation Energy        =      -1.9874533697458108 [Eh]
	 Total Energy              =    -460.6437502648267355 [Eh]

	 ================> DF-SCS-MP2 Energies <==================
	-----------------------------------------------------------
	 SCS Same-Spin Scale       =       0.3333333333333333 [-]
	 SCS Opposite-Spin Scale   =       1.2000000000000000 [-]
	 SCS Same-Spin Energy      =      -0.1605830999924018 [Eh]
	 SCS Opposite-Spin Energy  =      -1.8068448837223263 [Eh]
	 SCS Correlation Energy    =      -1.9674279837147282 [Eh]
	 SCS Total Energy          =    -460.6237248787956560 [Eh]
	-----------------------------------------------------------

  Dipole Moment: [D]
     X:     0.6895      Y:     1.3673      Z:    -0.0414     Total:     1.5319

*** Psi4 exiting successfully. Buy a developer a beer!
