                               Psi4 1.3.2 release

  ==> Input File <==

--------------------------------------------------------------------------
#psi4
#
memory 32 gb

molecule  {
0 1
  O        1.8020536     2.3418774    -0.1532720
  O        1.6754140    -2.4069960    -0.1279020
  C       -1.0215720    -0.0077180     0.3641480
  C       -2.5139530    -0.0194410     0.5634370
  C       -0.3230660    -1.2073880     0.2343750
  C       -0.3360855     1.1565515     0.2344186
  C       -3.2735700    -0.0197480    -0.7643280
  C        1.0346870     1.2106680    -0.0181020
  C        1.0480560    -1.1910380    -0.0190010
  C        1.7368580     0.0147850    -0.1457440
  H       -2.7927850    -0.9030380     1.1483340
  H       -2.8082890     0.8538600     1.1573130
  H       -0.8312370    -2.1635460     0.3309200
  H       -0.8789600     2.1456520     0.3351900
  H       -3.0230990     0.8672620    -1.3527740
  H       -4.3574070    -0.0294260    -0.6053230
  H       -3.0076490    -0.8981260    -1.3586750
  H        2.8074370     0.0467670    -0.3362510
  H        1.1590650     3.1223080    -0.0299710
  H        2.6215300    -2.2543830    -0.2976190
units angstrom
no_reorient  #important for SAPT in psi4, default
symmetry c1  #important for SAPT in psi4, default
}

set PROPERTIES_ORIGIN ["COM"]
properties('MP2/aug-cc-pvtz', properties = ['dipole'])
--------------------------------------------------------------------------

    Molecular point group: c1
  Charge       = 0
  Multiplicity = 1
  Basis Set: AUG-CC-PVTZ
    Blend: AUG-CC-PVTZ
  Basis Set: (AUG-CC-PVTZ AUX)
    Blend: AUG-CC-PVTZ-JKFIT

    Orbital Energies [Eh]
    ---------------------

    Doubly Occupied:

       1A    -20.603764     2A    -20.591660     3A    -11.309880
       4A    -11.306379     5A    -11.246276     6A    -11.232440
       7A    -11.224681     8A    -11.222736     9A    -11.219732
      10A    -11.214903    11A     -1.401902    12A     -1.398686
      13A     -1.155165    14A     -1.064124    15A     -0.999688
      16A     -0.989901    17A     -0.875909    18A     -0.832257
      19A     -0.808483    20A     -0.741552    21A     -0.685093
      22A     -0.668137    23A     -0.660657    24A     -0.613483
      25A     -0.602822    26A     -0.594856    27A     -0.587736
      28A     -0.576213    29A     -0.553392    30A     -0.549284
      31A     -0.522595    32A     -0.514881    33A     -0.488913
      34A     -0.482395    35A     -0.457101    36A     -0.328354
      37A     -0.310359

  @DF-RHF Final Energy:  -458.65086962020087

   => Energetics <=

    Nuclear Repulsion Energy =            508.0832409064552166
    One-Electron Energy =               -1632.1954477253466393
    Two-Electron Energy =                 665.4613371986906714
    Total Energy =                       -458.6508696202008650
  Basis Set: (AUG-CC-PVTZ AUX)
    Blend: AUG-CC-PVTZ-RI
    Molecular point group: c1

    Geometry (in Angstrom), charge = 0, multiplicity = 1:

       Center              X                  Y                   Z               Mass
    ------------   -----------------  -----------------  -----------------  -----------------
         O            1.797420303584     2.349178273364    -0.152376345810    15.994914619570
         O            1.670780703584    -2.399695126636    -0.127006345810    15.994914619570
         C           -1.026205296416    -0.000417126636     0.365043654190    12.000000000000
         C           -2.518586296416    -0.012140126636     0.564332654190    12.000000000000
         C           -0.327699296416    -1.200087126636     0.235270654190    12.000000000000
         C           -0.340718796416     1.163852373364     0.235314254190    12.000000000000
         C           -3.278203296416    -0.012447126636    -0.763432345810    12.000000000000
         C            1.030053703584     1.217968873364    -0.017206345810    12.000000000000
         C            1.043422703584    -1.183737126636    -0.018105345810    12.000000000000
         C            1.732224703584     0.022085873364    -0.144848345810    12.000000000000
         H           -2.797418296416    -0.895737126636     1.149229654190     1.007825032230
         H           -2.812922296416     0.861160873364     1.158208654190     1.007825032230
         H           -0.835870296416    -2.156245126636     0.331815654190     1.007825032230
         H           -0.883593296416     2.152952873364     0.336085654190     1.007825032230
         H           -3.027732296416     0.874562873364    -1.351878345810     1.007825032230
         H           -4.362040296416    -0.022125126636    -0.604427345810     1.007825032230
         H           -3.012282296416    -0.890825126636    -1.357779345810     1.007825032230
         H            2.802803703584     0.054067873364    -0.335355345810     1.007825032230
         H            1.154431703584     3.129608873364    -0.029075345810     1.007825032230
         H            2.616896703584    -2.247082126636    -0.296723345810     1.007825032230

  Basis Set: AUG-CC-PVTZ
    Blend: AUG-CC-PVTZ
  Basis Set: (AUG-CC-PVTZ AUX)
    Blend: AUG-CC-PVTZ-JKFIT
	 Reference Energy          =    -458.6508696202008650 [Eh]
	 Singles Energy            =      -0.0000000000000000 [Eh]
	 Same-Spin Energy          =      -0.4828472318950673 [Eh]
	 Opposite-Spin Energy      =      -1.5074437014521513 [Eh]
	 Correlation Energy        =      -1.9902909333472185 [Eh]
	 Total Energy              =    -460.6411605535481044 [Eh]

	 ================> DF-SCS-MP2 Energies <==================
	-----------------------------------------------------------
	 SCS Same-Spin Scale       =       0.3333333333333333 [-]
	 SCS Opposite-Spin Scale   =       1.2000000000000000 [-]
	 SCS Same-Spin Energy      =      -0.1609490772983558 [Eh]
	 SCS Opposite-Spin Energy  =      -1.8089324417425816 [Eh]
	 SCS Correlation Energy    =      -1.9698815190409373 [Eh]
	 SCS Total Energy          =    -460.6207511392418041 [Eh]
	-----------------------------------------------------------

  Dipole Moment: [D]
     X:    -0.5151      Y:     1.3015      Z:     0.0108     Total:     1.3998

*** Psi4 exiting successfully. Buy a developer a beer!
