                               Psi4 1.3.2 release

  ==> Input File <==

--------------------------------------------------------------------------
#psi4
#
memory 32 gb

molecule  {
0 1
  O        1.8214253     2.3281054    -0.1564263
  O        1.6754140    -2.4069960    -0.1279020
  C       -1.0215720    -0.0077180     0.3641480
  C       -2.5139530    -0.0194410     0.5634370
  C       -0.3230660    -1.2073880     0.2343750
  C       -0.3370590     1.2052280     0.2348720
  C       -3.2735700    -0.0197480    -0.7643280
  C        1.0346870     1.2106680    -0.0181020
  C        1.0480560    -1.1910380    -0.0190010
  C        1.7975216     0.0537747    -0.1564999
  H       -2.7927850    -0.9030380     1.1483340
  H       -2.8082890     0.8538600     1.1573130
  H       -0.8312370    -2.1635460     0.3309200
  H       -0.8789600     2.1456520     0.3351900
  H       -3.0230990     0.8672620    -1.3527740
  H       -4.3574070    -0.0294260    -0.6053230
  H       -3.0076490    -0.8981260    -1.3586750
  H        2.8074370     0.0467670    -0.3362510
  H        1.1590650     3.1223080    -0.0299710
  H        2.6215300    -2.2543830    -0.2976190
units angstrom
no_reorient  #important for SAPT in psi4, default
symmetry c1  #important for SAPT in psi4, default
}

set PROPERTIES_ORIGIN ["COM"]
properties('MP2/aug-cc-pvtz', properties = ['dipole'])
--------------------------------------------------------------------------

    Molecular point group: c1
  Charge       = 0
  Multiplicity = 1
  Basis Set: AUG-CC-PVTZ
    Blend: AUG-CC-PVTZ
  Basis Set: (AUG-CC-PVTZ AUX)
    Blend: AUG-CC-PVTZ-JKFIT

    Orbital Energies [Eh]
    ---------------------

    Doubly Occupied:

       1A    -20.600003     2A    -20.593941     3A    -11.315713
       4A    -11.309129     5A    -11.254349     6A    -11.233303
       7A    -11.223989     8A    -11.221752     9A    -11.220635
      10A    -11.216011    11A     -1.402630    12A     -1.393318
      13A     -1.145732    14A     -1.059612    15A     -0.998840
      16A     -0.987185    17A     -0.879973    18A     -0.825961
      19A     -0.805361    20A     -0.735369    21A     -0.691784
      22A     -0.668516    23A     -0.659067    24A     -0.612667
      25A     -0.602431    26A     -0.596064    27A     -0.589824
      28A     -0.574904    29A     -0.557355    30A     -0.548980
      31A     -0.525758    32A     -0.512129    33A     -0.488852
      34A     -0.486055    35A     -0.450780    36A     -0.321154
      37A     -0.311025

  @DF-RHF Final Energy:  -458.64189733703273

   => Energetics <=

    Nuclear Repulsion Energy =            506.1948512527236517
    One-Electron Energy =               -1628.4331863374829936
    Two-Electron Energy =                 663.5964377477266680
    Total Energy =                       -458.6418973370327876
  Basis Set: (AUG-CC-PVTZ AUX)
    Blend: AUG-CC-PVTZ-RI
    Molecular point group: c1

    Geometry (in Angstrom), charge = 0, multiplicity = 1:

       Center              X                  Y                   Z               Mass
    ------------   -----------------  -----------------  -----------------  -----------------
         O            1.809359946220     2.329382343441    -0.154269798555    15.994914619570
         O            1.663348646220    -2.405719056559    -0.125745498555    15.994914619570
         C           -1.033637353780    -0.006441056559     0.366304501445    12.000000000000
         C           -2.526018353780    -0.018164056559     0.565593501445    12.000000000000
         C           -0.335131353780    -1.206111056559     0.236531501445    12.000000000000
         C           -0.349124353780     1.206504943441     0.237028501445    12.000000000000
         C           -3.285635353780    -0.018471056559    -0.762171498555    12.000000000000
         C            1.022621646220     1.211944943441    -0.015945498555    12.000000000000
         C            1.035990646220    -1.189761056559    -0.016844498555    12.000000000000
         C            1.785456246220     0.055051643441    -0.154343398555    12.000000000000
         H           -2.804850353780    -0.901761056559     1.150490501445     1.007825032230
         H           -2.820354353780     0.855136943441     1.159469501445     1.007825032230
         H           -0.843302353780    -2.162269056559     0.333076501445     1.007825032230
         H           -0.891025353780     2.146928943441     0.337346501445     1.007825032230
         H           -3.035164353780     0.868538943441    -1.350617498555     1.007825032230
         H           -4.369472353780    -0.028149056559    -0.603166498555     1.007825032230
         H           -3.019714353780    -0.896849056559    -1.356518498555     1.007825032230
         H            2.795371646220     0.048043943441    -0.334094498555     1.007825032230
         H            1.146999646220     3.123584943441    -0.027814498555     1.007825032230
         H            2.609464646220    -2.253106056559    -0.295462498555     1.007825032230

  Basis Set: AUG-CC-PVTZ
    Blend: AUG-CC-PVTZ
  Basis Set: (AUG-CC-PVTZ AUX)
    Blend: AUG-CC-PVTZ-JKFIT
	 Reference Energy          =    -458.6418973370327308 [Eh]
	 Singles Energy            =      -0.0000000000000000 [Eh]
	 Same-Spin Energy          =      -0.4827604049061078 [Eh]
	 Opposite-Spin Energy      =      -1.5085222737654693 [Eh]
	 Correlation Energy        =      -1.9912826786715772 [Eh]
	 Total Energy              =    -460.6331800157042835 [Eh]

	 ================> DF-SCS-MP2 Energies <==================
	-----------------------------------------------------------
	 SCS Same-Spin Scale       =       0.3333333333333333 [-]
	 SCS Opposite-Spin Scale   =       1.2000000000000000 [-]
	 SCS Same-Spin Energy      =      -0.1609201349687026 [Eh]
	 SCS Opposite-Spin Energy  =      -1.8102267285185631 [Eh]
	 SCS Correlation Energy    =      -1.9711468634872658 [Eh]
	 SCS Total Energy          =    -460.6130442005199939 [Eh]
	-----------------------------------------------------------

  Dipole Moment: [D]
     X:    -0.5559      Y:     1.1934      Z:     0.0156     Total:     1.3166

*** Psi4 exiting successfully. Buy a developer a beer!
