                               Psi4 1.3.2 release

  ==> Input File <==

--------------------------------------------------------------------------
#psi4
#
memory 32 gb

molecule  {
0 1
  O        1.7627890     2.3683800    -0.1458810
  O        1.6754140    -2.4069960    -0.1279020
  C       -1.0215720    -0.0077180     0.3641480
  C       -2.7121873    -0.0209982     0.5899087
  C       -0.3230660    -1.2073880     0.2343750
  C       -0.3370590     1.2052280     0.2348720
  C       -3.2735700    -0.0197480    -0.7643280
  C        1.0346870     1.2106680    -0.0181020
  C        1.0480560    -1.1910380    -0.0190010
  C        1.7368580     0.0147850    -0.1457440
  H       -2.7927850    -0.9030380     1.1483340
  H       -2.8082890     0.8538600     1.1573130
  H       -0.8312370    -2.1635460     0.3309200
  H       -0.8789600     2.1456520     0.3351900
  H       -3.0230990     0.8672620    -1.3527740
  H       -4.3574070    -0.0294260    -0.6053230
  H       -3.0076490    -0.8981260    -1.3586750
  H        2.8074370     0.0467670    -0.3362510
  H        1.1590650     3.1223080    -0.0299710
  H        2.6215300    -2.2543830    -0.2976190
units angstrom
no_reorient  #important for SAPT in psi4, default
symmetry c1  #important for SAPT in psi4, default
}

set PROPERTIES_ORIGIN ["COM"]
properties('MP2/aug-cc-pvtz', properties = ['dipole'])
--------------------------------------------------------------------------

    Molecular point group: c1
  Charge       = 0
  Multiplicity = 1
  Basis Set: AUG-CC-PVTZ
    Blend: AUG-CC-PVTZ
  Basis Set: (AUG-CC-PVTZ AUX)
    Blend: AUG-CC-PVTZ-JKFIT

    Orbital Energies [Eh]
    ---------------------

    Doubly Occupied:

       1A    -20.594245     2A    -20.591866     3A    -11.308777
       4A    -11.307076     5A    -11.253753     6A    -11.236837
       7A    -11.221899     8A    -11.220975     9A    -11.218583
      10A    -11.214074    11A     -1.403918    12A     -1.400405
      13A     -1.142333    14A     -1.061083    15A     -0.998949
      16A     -0.994671    17A     -0.866197    18A     -0.833745
      19A     -0.813460    20A     -0.737313    21A     -0.685412
      22A     -0.673406    23A     -0.662831    24A     -0.621881
      25A     -0.601245    26A     -0.591774    27A     -0.586368
      28A     -0.575045    29A     -0.558900    30A     -0.550905
      31A     -0.536289    32A     -0.519663    33A     -0.506649
      34A     -0.457300    35A     -0.428405    36A     -0.325735
      37A     -0.309362

  @DF-RHF Final Energy:  -458.63127351084523

   => Energetics <=

    Nuclear Repulsion Energy =            504.7684206552689830
    One-Electron Energy =               -1625.5767370774392475
    Two-Electron Energy =                 662.1770429113249747
    Total Energy =                       -458.6312735108452898
  Basis Set: (AUG-CC-PVTZ AUX)
    Blend: AUG-CC-PVTZ-RI
    Molecular point group: c1

    Geometry (in Angstrom), charge = 0, multiplicity = 1:

       Center              X                  Y                   Z               Mass
    ------------   -----------------  -----------------  -----------------  -----------------
         O            1.780018305963     2.368515289347    -0.148181737151    15.994914619570
         O            1.692643305963    -2.406860710653    -0.130202737151    15.994914619570
         C           -1.004342694037    -0.007582710653     0.361847262849    12.000000000000
         C           -2.694957994037    -0.020862910653     0.587607962849    12.000000000000
         C           -0.305836694037    -1.207252710653     0.232074262849    12.000000000000
         C           -0.319829694037     1.205363289347     0.232571262849    12.000000000000
         C           -3.256340694037    -0.019612710653    -0.766628737151    12.000000000000
         C            1.051916305963     1.210803289347    -0.020402737151    12.000000000000
         C            1.065285305963    -1.190902710653    -0.021301737151    12.000000000000
         C            1.754087305963     0.014920289347    -0.148044737151    12.000000000000
         H           -2.775555694037    -0.902902710653     1.146033262849     1.007825032230
         H           -2.791059694037     0.853995289347     1.155012262849     1.007825032230
         H           -0.814007694037    -2.163410710653     0.328619262849     1.007825032230
         H           -0.861730694037     2.145787289347     0.332889262849     1.007825032230
         H           -3.005869694037     0.867397289347    -1.355074737151     1.007825032230
         H           -4.340177694037    -0.029290710653    -0.607623737151     1.007825032230
         H           -2.990419694037    -0.897990710653    -1.360975737151     1.007825032230
         H            2.824666305963     0.046902289347    -0.338551737151     1.007825032230
         H            1.176294305963     3.122443289347    -0.032271737151     1.007825032230
         H            2.638759305963    -2.254247710653    -0.299919737151     1.007825032230

  Basis Set: AUG-CC-PVTZ
    Blend: AUG-CC-PVTZ
  Basis Set: (AUG-CC-PVTZ AUX)
    Blend: AUG-CC-PVTZ-JKFIT
	 Reference Energy          =    -458.6312735108452330 [Eh]
	 Singles Energy            =      -0.0000000000000000 [Eh]
	 Same-Spin Energy          =      -0.4820558741109083 [Eh]
	 Opposite-Spin Energy      =      -1.5066276295119163 [Eh]
	 Correlation Energy        =      -1.9886835036228245 [Eh]
	 Total Energy              =    -460.6199570144680706 [Eh]

	 ================> DF-SCS-MP2 Energies <==================
	-----------------------------------------------------------
	 SCS Same-Spin Scale       =       0.3333333333333333 [-]
	 SCS Opposite-Spin Scale   =       1.2000000000000000 [-]
	 SCS Same-Spin Energy      =      -0.1606852913703027 [Eh]
	 SCS Opposite-Spin Energy  =      -1.8079531554142996 [Eh]
	 SCS Correlation Energy    =      -1.9686384467846023 [Eh]
	 SCS Total Energy          =    -460.5999119576298426 [Eh]
	-----------------------------------------------------------

  Dipole Moment: [D]
     X:    -0.5959      Y:     1.2213      Z:    -0.0090     Total:     1.3590

*** Psi4 exiting successfully. Buy a developer a beer!
