                               Psi4 1.3.2 release

  ==> Input File <==

--------------------------------------------------------------------------
#psi4
#
memory 32 gb

molecule  {
0 1
  O        1.7627890     2.3683800    -0.1458810
  O        1.6754140    -2.4069960    -0.1279020
  C       -1.0215720    -0.0077180     0.3641480
  C       -2.5128397     0.0593355     0.5608183
  C       -0.3230660    -1.2073880     0.2343750
  C       -0.4011011     1.2399526     0.2423193
  C       -3.2735700    -0.0197480    -0.7643280
  C        1.0346870     1.2106680    -0.0181020
  C        1.0480560    -1.1910380    -0.0190010
  C        1.7368580     0.0147850    -0.1457440
  H       -2.7927850    -0.9030380     1.1483340
  H       -2.8082890     0.8538600     1.1573130
  H       -0.8312370    -2.1635460     0.3309200
  H       -0.8789600     2.1456520     0.3351900
  H       -3.0230990     0.8672620    -1.3527740
  H       -4.3574070    -0.0294260    -0.6053230
  H       -3.0076490    -0.8981260    -1.3586750
  H        2.8074370     0.0467670    -0.3362510
  H        1.1590650     3.1223080    -0.0299710
  H        2.6215300    -2.2543830    -0.2976190
units angstrom
no_reorient  #important for SAPT in psi4, default
symmetry c1  #important for SAPT in psi4, default
}

set PROPERTIES_ORIGIN ["COM"]
properties('MP2/aug-cc-pvtz', properties = ['dipole'])
--------------------------------------------------------------------------

    Molecular point group: c1
  Charge       = 0
  Multiplicity = 1
  Basis Set: AUG-CC-PVTZ
    Blend: AUG-CC-PVTZ
  Basis Set: (AUG-CC-PVTZ AUX)
    Blend: AUG-CC-PVTZ-JKFIT

    Orbital Energies [Eh]
    ---------------------

    Doubly Occupied:

       1A    -20.597280     2A    -20.595212     3A    -11.318516
       4A    -11.311579     5A    -11.251982     6A    -11.230555
       7A    -11.224825     8A    -11.222808     9A    -11.218924
      10A    -11.215747    11A     -1.406433    12A     -1.403411
      13A     -1.146253    14A     -1.063913    15A     -0.996957
      16A     -0.987802    17A     -0.873655    18A     -0.842097
      19A     -0.807215    20A     -0.734186    21A     -0.693087
      22A     -0.676305    23A     -0.673090    24A     -0.608698
      25A     -0.603138    26A     -0.597927    27A     -0.585544
      28A     -0.576876    29A     -0.558540    30A     -0.549803
      31A     -0.531269    32A     -0.522731    33A     -0.490667
      34A     -0.464447    35A     -0.449044    36A     -0.328656
      37A     -0.306071

  @DF-RHF Final Energy:  -458.64522573255653

   => Energetics <=

    Nuclear Repulsion Energy =            506.5533550031164509
    One-Electron Energy =               -1629.0666760793342291
    Two-Electron Energy =                 663.8680953436612526
    Total Energy =                       -458.6452257325565824
  Basis Set: (AUG-CC-PVTZ AUX)
    Blend: AUG-CC-PVTZ-RI
    Molecular point group: c1

    Geometry (in Angstrom), charge = 0, multiplicity = 1:

       Center              X                  Y                   Z               Mass
    ------------   -----------------  -----------------  -----------------  -----------------
         O            1.768258411821     2.358515153151    -0.146300656449    15.994914619570
         O            1.680883411821    -2.416860846849    -0.128321656449    15.994914619570
         C           -1.016102588179    -0.017582846849     0.363728343551    12.000000000000
         C           -2.507370288179     0.049470653151     0.560398643551    12.000000000000
         C           -0.317596588179    -1.217252846849     0.233955343551    12.000000000000
         C           -0.395631688179     1.230087753151     0.241899643551    12.000000000000
         C           -3.268100588179    -0.029612846849    -0.764747656449    12.000000000000
         C            1.040156411821     1.200803153151    -0.018521656449    12.000000000000
         C            1.053525411821    -1.200902846849    -0.019420656449    12.000000000000
         C            1.742327411821     0.004920153151    -0.146163656449    12.000000000000
         H           -2.787315588179    -0.912902846849     1.147914343551     1.007825032230
         H           -2.802819588179     0.843995153151     1.156893343551     1.007825032230
         H           -0.825767588179    -2.173410846849     0.330500343551     1.007825032230
         H           -0.873490588179     2.135787153151     0.334770343551     1.007825032230
         H           -3.017629588179     0.857397153151    -1.353193656449     1.007825032230
         H           -4.351937588179    -0.039290846849    -0.605742656449     1.007825032230
         H           -3.002179588179    -0.907990846849    -1.359094656449     1.007825032230
         H            2.812906411821     0.036902153151    -0.336670656449     1.007825032230
         H            1.164534411821     3.112443153151    -0.030390656449     1.007825032230
         H            2.626999411821    -2.264247846849    -0.298038656449     1.007825032230

  Basis Set: AUG-CC-PVTZ
    Blend: AUG-CC-PVTZ
  Basis Set: (AUG-CC-PVTZ AUX)
    Blend: AUG-CC-PVTZ-JKFIT
	 Reference Energy          =    -458.6452257325565256 [Eh]
	 Singles Energy            =      -0.0000000000000000 [Eh]
	 Same-Spin Energy          =      -0.4817327798576087 [Eh]
	 Opposite-Spin Energy      =      -1.5060205950612198 [Eh]
	 Correlation Energy        =      -1.9877533749188285 [Eh]
	 Total Energy              =    -460.6329791074753643 [Eh]

	 ================> DF-SCS-MP2 Energies <==================
	-----------------------------------------------------------
	 SCS Same-Spin Scale       =       0.3333333333333333 [-]
	 SCS Opposite-Spin Scale   =       1.2000000000000000 [-]
	 SCS Same-Spin Energy      =      -0.1605775932858695 [Eh]
	 SCS Opposite-Spin Energy  =      -1.8072247140734636 [Eh]
	 SCS Correlation Energy    =      -1.9678023073593331 [Eh]
	 SCS Total Energy          =    -460.6130280399158323 [Eh]
	-----------------------------------------------------------

  Dipole Moment: [D]
     X:    -0.3825      Y:     1.3237      Z:    -0.0096     Total:     1.3778

*** Psi4 exiting successfully. Buy a developer a beer!
