                               Psi4 1.4a3.dev225

  ==> Input File <==

--------------------------------------------------------------------------
#psi4
#
memory 32 gb

molecule  {
0 1
  O       -1.8116000     2.3801270     0.1363720
  O       -1.7799440    -2.3994320     0.1189850
  C        0.9489570    -0.0306590    -0.3689570
  C        2.4429910    -0.0568610    -0.5708560
  C        0.2354480    -1.2220220    -0.2373930
  C        0.2798030     1.1938580    -0.2383990
  C        3.1984060    -0.0265600     0.7613490
  C       -1.0921630     1.2139390     0.0079710
  C       -1.1396310    -1.1871160     0.0102260
  C       -1.8390716    -0.0171472     0.1432560
  H        2.7180680    -0.9584190    -1.1301260
  H        2.7446220     0.7994920    -1.1857830
  H        0.7258350    -2.1872220    -0.3369480
  H        0.8309290     2.1284970    -0.3452230
  H        2.9508560     0.8787730     1.3230630
  H        4.2811760    -0.0477390     0.6027570
  H        2.9230980    -0.8883860     1.3756490
  H       -2.8837580     0.0741080     0.3259950
  H       -1.1979550     3.1274200     0.0245130
  H       -2.7238770    -2.2320380     0.2881370
units angstrom
no_reorient  #important for SAPT in psi4, default
symmetry c1  #important for SAPT in psi4, default
}

set PROPERTIES_ORIGIN ["COM"]
properties('MP2/aug-cc-pvtz', properties = ['dipole'])
--------------------------------------------------------------------------

    Molecular point group: c1
  Charge       = 0
  Multiplicity = 1
  Basis Set: AUG-CC-PVTZ
    Blend: AUG-CC-PVTZ
  Basis Set: (AUG-CC-PVTZ AUX)
    Blend: AUG-CC-PVTZ-JKFIT

    Orbital Energies [Eh]
    ---------------------

    Doubly Occupied:

       1A    -20.597990     2A    -20.589488     3A    -11.317458
       4A    -11.306045     5A    -11.253100     6A    -11.232937
       7A    -11.224641     8A    -11.223791     9A    -11.220158
      10A    -11.216826    11A     -1.405124    12A     -1.399264
      13A     -1.147995    14A     -1.062313    15A     -1.000355
      16A     -0.987490    17A     -0.876981    18A     -0.835622
      19A     -0.807988    20A     -0.738568    21A     -0.687118
      22A     -0.675688    23A     -0.666144    24A     -0.612182
      25A     -0.602337    26A     -0.595827    27A     -0.585983
      28A     -0.575328    29A     -0.556844    30A     -0.547178
      31A     -0.523432    32A     -0.519043    33A     -0.488565
      34A     -0.483773    35A     -0.452432    36A     -0.326821
      37A     -0.309949

  @DF-RHF Final Energy:  -458.65665853357075

   => Energetics <=

    Nuclear Repulsion Energy =            506.6445095480834766
    One-Electron Energy =               -1629.2967909143296765
    Two-Electron Energy =                 663.9956228326753944
    Total Energy =                       -458.6566585335707487
  Basis Set: (AUG-CC-PVTZ AUX)
    Blend: AUG-CC-PVTZ-RI
    Molecular point group: c1

    Geometry (in Angstrom), charge = 0, multiplicity = 1:

       Center              X                  Y                   Z               Mass
    ------------   -----------------  -----------------  -----------------  -----------------
         O           -1.734975227976     2.388816045688     0.142744342861    15.994914619570
         O           -1.703319227976    -2.390742954312     0.125357342861    15.994914619570
         C            1.025581772024    -0.021969954312    -0.362584657139    12.000000000000
         C            2.519615772024    -0.048171954312    -0.564483657139    12.000000000000
         C            0.312072772024    -1.213332954312    -0.231020657139    12.000000000000
         C            0.356427772024     1.202547045688    -0.232026657139    12.000000000000
         C            3.275030772024    -0.017870954312     0.767721342861    12.000000000000
         C           -1.015538227976     1.222628045688     0.014343342861    12.000000000000
         C           -1.063006227976    -1.178426954312     0.016598342861    12.000000000000
         C           -1.762446827976    -0.008458154312     0.149628342861    12.000000000000
         H            2.794692772024    -0.949729954312    -1.123753657139     1.007825032230
         H            2.821246772024     0.808181045688    -1.179410657139     1.007825032230
         H            0.802459772024    -2.178532954312    -0.330575657139     1.007825032230
         H            0.907553772024     2.137186045688    -0.338850657139     1.007825032230
         H            3.027480772024     0.887462045688     1.329435342861     1.007825032230
         H            4.357800772024    -0.039049954312     0.609129342861     1.007825032230
         H            2.999722772024    -0.879696954312     1.382021342861     1.007825032230
         H           -2.807133227976     0.082797045688     0.332367342861     1.007825032230
         H           -1.121330227976     3.136109045688     0.030885342861     1.007825032230
         H           -2.647252227976    -2.223348954312     0.294509342861     1.007825032230

  Basis Set: AUG-CC-PVTZ
    Blend: AUG-CC-PVTZ
  Basis Set: (AUG-CC-PVTZ AUX)
    Blend: AUG-CC-PVTZ-JKFIT
	 Reference Energy          =    -458.6566585335707487 [Eh]
	 Singles Energy            =      -0.0000000000000000 [Eh]
	 Same-Spin Energy          =      -0.4814729509285585 [Eh]
	 Opposite-Spin Energy      =      -1.5054817923877655 [Eh]
	 Correlation Energy        =      -1.9869547433163239 [Eh]
	 Total Energy              =    -460.6436132768870948 [Eh]

	 ================> DF-SCS-MP2 Energies <==================
	-----------------------------------------------------------
	 SCS Same-Spin Scale       =       0.3333333333333333 [-]
	 SCS Opposite-Spin Scale   =       1.2000000000000000 [-]
	 SCS Same-Spin Energy      =      -0.1604909836428528 [Eh]
	 SCS Opposite-Spin Energy  =      -1.8065781508653185 [Eh]
	 SCS Correlation Energy    =      -1.9670691345081712 [Eh]
	 SCS Total Energy          =    -460.6237276680789137 [Eh]
	-----------------------------------------------------------

  Dipole Moment: [D]
     X:     0.5477      Y:     1.3201      Z:    -0.0195     Total:     1.4293

*** Psi4 exiting successfully. Buy a developer a beer!
