                               Psi4 1.3.2 release

  ==> Input File <==

--------------------------------------------------------------------------
#psi4
#
memory 32 gb

molecule  {
0 1
  O        1.7627890     2.3683800    -0.1458810
  O        1.6754140    -2.4069960    -0.1279020
  C       -1.0823590    -0.0465446     0.3753593
  C       -2.5139530    -0.0194410     0.5634370
  C       -0.3230660    -1.2073880     0.2343750
  C       -0.3370590     1.2052280     0.2348720
  C       -3.2735700    -0.0197480    -0.7643280
  C        1.0346870     1.2106680    -0.0181020
  C        1.0470109    -1.2640343    -0.0188497
  C        1.7368580     0.0147850    -0.1457440
  H       -2.7927850    -0.9030380     1.1483340
  H       -2.8082890     0.8538600     1.1573130
  H       -0.8312370    -2.1635460     0.3309200
  H       -0.8789600     2.1456520     0.3351900
  H       -3.0230990     0.8672620    -1.3527740
  H       -4.3574070    -0.0294260    -0.6053230
  H       -3.0076490    -0.8981260    -1.3586750
  H        2.8074370     0.0467670    -0.3362510
  H        1.1590650     3.1223080    -0.0299710
  H        2.6215300    -2.2543830    -0.2976190
units angstrom
no_reorient  #important for SAPT in psi4, default
symmetry c1  #important for SAPT in psi4, default
}

set PROPERTIES_ORIGIN ["COM"]
properties('MP2/aug-cc-pvtz', properties = ['dipole'])
--------------------------------------------------------------------------

    Molecular point group: c1
  Charge       = 0
  Multiplicity = 1
  Basis Set: AUG-CC-PVTZ
    Blend: AUG-CC-PVTZ
  Basis Set: (AUG-CC-PVTZ AUX)
    Blend: AUG-CC-PVTZ-JKFIT

    Orbital Energies [Eh]
    ---------------------

    Doubly Occupied:

       1A    -20.605884     2A    -20.591608     3A    -11.316907
       4A    -11.306006     5A    -11.256282     6A    -11.229833
       7A    -11.224431     8A    -11.223057     9A    -11.220937
      10A    -11.215388    11A     -1.438231    12A     -1.400451
      13A     -1.140916    14A     -1.065491    15A     -0.999772
      16A     -0.976329    17A     -0.883999    18A     -0.836052
      19A     -0.812223    20A     -0.743127    21A     -0.686544
      22A     -0.683914    23A     -0.667617    24A     -0.618748
      25A     -0.610486    26A     -0.600895    27A     -0.591737
      28A     -0.581605    29A     -0.549687    30A     -0.542218
      31A     -0.524380    32A     -0.510924    33A     -0.494730
      34A     -0.476093    35A     -0.444132    36A     -0.318330
      37A     -0.301495

  @DF-RHF Final Energy:  -458.64478568941746

   => Energetics <=

    Nuclear Repulsion Energy =            506.6262114579085960
    One-Electron Energy =               -1629.1610822766738238
    Two-Electron Energy =                 663.8900851293478809
    Total Energy =                       -458.6447856894174038
  Basis Set: (AUG-CC-PVTZ AUX)
    Blend: AUG-CC-PVTZ-RI
    Molecular point group: c1

    Geometry (in Angstrom), charge = 0, multiplicity = 1:

       Center              X                  Y                   Z               Mass
    ------------   -----------------  -----------------  -----------------  -----------------
         O            1.768163093627     2.378098883210    -0.146868550203    15.994914619570
         O            1.680788093627    -2.397277116790    -0.128889550203    15.994914619570
         C           -1.076984906373    -0.036825716790     0.374371749797    12.000000000000
         C           -2.508578906373    -0.009722116790     0.562449449797    12.000000000000
         C           -0.317691906373    -1.197669116790     0.233387449797    12.000000000000
         C           -0.331684906373     1.214946883210     0.233884449797    12.000000000000
         C           -3.268195906373    -0.010029116790    -0.765315550203    12.000000000000
         C            1.040061093627     1.220386883210    -0.019089550203    12.000000000000
         C            1.052384993627    -1.254315416790    -0.019837250203    12.000000000000
         C            1.742232093627     0.024503883210    -0.146731550203    12.000000000000
         H           -2.787410906373    -0.893319116790     1.147346449797     1.007825032230
         H           -2.802914906373     0.863578883210     1.156325449797     1.007825032230
         H           -0.825862906373    -2.153827116790     0.329932449797     1.007825032230
         H           -0.873585906373     2.155370883210     0.334202449797     1.007825032230
         H           -3.017724906373     0.876980883210    -1.353761550203     1.007825032230
         H           -4.352032906373    -0.019707116790    -0.606310550203     1.007825032230
         H           -3.002274906373    -0.888407116790    -1.359662550203     1.007825032230
         H            2.812811093627     0.056485883210    -0.337238550203     1.007825032230
         H            1.164439093627     3.132026883210    -0.030958550203     1.007825032230
         H            2.626904093627    -2.244664116790    -0.298606550203     1.007825032230

  Basis Set: AUG-CC-PVTZ
    Blend: AUG-CC-PVTZ
  Basis Set: (AUG-CC-PVTZ AUX)
    Blend: AUG-CC-PVTZ-JKFIT
	 Reference Energy          =    -458.6447856894174606 [Eh]
	 Singles Energy            =      -0.0000000000000000 [Eh]
	 Same-Spin Energy          =      -0.4826827411364053 [Eh]
	 Opposite-Spin Energy      =      -1.5062965669949775 [Eh]
	 Correlation Energy        =      -1.9889793081313827 [Eh]
	 Total Energy              =    -460.6337649975488375 [Eh]

	 ================> DF-SCS-MP2 Energies <==================
	-----------------------------------------------------------
	 SCS Same-Spin Scale       =       0.3333333333333333 [-]
	 SCS Opposite-Spin Scale   =       1.2000000000000000 [-]
	 SCS Same-Spin Energy      =      -0.1608942470454684 [Eh]
	 SCS Opposite-Spin Energy  =      -1.8075558803939729 [Eh]
	 SCS Correlation Energy    =      -1.9684501274394413 [Eh]
	 SCS Total Energy          =    -460.6132358168568999 [Eh]
	-----------------------------------------------------------

  Dipole Moment: [D]
     X:    -0.3712      Y:     0.7641      Z:    -0.0226     Total:     0.8498

*** Psi4 exiting successfully. Buy a developer a beer!
