                               Psi4 1.3.2 release

  ==> Input File <==

--------------------------------------------------------------------------
#psi4
#
memory 32 gb

molecule  {
0 1
  O        1.7627890     2.3683800    -0.1458810
  O        1.6544612    -2.4179226    -0.1239687
  C       -1.0215720    -0.0077180     0.3641480
  C       -2.5139530    -0.0194410     0.5634370
  C       -0.3225516    -1.2317197     0.2344198
  C       -0.3370590     1.2052280     0.2348720
  C       -3.2735700    -0.0197480    -0.7643280
  C        1.0346870     1.2106680    -0.0181020
  C        1.0480560    -1.1910380    -0.0190010
  C        1.7368580     0.0147850    -0.1457440
  H       -2.7927850    -0.9030380     1.1483340
  H       -2.8082890     0.8538600     1.1573130
  H       -0.8312370    -2.1635460     0.3309200
  H       -0.8789600     2.1456520     0.3351900
  H       -3.0230990     0.8672620    -1.3527740
  H       -4.3574070    -0.0294260    -0.6053230
  H       -3.0076490    -0.8981260    -1.3586750
  H        2.8074370     0.0467670    -0.3362510
  H        1.1590650     3.1223080    -0.0299710
  H        2.6215300    -2.2543830    -0.2976190
units angstrom
no_reorient  #important for SAPT in psi4, default
symmetry c1  #important for SAPT in psi4, default
}

set PROPERTIES_ORIGIN ["COM"]
properties('MP2/aug-cc-pvtz', properties = ['dipole'])
--------------------------------------------------------------------------

    Molecular point group: c1
  Charge       = 0
  Multiplicity = 1
  Basis Set: AUG-CC-PVTZ
    Blend: AUG-CC-PVTZ
  Basis Set: (AUG-CC-PVTZ AUX)
    Blend: AUG-CC-PVTZ-JKFIT

    Orbital Energies [Eh]
    ---------------------

    Doubly Occupied:

       1A    -20.596370     2A    -20.594844     3A    -11.311469
       4A    -11.308151     5A    -11.253784     6A    -11.231924
       7A    -11.224377     8A    -11.223142     9A    -11.219703
      10A    -11.215093    11A     -1.405629    12A     -1.398157
      13A     -1.147704    14A     -1.063508    15A     -1.000726
      16A     -0.987138    17A     -0.876437    18A     -0.836292
      19A     -0.804752    20A     -0.737952    21A     -0.688650
      22A     -0.675342    23A     -0.662531    24A     -0.611567
      25A     -0.602072    26A     -0.594623    27A     -0.589217
      28A     -0.576233    29A     -0.551658    30A     -0.549032
      31A     -0.525854    32A     -0.522370    33A     -0.486987
      34A     -0.482492    35A     -0.452392    36A     -0.325128
      37A     -0.310710

  @DF-RHF Final Energy:  -458.65697224383536

   => Energetics <=

    Nuclear Repulsion Energy =            507.0801038680576767
    One-Electron Energy =               -1630.1861323391419774
    Two-Electron Energy =                 664.4490562272488887
    Total Energy =                       -458.6569722438354120
  Basis Set: (AUG-CC-PVTZ AUX)
    Blend: AUG-CC-PVTZ-RI
    Molecular point group: c1

    Geometry (in Angstrom), charge = 0, multiplicity = 1:

       Center              X                  Y                   Z               Mass
    ------------   -----------------  -----------------  -----------------  -----------------
         O            1.765171672624     2.371760529199    -0.146340544001    15.994914619570
         O            1.656843872624    -2.414542070801    -0.124428244001    15.994914619570
         C           -1.019189327376    -0.004337470801     0.363688455999    12.000000000000
         C           -2.511570327376    -0.016060470801     0.562977455999    12.000000000000
         C           -0.320168927376    -1.228339170801     0.233960255999    12.000000000000
         C           -0.334676327376     1.208608529199     0.234412455999    12.000000000000
         C           -3.271187327376    -0.016367470801    -0.764787544001    12.000000000000
         C            1.037069672624     1.214048529199    -0.018561544001    12.000000000000
         C            1.050438672624    -1.187657470801    -0.019460544001    12.000000000000
         C            1.739240672624     0.018165529199    -0.146203544001    12.000000000000
         H           -2.790402327376    -0.899657470801     1.147874455999     1.007825032230
         H           -2.805906327376     0.857240529199     1.156853455999     1.007825032230
         H           -0.828854327376    -2.160165470801     0.330460455999     1.007825032230
         H           -0.876577327376     2.149032529199     0.334730455999     1.007825032230
         H           -3.020716327376     0.870642529199    -1.353233544001     1.007825032230
         H           -4.355024327376    -0.026045470801    -0.605782544001     1.007825032230
         H           -3.005266327376    -0.894745470801    -1.359134544001     1.007825032230
         H            2.809819672624     0.050147529199    -0.336710544001     1.007825032230
         H            1.161447672624     3.125688529199    -0.030430544001     1.007825032230
         H            2.623912672624    -2.251002470801    -0.298078544001     1.007825032230

  Basis Set: AUG-CC-PVTZ
    Blend: AUG-CC-PVTZ
  Basis Set: (AUG-CC-PVTZ AUX)
    Blend: AUG-CC-PVTZ-JKFIT
	 Reference Energy          =    -458.6569722438353551 [Eh]
	 Singles Energy            =      -0.0000000000000000 [Eh]
	 Same-Spin Energy          =      -0.4820419929191752 [Eh]
	 Opposite-Spin Energy      =      -1.5061477123282554 [Eh]
	 Correlation Energy        =      -1.9881897052474307 [Eh]
	 Total Energy              =    -460.6451619490827625 [Eh]

	 ================> DF-SCS-MP2 Energies <==================
	-----------------------------------------------------------
	 SCS Same-Spin Scale       =       0.3333333333333333 [-]
	 SCS Opposite-Spin Scale   =       1.2000000000000000 [-]
	 SCS Same-Spin Energy      =      -0.1606806643063917 [Eh]
	 SCS Opposite-Spin Energy  =      -1.8073772547939064 [Eh]
	 SCS Correlation Energy    =      -1.9680579191002980 [Eh]
	 SCS Total Energy          =    -460.6250301629356727 [Eh]
	-----------------------------------------------------------

  Dipole Moment: [D]
     X:    -0.4763      Y:     1.2387      Z:     0.0063     Total:     1.3272

*** Psi4 exiting successfully. Buy a developer a beer!
