                               Psi4 1.3.2 release

  ==> Input File <==

--------------------------------------------------------------------------
#psi4
#
memory 32 gb

molecule  {
0 1
  O        1.7627890     2.3683800    -0.1458810
  O        1.6754140    -2.4069960    -0.1279020
  C       -1.0131852    -0.0079670     0.4425281
  C       -2.5139530    -0.0194410     0.5634370
  C       -0.3230660    -1.2073880     0.2343750
  C       -0.3370590     1.2052280     0.2348720
  C       -3.3420163    -0.0204141    -0.7227543
  C        1.0346870     1.2106680    -0.0181020
  C        1.0480560    -1.1910380    -0.0190010
  C        1.7368580     0.0147850    -0.1457440
  H       -2.7927850    -0.9030380     1.1483340
  H       -2.8082890     0.8538600     1.1573130
  H       -0.8312370    -2.1635460     0.3309200
  H       -0.8789600     2.1456520     0.3351900
  H       -3.0230990     0.8672620    -1.3527740
  H       -4.3574070    -0.0294260    -0.6053230
  H       -3.0076490    -0.8981260    -1.3586750
  H        2.8074370     0.0467670    -0.3362510
  H        1.1590650     3.1223080    -0.0299710
  H        2.6215300    -2.2543830    -0.2976190
units angstrom
no_reorient  #important for SAPT in psi4, default
symmetry c1  #important for SAPT in psi4, default
}

set PROPERTIES_ORIGIN ["COM"]
properties('MP2/aug-cc-pvtz', properties = ['dipole'])
--------------------------------------------------------------------------

    Molecular point group: c1
  Charge       = 0
  Multiplicity = 1
  Basis Set: AUG-CC-PVTZ
    Blend: AUG-CC-PVTZ
  Basis Set: (AUG-CC-PVTZ AUX)
    Blend: AUG-CC-PVTZ-JKFIT

    Orbital Energies [Eh]
    ---------------------

    Doubly Occupied:

       1A    -20.595950     2A    -20.593660     3A    -11.310813
       4A    -11.309178     5A    -11.253521     6A    -11.232011
       7A    -11.225612     8A    -11.224512     9A    -11.221604
      10A    -11.217903    11A     -1.405716    12A     -1.402242
      13A     -1.149699    14A     -1.063105    15A     -1.001516
      16A     -0.989227    17A     -0.879683    18A     -0.836763
      19A     -0.807698    20A     -0.739196    21A     -0.687681
      22A     -0.675635    23A     -0.665747    24A     -0.616095
      25A     -0.601235    26A     -0.595499    27A     -0.586188
      28A     -0.576934    29A     -0.562437    30A     -0.548428
      31A     -0.521972    32A     -0.516495    33A     -0.489506
      34A     -0.473493    35A     -0.452413    36A     -0.326894
      37A     -0.311303

  @DF-RHF Final Energy:  -458.64876102529377

   => Energetics <=

    Nuclear Repulsion Energy =            506.6276174568529882
    One-Electron Energy =               -1629.2176269730045988
    Two-Electron Energy =                 663.9412484908579017
    Total Energy =                       -458.6487610252937657
  Basis Set: (AUG-CC-PVTZ AUX)
    Blend: AUG-CC-PVTZ-RI
    Molecular point group: c1

    Geometry (in Angstrom), charge = 0, multiplicity = 1:

       Center              X                  Y                   Z               Mass
    ------------   -----------------  -----------------  -----------------  -----------------
         O            1.768009030500     2.368459482096    -0.156306607168    15.994914619570
         O            1.680634030500    -2.406916517904    -0.138327607168    15.994914619570
         C           -1.007965169500    -0.007887517904     0.432102492832    12.000000000000
         C           -2.508732969500    -0.019361517904     0.553011392832    12.000000000000
         C           -0.317845969500    -1.207308517904     0.223949392832    12.000000000000
         C           -0.331838969500     1.205307482096     0.224446392832    12.000000000000
         C           -3.336796269500    -0.020334617904    -0.733179907168    12.000000000000
         C            1.039907030500     1.210747482096    -0.028527607168    12.000000000000
         C            1.053276030500    -1.190958517904    -0.029426607168    12.000000000000
         C            1.742078030500     0.014864482096    -0.156169607168    12.000000000000
         H           -2.787564969500    -0.902958517904     1.137908392832     1.007825032230
         H           -2.803068969500     0.853939482096     1.146887392832     1.007825032230
         H           -0.826016969500    -2.163466517904     0.320494392832     1.007825032230
         H           -0.873739969500     2.145731482096     0.324764392832     1.007825032230
         H           -3.017878969500     0.867341482096    -1.363199607168     1.007825032230
         H           -4.352186969500    -0.029346517904    -0.615748607168     1.007825032230
         H           -3.002428969500    -0.898046517904    -1.369100607168     1.007825032230
         H            2.812657030500     0.046846482096    -0.346676607168     1.007825032230
         H            1.164285030500     3.122387482096    -0.040396607168     1.007825032230
         H            2.626750030500    -2.254303517904    -0.308044607168     1.007825032230

  Basis Set: AUG-CC-PVTZ
    Blend: AUG-CC-PVTZ
  Basis Set: (AUG-CC-PVTZ AUX)
    Blend: AUG-CC-PVTZ-JKFIT
	 Reference Energy          =    -458.6487610252937657 [Eh]
	 Singles Energy            =      -0.0000000000000000 [Eh]
	 Same-Spin Energy          =      -0.4820912987286136 [Eh]
	 Opposite-Spin Energy      =      -1.5060810519917749 [Eh]
	 Correlation Energy        =      -1.9881723507203886 [Eh]
	 Total Energy              =    -460.6369333760141558 [Eh]

	 ================> DF-SCS-MP2 Energies <==================
	-----------------------------------------------------------
	 SCS Same-Spin Scale       =       0.3333333333333333 [-]
	 SCS Opposite-Spin Scale   =       1.2000000000000000 [-]
	 SCS Same-Spin Energy      =      -0.1606970995762045 [Eh]
	 SCS Opposite-Spin Energy  =      -1.8072972623901298 [Eh]
	 SCS Correlation Energy    =      -1.9679943619663343 [Eh]
	 SCS Total Energy          =    -460.6167553872601275 [Eh]
	-----------------------------------------------------------

  Dipole Moment: [D]
     X:    -0.4416      Y:     1.2184      Z:    -0.0286     Total:     1.2963

*** Psi4 exiting successfully. Buy a developer a beer!
