                               Psi4 1.3.2 release

  ==> Input File <==

--------------------------------------------------------------------------
#psi4
#
memory 32 gb

molecule  {
0 1
  O        1.7627890     2.3683800    -0.1458810
  O        1.6754140    -2.4069960    -0.1279020
  C       -1.0206300    -0.0189038     0.3709771
  C       -2.5139530    -0.0194410     0.5634370
  C       -0.3230660    -1.2073880     0.2343750
  C       -0.3370590     1.2052280     0.2348720
  C       -3.2735700    -0.0197480    -0.7643280
  C        1.0346870     1.2106680    -0.0181020
  C        1.0480560    -1.1910380    -0.0190010
  C        1.7368580     0.0147850    -0.1457440
  H       -2.7835859    -0.9056134     1.1487507
  H       -2.8082890     0.8538600     1.1573130
  H       -0.8312370    -2.1635460     0.3309200
  H       -0.8789600     2.1456520     0.3351900
  H       -3.0230990     0.8672620    -1.3527740
  H       -4.3574070    -0.0294260    -0.6053230
  H       -3.0076490    -0.8981260    -1.3586750
  H        2.8074370     0.0467670    -0.3362510
  H        1.1590650     3.1223080    -0.0299710
  H        2.6215300    -2.2543830    -0.2976190
units angstrom
no_reorient  #important for SAPT in psi4, default
symmetry c1  #important for SAPT in psi4, default
}

set PROPERTIES_ORIGIN ["COM"]
properties('MP2/aug-cc-pvtz', properties = ['dipole'])
--------------------------------------------------------------------------

    Molecular point group: c1
  Charge       = 0
  Multiplicity = 1
  Basis Set: AUG-CC-PVTZ
    Blend: AUG-CC-PVTZ
  Basis Set: (AUG-CC-PVTZ AUX)
    Blend: AUG-CC-PVTZ-JKFIT

    Orbital Energies [Eh]
    ---------------------

    Doubly Occupied:

       1A    -20.595375     2A    -20.593652     3A    -11.310143
       4A    -11.309253     5A    -11.251221     6A    -11.232088
       7A    -11.223975     8A    -11.222997     9A    -11.219879
      10A    -11.215556    11A     -1.405215    12A     -1.402053
      13A     -1.150365    14A     -1.063978    15A     -1.001606
      16A     -0.987583    17A     -0.876995    18A     -0.836959
      19A     -0.808376    20A     -0.738639    21A     -0.687724
      22A     -0.675501    23A     -0.666161    24A     -0.611126
      25A     -0.602461    26A     -0.595453    27A     -0.587623
      28A     -0.576515    29A     -0.552985    30A     -0.549181
      31A     -0.523948    32A     -0.521115    33A     -0.488822
      34A     -0.481339    35A     -0.453910    36A     -0.325870
      37A     -0.311508

  @DF-RHF Final Energy:  -458.66000306843210

   => Energetics <=

    Nuclear Repulsion Energy =            507.4977257409611298
    One-Electron Energy =               -1631.0011551769407561
    Two-Electron Energy =                 664.8434263675474085
    Total Energy =                       -458.6600030684321609
  Basis Set: (AUG-CC-PVTZ AUX)
    Blend: AUG-CC-PVTZ-RI
    Molecular point group: c1

    Geometry (in Angstrom), charge = 0, multiplicity = 1:

       Center              X                  Y                   Z               Mass
    ------------   -----------------  -----------------  -----------------  -----------------
         O            1.762640019172     2.369370945143    -0.146477568888    15.994914619570
         O            1.675265019172    -2.406005054857    -0.128498568888    15.994914619570
         C           -1.020778980828    -0.017912854857     0.370380531112    12.000000000000
         C           -2.514101980828    -0.018450054857     0.562840431112    12.000000000000
         C           -0.323214980828    -1.206397054857     0.233778431112    12.000000000000
         C           -0.337207980828     1.206218945143     0.234275431112    12.000000000000
         C           -3.273718980828    -0.018757054857    -0.764924568888    12.000000000000
         C            1.034538019172     1.211658945143    -0.018698568888    12.000000000000
         C            1.047907019172    -1.190047054857    -0.019597568888    12.000000000000
         C            1.736709019172     0.015775945143    -0.146340568888    12.000000000000
         H           -2.783734880828    -0.904622454857     1.148154131112     1.007825032230
         H           -2.808437980828     0.854850945143     1.156716431112     1.007825032230
         H           -0.831385980828    -2.162555054857     0.330323431112     1.007825032230
         H           -0.879108980828     2.146642945143     0.334593431112     1.007825032230
         H           -3.023247980828     0.868252945143    -1.353370568888     1.007825032230
         H           -4.357555980828    -0.028435054857    -0.605919568888     1.007825032230
         H           -3.007797980828    -0.897135054857    -1.359271568888     1.007825032230
         H            2.807288019172     0.047757945143    -0.336847568888     1.007825032230
         H            1.158916019172     3.123298945143    -0.030567568888     1.007825032230
         H            2.621381019172    -2.253392054857    -0.298215568888     1.007825032230

  Basis Set: AUG-CC-PVTZ
    Blend: AUG-CC-PVTZ
  Basis Set: (AUG-CC-PVTZ AUX)
    Blend: AUG-CC-PVTZ-JKFIT
	 Reference Energy          =    -458.6600030684321041 [Eh]
	 Singles Energy            =      -0.0000000000000000 [Eh]
	 Same-Spin Energy          =      -0.4817132704471352 [Eh]
	 Opposite-Spin Energy      =      -1.5052083273208856 [Eh]
	 Correlation Energy        =      -1.9869215977680208 [Eh]
	 Total Energy              =    -460.6469246662001069 [Eh]

	 ================> DF-SCS-MP2 Energies <==================
	-----------------------------------------------------------
	 SCS Same-Spin Scale       =       0.3333333333333333 [-]
	 SCS Opposite-Spin Scale   =       1.2000000000000000 [-]
	 SCS Same-Spin Energy      =      -0.1605710901490451 [Eh]
	 SCS Opposite-Spin Energy  =      -1.8062499927850626 [Eh]
	 SCS Correlation Energy    =      -1.9668210829341077 [Eh]
	 SCS Total Energy          =    -460.6268241513662360 [Eh]
	-----------------------------------------------------------

  Dipole Moment: [D]
     X:    -0.4955      Y:     1.2079      Z:     0.0031     Total:     1.3056

*** Psi4 exiting successfully. Buy a developer a beer!
