                               Psi4 1.3.2 release

  ==> Input File <==

--------------------------------------------------------------------------
#psi4
#
memory 32 gb

molecule  {
0 1
  O        1.7627890     2.3683800    -0.1458810
  O        1.7371802    -2.3720058    -0.1390607
  C       -1.0215720    -0.0077180     0.3641480
  C       -2.5139530    -0.0194410     0.5634370
  C       -0.3230660    -1.2073880     0.2343750
  C       -0.3370590     1.2052280     0.2348720
  C       -3.2735700    -0.0197480    -0.7643280
  C        1.0346870     1.2106680    -0.0181020
  C        1.0480560    -1.1910380    -0.0190010
  C        1.7980521    -0.0235213    -0.1565933
  H       -2.7927850    -0.9030380     1.1483340
  H       -2.8082890     0.8538600     1.1573130
  H       -0.8312370    -2.1635460     0.3309200
  H       -0.8789600     2.1456520     0.3351900
  H       -3.0230990     0.8672620    -1.3527740
  H       -4.3574070    -0.0294260    -0.6053230
  H       -3.0076490    -0.8981260    -1.3586750
  H        2.8074370     0.0467670    -0.3362510
  H        1.1590650     3.1223080    -0.0299710
  H        2.6215300    -2.2543830    -0.2976190
units angstrom
no_reorient  #important for SAPT in psi4, default
symmetry c1  #important for SAPT in psi4, default
}

set PROPERTIES_ORIGIN ["COM"]
properties('MP2/aug-cc-pvtz', properties = ['dipole'])
--------------------------------------------------------------------------

    Molecular point group: c1
  Charge       = 0
  Multiplicity = 1
  Basis Set: AUG-CC-PVTZ
    Blend: AUG-CC-PVTZ
  Basis Set: (AUG-CC-PVTZ AUX)
    Blend: AUG-CC-PVTZ-JKFIT

    Orbital Energies [Eh]
    ---------------------

    Doubly Occupied:

       1A    -20.596911     2A    -20.580030     3A    -11.317921
       4A    -11.310627     5A    -11.254585     6A    -11.233601
       7A    -11.223613     8A    -11.222822     9A    -11.220848
      10A    -11.218302    11A     -1.412408    12A     -1.404966
      13A     -1.147802    14A     -1.061468    15A     -1.002594
      16A     -0.987784    17A     -0.880026    18A     -0.837912
      19A     -0.814273    20A     -0.745818    21A     -0.692575
      22A     -0.676812    23A     -0.672316    24A     -0.613077
      25A     -0.603008    26A     -0.596191    27A     -0.587337
      28A     -0.575572    29A     -0.558626    30A     -0.548606
      31A     -0.525118    32A     -0.511874    33A     -0.489465
      34A     -0.486313    35A     -0.451621    36A     -0.323330
      37A     -0.310916

  @DF-RHF Final Energy:  -458.65148151139147

   => Energetics <=

    Nuclear Repulsion Energy =            506.6807327453859102
    One-Electron Energy =               -1629.2703005861708334
    Two-Electron Energy =                 663.9380863293933999
    Total Energy =                       -458.6514815113914665
  Basis Set: (AUG-CC-PVTZ AUX)
    Blend: AUG-CC-PVTZ-RI
    Molecular point group: c1

    Geometry (in Angstrom), charge = 0, multiplicity = 1:

       Center              X                  Y                   Z               Mass
    ------------   -----------------  -----------------  -----------------  -----------------
         O            1.750314945791     2.367655741927    -0.143645319640    15.994914619570
         O            1.724706145791    -2.372730058073    -0.136825019640    15.994914619570
         C           -1.034046054209    -0.008442258073     0.366383680360    12.000000000000
         C           -2.526427054209    -0.020165258073     0.565672680360    12.000000000000
         C           -0.335540054209    -1.208112258073     0.236610680360    12.000000000000
         C           -0.349533054209     1.204503741927     0.237107680360    12.000000000000
         C           -3.286044054209    -0.020472258073    -0.762092319640    12.000000000000
         C            1.022212945791     1.209943741927    -0.015866319640    12.000000000000
         C            1.035581945791    -1.191762258073    -0.016765319640    12.000000000000
         C            1.785578045791    -0.024245558073    -0.154357619640    12.000000000000
         H           -2.805259054209    -0.903762258073     1.150569680360     1.007825032230
         H           -2.820763054209     0.853135741927     1.159548680360     1.007825032230
         H           -0.843711054209    -2.164270258073     0.333155680360     1.007825032230
         H           -0.891434054209     2.144927741927     0.337425680360     1.007825032230
         H           -3.035573054209     0.866537741927    -1.350538319640     1.007825032230
         H           -4.369881054209    -0.030150258073    -0.603087319640     1.007825032230
         H           -3.020123054209    -0.898850258073    -1.356439319640     1.007825032230
         H            2.794962945791     0.046042741927    -0.334015319640     1.007825032230
         H            1.146590945791     3.121583741927    -0.027735319640     1.007825032230
         H            2.609055945791    -2.255107258073    -0.295383319640     1.007825032230

  Basis Set: AUG-CC-PVTZ
    Blend: AUG-CC-PVTZ
  Basis Set: (AUG-CC-PVTZ AUX)
    Blend: AUG-CC-PVTZ-JKFIT
	 Reference Energy          =    -458.6514815113914665 [Eh]
	 Singles Energy            =      -0.0000000000000000 [Eh]
	 Same-Spin Energy          =      -0.4804887831985521 [Eh]
	 Opposite-Spin Energy      =      -1.5031148551631710 [Eh]
	 Correlation Energy        =      -1.9836036383617230 [Eh]
	 Total Energy              =    -460.6350851497531949 [Eh]

	 ================> DF-SCS-MP2 Energies <==================
	-----------------------------------------------------------
	 SCS Same-Spin Scale       =       0.3333333333333333 [-]
	 SCS Opposite-Spin Scale   =       1.2000000000000000 [-]
	 SCS Same-Spin Energy      =      -0.1601629277328507 [Eh]
	 SCS Opposite-Spin Energy  =      -1.8037378261958050 [Eh]
	 SCS Correlation Energy    =      -1.9639007539286557 [Eh]
	 SCS Total Energy          =    -460.6153822653201360 [Eh]
	-----------------------------------------------------------

  Dipole Moment: [D]
     X:    -0.6254      Y:     1.3119      Z:     0.0271     Total:     1.4536

*** Psi4 exiting successfully. Buy a developer a beer!
