                               Psi4 1.3.2 release

  ==> Input File <==

--------------------------------------------------------------------------
#psi4
#
memory 32 gb

molecule  {
0 1
  O        1.7627890     2.3683800    -0.1458810
  O        1.6754140    -2.4069960    -0.1279020
  C       -1.0215720    -0.0077180     0.3641480
  C       -2.5139530    -0.0194410     0.5634370
  C       -0.3230660    -1.2073880     0.2343750
  C       -0.3370590     1.2052280     0.2348720
  C       -3.2735700    -0.0197480    -0.7643280
  C        0.9740869     1.1716781    -0.0069945
  C        0.9869174    -1.1527312    -0.0078447
  C        1.7368580     0.0147850    -0.1457440
  H       -2.7927850    -0.9030380     1.1483340
  H       -2.8082890     0.8538600     1.1573130
  H       -0.8312370    -2.1635460     0.3309200
  H       -0.8789600     2.1456520     0.3351900
  H       -3.0230990     0.8672620    -1.3527740
  H       -4.3574070    -0.0294260    -0.6053230
  H       -3.0076490    -0.8981260    -1.3586750
  H        2.8074370     0.0467670    -0.3362510
  H        1.1590650     3.1223080    -0.0299710
  H        2.6215300    -2.2543830    -0.2976190
units angstrom
no_reorient  #important for SAPT in psi4, default
symmetry c1  #important for SAPT in psi4, default
}

set PROPERTIES_ORIGIN ["COM"]
properties('MP2/aug-cc-pvtz', properties = ['dipole'])
--------------------------------------------------------------------------

    Molecular point group: c1
  Charge       = 0
  Multiplicity = 1
  Basis Set: AUG-CC-PVTZ
    Blend: AUG-CC-PVTZ
  Basis Set: (AUG-CC-PVTZ AUX)
    Blend: AUG-CC-PVTZ-JKFIT

    Orbital Energies [Eh]
    ---------------------

    Doubly Occupied:

       1A    -20.584929     2A    -20.579965     3A    -11.305503
       4A    -11.304402     5A    -11.257945     6A    -11.236365
       7A    -11.229167     8A    -11.224303     9A    -11.223733
      10A    -11.217582    11A     -1.375336    12A     -1.369894
      13A     -1.168303    14A     -1.069319    15A     -1.022641
      16A     -0.993262    17A     -0.885327    18A     -0.826273
      19A     -0.806827    20A     -0.729644    21A     -0.694835
      22A     -0.666450    23A     -0.652964    24A     -0.613457
      25A     -0.599935    26A     -0.589168    27A     -0.582480
      28A     -0.564275    29A     -0.556535    30A     -0.551367
      31A     -0.529045    32A     -0.514837    33A     -0.492569
      34A     -0.489911    35A     -0.462594    36A     -0.333285
      37A     -0.326412

  @DF-RHF Final Energy:  -458.64419132508067

   => Energetics <=

    Nuclear Repulsion Energy =            508.6312554078457424
    One-Electron Energy =               -1633.2892164724612485
    Two-Electron Energy =                 666.0137697395347232
    Total Energy =                       -458.6441913250806692
  Basis Set: (AUG-CC-PVTZ AUX)
    Blend: AUG-CC-PVTZ-RI
    Molecular point group: c1

    Geometry (in Angstrom), charge = 0, multiplicity = 1:

       Center              X                  Y                   Z               Mass
    ------------   -----------------  -----------------  -----------------  -----------------
         O            1.773369794569     2.368439318130    -0.147816013226    15.994914619570
         O            1.685994794569    -2.406936681870    -0.129837013226    15.994914619570
         C           -1.010991205431    -0.007658681870     0.362212986774    12.000000000000
         C           -2.503372205431    -0.019381681870     0.561501986774    12.000000000000
         C           -0.312485205431    -1.207328681870     0.232439986774    12.000000000000
         C           -0.326478205431     1.205287318130     0.232936986774    12.000000000000
         C           -3.262989205431    -0.019688681870    -0.766263013226    12.000000000000
         C            0.984667694569     1.171737418130    -0.008929513226    12.000000000000
         C            0.997498194569    -1.152671881870    -0.009779713226    12.000000000000
         C            1.747438794569     0.014844318130    -0.147679013226    12.000000000000
         H           -2.782204205431    -0.902978681870     1.146398986774     1.007825032230
         H           -2.797708205431     0.853919318130     1.155377986774     1.007825032230
         H           -0.820656205431    -2.163486681870     0.328984986774     1.007825032230
         H           -0.868379205431     2.145711318130     0.333254986774     1.007825032230
         H           -3.012518205431     0.867321318130    -1.354709013226     1.007825032230
         H           -4.346826205431    -0.029366681870    -0.607258013226     1.007825032230
         H           -2.997068205431    -0.898066681870    -1.360610013226     1.007825032230
         H            2.818017794569     0.046826318130    -0.338186013226     1.007825032230
         H            1.169645794569     3.122367318130    -0.031906013226     1.007825032230
         H            2.632110794569    -2.254323681870    -0.299554013226     1.007825032230

  Basis Set: AUG-CC-PVTZ
    Blend: AUG-CC-PVTZ
  Basis Set: (AUG-CC-PVTZ AUX)
    Blend: AUG-CC-PVTZ-JKFIT
	 Reference Energy          =    -458.6441913250806692 [Eh]
	 Singles Energy            =      -0.0000000000000000 [Eh]
	 Same-Spin Energy          =      -0.4823423653317143 [Eh]
	 Opposite-Spin Energy      =      -1.5073788471610285 [Eh]
	 Correlation Energy        =      -1.9897212124927428 [Eh]
	 Total Energy              =    -460.6339125375733943 [Eh]

	 ================> DF-SCS-MP2 Energies <==================
	-----------------------------------------------------------
	 SCS Same-Spin Scale       =       0.3333333333333333 [-]
	 SCS Opposite-Spin Scale   =       1.2000000000000000 [-]
	 SCS Same-Spin Energy      =      -0.1607807884439048 [Eh]
	 SCS Opposite-Spin Energy  =      -1.8088546165932342 [Eh]
	 SCS Correlation Energy    =      -1.9696354050371390 [Eh]
	 SCS Total Energy          =    -460.6138267301178075 [Eh]
	-----------------------------------------------------------

  Dipole Moment: [D]
     X:    -1.0585      Y:     1.2300      Z:     0.0927     Total:     1.6254

*** Psi4 exiting successfully. Buy a developer a beer!
