                               Psi4 1.3.2 release

  ==> Input File <==

--------------------------------------------------------------------------
#psi4
#
memory 32 gb

molecule  {
0 1
  O        1.7627890     2.3683800    -0.1458810
  O        1.6754140    -2.4069960    -0.1279020
  C       -1.0627699     0.0173323     0.3718241
  C       -2.5139530    -0.0194410     0.5634370
  C       -0.3230660    -1.2073880     0.2343750
  C       -0.3370590     1.2052280     0.2348720
  C       -3.2735700    -0.0197480    -0.7643280
  C        1.0346870     1.2106680    -0.0181020
  C        1.0480560    -1.1910380    -0.0190010
  C        1.7368580     0.0147850    -0.1457440
  H       -2.7927850    -0.9030380     1.1483340
  H       -2.8082890     0.8538600     1.1573130
  H       -0.8312370    -2.1635460     0.3309200
  H       -0.9108875     2.1258458     0.3411806
  H       -3.0230990     0.8672620    -1.3527740
  H       -4.3574070    -0.0294260    -0.6053230
  H       -3.0076490    -0.8981260    -1.3586750
  H        2.8074370     0.0467670    -0.3362510
  H        1.1590650     3.1223080    -0.0299710
  H        2.6215300    -2.2543830    -0.2976190
units angstrom
no_reorient  #important for SAPT in psi4, default
symmetry c1  #important for SAPT in psi4, default
}

set PROPERTIES_ORIGIN ["COM"]
properties('MP2/aug-cc-pvtz', properties = ['dipole'])
--------------------------------------------------------------------------

    Molecular point group: c1
  Charge       = 0
  Multiplicity = 1
  Basis Set: AUG-CC-PVTZ
    Blend: AUG-CC-PVTZ
  Basis Set: (AUG-CC-PVTZ AUX)
    Blend: AUG-CC-PVTZ-JKFIT

    Orbital Energies [Eh]
    ---------------------

    Doubly Occupied:

       1A    -20.595996     2A    -20.592258     3A    -11.311642
       4A    -11.307527     5A    -11.254449     6A    -11.231346
       7A    -11.224330     8A    -11.223950     9A    -11.221318
      10A    -11.218461    11A     -1.405401    12A     -1.400977
      13A     -1.148021    14A     -1.069817    15A     -0.998624
      16A     -0.986515    17A     -0.881543    18A     -0.834950
      19A     -0.806166    20A     -0.742041    21A     -0.684890
      22A     -0.674654    23A     -0.667078    24A     -0.617283
      25A     -0.602273    26A     -0.596072    27A     -0.586607
      28A     -0.576079    29A     -0.551962    30A     -0.548821
      31A     -0.524763    32A     -0.516616    33A     -0.493583
      34A     -0.484597    35A     -0.450717    36A     -0.323963
      37A     -0.308940

  @DF-RHF Final Energy:  -458.65542467749930

   => Energetics <=

    Nuclear Repulsion Energy =            507.1715215683320821
    One-Electron Energy =               -1630.3254304370923364
    Two-Electron Energy =                 664.4984841912610136
    Total Energy =                       -458.6554246774992407
  Basis Set: (AUG-CC-PVTZ AUX)
    Blend: AUG-CC-PVTZ-RI
    Molecular point group: c1

    Geometry (in Angstrom), charge = 0, multiplicity = 1:

       Center              X                  Y                   Z               Mass
    ------------   -----------------  -----------------  -----------------  -----------------
         O            1.766602754213     2.366347309487    -0.146591871310    15.994914619570
         O            1.679227754213    -2.409028690513    -0.128612871310    15.994914619570
         C           -1.058956145787     0.015299609487     0.371113228690    12.000000000000
         C           -2.510139245787    -0.021473690513     0.562726128690    12.000000000000
         C           -0.319252245787    -1.209420690513     0.233664128690    12.000000000000
         C           -0.333245245787     1.203195309487     0.234161128690    12.000000000000
         C           -3.269756245787    -0.021780690513    -0.765038871310    12.000000000000
         C            1.038500754213     1.208635309487    -0.018812871310    12.000000000000
         C            1.051869754213    -1.193070690513    -0.019711871310    12.000000000000
         C            1.740671754213     0.012752309487    -0.146454871310    12.000000000000
         H           -2.788971245787    -0.905070690513     1.147623128690     1.007825032230
         H           -2.804475245787     0.851827309487     1.156602128690     1.007825032230
         H           -0.827423245787    -2.165578690513     0.330209128690     1.007825032230
         H           -0.907073745787     2.123813109487     0.340469728690     1.007825032230
         H           -3.019285245787     0.865229309487    -1.353484871310     1.007825032230
         H           -4.353593245787    -0.031458690513    -0.606033871310     1.007825032230
         H           -3.003835245787    -0.900158690513    -1.359385871310     1.007825032230
         H            2.811250754213     0.044734309487    -0.336961871310     1.007825032230
         H            1.162878754213     3.120275309487    -0.030681871310     1.007825032230
         H            2.625343754213    -2.256415690513    -0.298329871310     1.007825032230

  Basis Set: AUG-CC-PVTZ
    Blend: AUG-CC-PVTZ
  Basis Set: (AUG-CC-PVTZ AUX)
    Blend: AUG-CC-PVTZ-JKFIT
	 Reference Energy          =    -458.6554246774992976 [Eh]
	 Singles Energy            =      -0.0000000000000000 [Eh]
	 Same-Spin Energy          =      -0.4823621412103837 [Eh]
	 Opposite-Spin Energy      =      -1.5061989970431666 [Eh]
	 Correlation Energy        =      -1.9885611382535502 [Eh]
	 Total Energy              =    -460.6439858157528420 [Eh]

	 ================> DF-SCS-MP2 Energies <==================
	-----------------------------------------------------------
	 SCS Same-Spin Scale       =       0.3333333333333333 [-]
	 SCS Opposite-Spin Scale   =       1.2000000000000000 [-]
	 SCS Same-Spin Energy      =      -0.1607873804034612 [Eh]
	 SCS Opposite-Spin Energy  =      -1.8074387964517999 [Eh]
	 SCS Correlation Energy    =      -1.9682261768552611 [Eh]
	 SCS Total Energy          =    -460.6236508543545369 [Eh]
	-----------------------------------------------------------

  Dipole Moment: [D]
     X:    -0.5717      Y:     1.2453      Z:     0.0099     Total:     1.3703

*** Psi4 exiting successfully. Buy a developer a beer!
