                               Psi4 1.3.2 release

  ==> Input File <==

--------------------------------------------------------------------------
#psi4
#
memory 32 gb

molecule  {
0 1
  O        1.7627890     2.3683800    -0.1458810
  O        1.6754140    -2.4069960    -0.1279020
  C       -1.0623198    -0.0332434     0.3716636
  C       -2.5139530    -0.0194410     0.5634370
  C       -0.3230660    -1.2073880     0.2343750
  C       -0.3370590     1.2052280     0.2348720
  C       -3.2735700    -0.0197480    -0.7643280
  C        1.0346870     1.2106680    -0.0181020
  C        1.0477769    -1.2397096    -0.0189773
  C        1.7368580     0.0147850    -0.1457440
  H       -2.7927850    -0.9030380     1.1483340
  H       -2.8082890     0.8538600     1.1573130
  H       -0.8312370    -2.1635460     0.3309200
  H       -0.8789600     2.1456520     0.3351900
  H       -3.0230990     0.8672620    -1.3527740
  H       -4.3574070    -0.0294260    -0.6053230
  H       -3.0076490    -0.8981260    -1.3586750
  H        2.8074370     0.0467670    -0.3362510
  H        1.1590650     3.1223080    -0.0299710
  H        2.6215300    -2.2543830    -0.2976190
units angstrom
no_reorient  #important for SAPT in psi4, default
symmetry c1  #important for SAPT in psi4, default
}

set PROPERTIES_ORIGIN ["COM"]
properties('MP2/aug-cc-pvtz', properties = ['dipole'])
--------------------------------------------------------------------------

    Molecular point group: c1
  Charge       = 0
  Multiplicity = 1
  Basis Set: AUG-CC-PVTZ
    Blend: AUG-CC-PVTZ
  Basis Set: (AUG-CC-PVTZ AUX)
    Blend: AUG-CC-PVTZ-JKFIT

    Orbital Energies [Eh]
    ---------------------

    Doubly Occupied:

       1A    -20.601643     2A    -20.592980     3A    -11.314068
       4A    -11.307496     5A    -11.254591     6A    -11.230610
       7A    -11.224431     8A    -11.223107     9A    -11.220503
      10A    -11.215467    11A     -1.425937    12A     -1.401861
      13A     -1.143517    14A     -1.064949    15A     -0.999970
      16A     -0.980370    17A     -0.881620    18A     -0.834533
      19A     -0.811977    20A     -0.741628    21A     -0.685898
      22A     -0.680710    23A     -0.668683    24A     -0.615809
      25A     -0.606061    26A     -0.599203    27A     -0.590650
      28A     -0.581173    29A     -0.549228    30A     -0.545819
      31A     -0.524296    32A     -0.512955    33A     -0.493015
      34A     -0.480589    35A     -0.447416    36A     -0.319341
      37A     -0.306231

  @DF-RHF Final Energy:  -458.65312065245416

   => Energetics <=

    Nuclear Repulsion Energy =            506.8946840446495798
    One-Electron Energy =               -1629.7389436968546761
    Two-Electron Energy =                 664.1911389997508195
    Total Energy =                       -458.6531206524541631
  Basis Set: (AUG-CC-PVTZ AUX)
    Blend: AUG-CC-PVTZ-RI
    Molecular point group: c1

    Geometry (in Angstrom), charge = 0, multiplicity = 1:

       Center              X                  Y                   Z               Mass
    ------------   -----------------  -----------------  -----------------  -----------------
         O            1.766354837868     2.374828679109    -0.146536253266    15.994914619570
         O            1.678979837868    -2.400547320891    -0.128557253266    15.994914619570
         C           -1.058753962132    -0.026794720891     0.371008346734    12.000000000000
         C           -2.510387162132    -0.012992320891     0.562781746734    12.000000000000
         C           -0.319500162132    -1.200939320891     0.233719746734    12.000000000000
         C           -0.333493162132     1.211676679109     0.234216746734    12.000000000000
         C           -3.270004162132    -0.013299320891    -0.764983253266    12.000000000000
         C            1.038252837868     1.217116679109    -0.018757253266    12.000000000000
         C            1.051342737868    -1.233260920891    -0.019632553266    12.000000000000
         C            1.740423837868     0.021233679109    -0.146399253266    12.000000000000
         H           -2.789219162132    -0.896589320891     1.147678746734     1.007825032230
         H           -2.804723162132     0.860308679109     1.156657746734     1.007825032230
         H           -0.827671162132    -2.157097320891     0.330264746734     1.007825032230
         H           -0.875394162132     2.152100679109     0.334534746734     1.007825032230
         H           -3.019533162132     0.873710679109    -1.353429253266     1.007825032230
         H           -4.353841162132    -0.022977320891    -0.605978253266     1.007825032230
         H           -3.004083162132    -0.891677320891    -1.359330253266     1.007825032230
         H            2.811002837868     0.053215679109    -0.336906253266     1.007825032230
         H            1.162630837868     3.128756679109    -0.030626253266     1.007825032230
         H            2.625095837868    -2.247934320891    -0.298274253266     1.007825032230

  Basis Set: AUG-CC-PVTZ
    Blend: AUG-CC-PVTZ
  Basis Set: (AUG-CC-PVTZ AUX)
    Blend: AUG-CC-PVTZ-JKFIT
	 Reference Energy          =    -458.6531206524541631 [Eh]
	 Singles Energy            =      -0.0000000000000000 [Eh]
	 Same-Spin Energy          =      -0.4822608052578807 [Eh]
	 Opposite-Spin Energy      =      -1.5057265973731746 [Eh]
	 Correlation Energy        =      -1.9879874026310553 [Eh]
	 Total Energy              =    -460.6411080550852262 [Eh]

	 ================> DF-SCS-MP2 Energies <==================
	-----------------------------------------------------------
	 SCS Same-Spin Scale       =       0.3333333333333333 [-]
	 SCS Opposite-Spin Scale   =       1.2000000000000000 [-]
	 SCS Same-Spin Energy      =      -0.1607536017526269 [Eh]
	 SCS Opposite-Spin Energy  =      -1.8068719168478093 [Eh]
	 SCS Correlation Energy    =      -1.9676255186004363 [Eh]
	 SCS Total Energy          =    -460.6207461710545772 [Eh]
	-----------------------------------------------------------

  Dipole Moment: [D]
     X:    -0.4160      Y:     0.9174      Z:    -0.0115     Total:     1.0074

*** Psi4 exiting successfully. Buy a developer a beer!
