                               Psi4 1.3.2 release

  ==> Input File <==

--------------------------------------------------------------------------
#psi4
#
memory 32 gb

molecule  {
0 1
  O        1.7627890     2.3683800    -0.1458810
  O        1.6754140    -2.4069960    -0.1279020
  C       -1.0215720    -0.0077180     0.3641480
  C       -2.5139530    -0.0194410     0.5634370
  C       -0.3230660    -1.2073880     0.2343750
  C       -0.3370590     1.2052280     0.2348720
  C       -3.2735700    -0.0197480    -0.7643280
  C        1.0972827     1.2463798    -0.0291659
  C        1.0480560    -1.1910380    -0.0190010
  C        1.7368580     0.0147850    -0.1457440
  H       -2.7927850    -0.9030380     1.1483340
  H       -2.8082890     0.8538600     1.1573130
  H       -0.8312370    -2.1635460     0.3309200
  H       -0.8789600     2.1456520     0.3351900
  H       -3.0230990     0.8672620    -1.3527740
  H       -4.3574070    -0.0294260    -0.6053230
  H       -3.0076490    -0.8981260    -1.3586750
  H        2.8043436     0.1036330    -0.3355745
  H        1.1590650     3.1223080    -0.0299710
  H        2.6215300    -2.2543830    -0.2976190
units angstrom
no_reorient  #important for SAPT in psi4, default
symmetry c1  #important for SAPT in psi4, default
}

set PROPERTIES_ORIGIN ["COM"]
properties('MP2/aug-cc-pvtz', properties = ['dipole'])
--------------------------------------------------------------------------

    Molecular point group: c1
  Charge       = 0
  Multiplicity = 1
  Basis Set: AUG-CC-PVTZ
    Blend: AUG-CC-PVTZ
  Basis Set: (AUG-CC-PVTZ AUX)
    Blend: AUG-CC-PVTZ-JKFIT

    Orbital Energies [Eh]
    ---------------------

    Doubly Occupied:

       1A    -20.608112     2A    -20.592175     3A    -11.316551
       4A    -11.308791     5A    -11.248607     6A    -11.230073
       7A    -11.223906     8A    -11.221206     9A    -11.217801
      10A    -11.211706    11A     -1.440415    12A     -1.401022
      13A     -1.142545    14A     -1.061724    15A     -0.994966
      16A     -0.982882    17A     -0.872109    18A     -0.846969
      19A     -0.807576    20A     -0.744687    21A     -0.697331
      22A     -0.679482    23A     -0.664228    24A     -0.616249
      25A     -0.612202    26A     -0.596711    27A     -0.588143
      28A     -0.581720    29A     -0.552586    30A     -0.541555
      31A     -0.521622    32A     -0.515446    33A     -0.485739
      34A     -0.474906    35A     -0.448905    36A     -0.325603
      37A     -0.300625

  @DF-RHF Final Energy:  -458.65323891019659

   => Energetics <=

    Nuclear Repulsion Energy =            507.0832049575279257
    One-Electron Energy =               -1630.1191378447786064
    Two-Electron Energy =                 664.3826939770541458
    Total Energy =                       -458.6532389101965919
  Basis Set: (AUG-CC-PVTZ AUX)
    Blend: AUG-CC-PVTZ-RI
    Molecular point group: c1

    Geometry (in Angstrom), charge = 0, multiplicity = 1:

       Center              X                  Y                   Z               Mass
    ------------   -----------------  -----------------  -----------------  -----------------
         O            1.757371200245     2.364861012559    -0.144924319449    15.994914619570
         O            1.669996200245    -2.410514987441    -0.126945319449    15.994914619570
         C           -1.026989799755    -0.011236987441     0.365104680551    12.000000000000
         C           -2.519370799755    -0.022959987441     0.564393680551    12.000000000000
         C           -0.328483799755    -1.210906987441     0.235331680551    12.000000000000
         C           -0.342476799755     1.201709012559     0.235828680551    12.000000000000
         C           -3.278987799755    -0.023266987441    -0.763371319449    12.000000000000
         C            1.091864900245     1.242860812559    -0.028209219449    12.000000000000
         C            1.042638200245    -1.194556987441    -0.018044319449    12.000000000000
         C            1.731440200245     0.011266012559    -0.144787319449    12.000000000000
         H           -2.798202799755    -0.906556987441     1.149290680551     1.007825032230
         H           -2.813706799755     0.850341012559     1.158269680551     1.007825032230
         H           -0.836654799755    -2.167064987441     0.331876680551     1.007825032230
         H           -0.884377799755     2.142133012559     0.336146680551     1.007825032230
         H           -3.028516799755     0.863743012559    -1.351817319449     1.007825032230
         H           -4.362824799755    -0.032944987441    -0.604366319449     1.007825032230
         H           -3.013066799755    -0.901644987441    -1.357718319449     1.007825032230
         H            2.798925800245     0.100114012559    -0.334617819449     1.007825032230
         H            1.153647200245     3.118789012559    -0.029014319449     1.007825032230
         H            2.616112200245    -2.257901987441    -0.296662319449     1.007825032230

  Basis Set: AUG-CC-PVTZ
    Blend: AUG-CC-PVTZ
  Basis Set: (AUG-CC-PVTZ AUX)
    Blend: AUG-CC-PVTZ-JKFIT
	 Reference Energy          =    -458.6532389101965919 [Eh]
	 Singles Energy            =      -0.0000000000000000 [Eh]
	 Same-Spin Energy          =      -0.4817532358787174 [Eh]
	 Opposite-Spin Energy      =      -1.5047296190449946 [Eh]
	 Correlation Energy        =      -1.9864828549237119 [Eh]
	 Total Energy              =    -460.6397217651203277 [Eh]

	 ================> DF-SCS-MP2 Energies <==================
	-----------------------------------------------------------
	 SCS Same-Spin Scale       =       0.3333333333333333 [-]
	 SCS Opposite-Spin Scale   =       1.2000000000000000 [-]
	 SCS Same-Spin Energy      =      -0.1605844119595725 [Eh]
	 SCS Opposite-Spin Energy  =      -1.8056755428539935 [Eh]
	 SCS Correlation Energy    =      -1.9662599548135660 [Eh]
	 SCS Total Energy          =    -460.6194988650101436 [Eh]
	-----------------------------------------------------------

  Dipole Moment: [D]
     X:    -0.2305      Y:     1.6369      Z:    -0.0304     Total:     1.6533

*** Psi4 exiting successfully. Buy a developer a beer!
