                               Psi4 1.3.2 release

  ==> Input File <==

--------------------------------------------------------------------------
#psi4
#
memory 32 gb

molecule  {
0 1
  O        1.7627890     2.3683800    -0.1458810
  O        1.6754140    -2.4069960    -0.1279020
  C       -1.0215720    -0.0077180     0.3641480
  C       -2.5139530    -0.0194410     0.5634370
  C       -0.3230660    -1.2073880     0.2343750
  C       -0.3369501     1.2295728     0.2348143
  C       -3.2735700    -0.0197480    -0.7643280
  C        1.0346870     1.2106680    -0.0181020
  C        1.0480560    -1.1910380    -0.0190010
  C        1.7572726     0.0274225    -0.1495282
  H       -2.7927850    -0.9030380     1.1483340
  H       -2.8082890     0.8538600     1.1573130
  H       -0.8312370    -2.1635460     0.3309200
  H       -0.8789600     2.1456520     0.3351900
  H       -3.0230990     0.8672620    -1.3527740
  H       -4.3574070    -0.0294260    -0.6053230
  H       -3.0076490    -0.8981260    -1.3586750
  H        2.8074370     0.0467670    -0.3362510
  H        1.1590650     3.1223080    -0.0299710
  H        2.6215300    -2.2543830    -0.2976190
units angstrom
no_reorient  #important for SAPT in psi4, default
symmetry c1  #important for SAPT in psi4, default
}

set PROPERTIES_ORIGIN ["COM"]
properties('MP2/aug-cc-pvtz', properties = ['dipole'])
--------------------------------------------------------------------------

    Molecular point group: c1
  Charge       = 0
  Multiplicity = 1
  Basis Set: AUG-CC-PVTZ
    Blend: AUG-CC-PVTZ
  Basis Set: (AUG-CC-PVTZ AUX)
    Blend: AUG-CC-PVTZ-JKFIT

    Orbital Energies [Eh]
    ---------------------

    Doubly Occupied:

       1A    -20.594428     2A    -20.593110     3A    -11.312507
       4A    -11.310361     5A    -11.254854     6A    -11.232370
       7A    -11.223787     8A    -11.222225     9A    -11.220043
      10A    -11.216548    11A     -1.404679    12A     -1.402004
      13A     -1.146547    14A     -1.062602    15A     -1.001314
      16A     -0.986845    17A     -0.878139    18A     -0.834833
      19A     -0.807624    20A     -0.737542    21A     -0.689351
      22A     -0.674045    23A     -0.669394    24A     -0.611422
      25A     -0.602148    26A     -0.595740    27A     -0.588636
      28A     -0.576018    29A     -0.554137    30A     -0.549293
      31A     -0.526360    32A     -0.520257    33A     -0.488228
      34A     -0.482375    35A     -0.451367    36A     -0.323403
      37A     -0.311510

  @DF-RHF Final Energy:  -458.65857347930313

   => Energetics <=

    Nuclear Repulsion Energy =            506.7757420797853456
    One-Electron Energy =               -1629.5565400566072185
    Two-Electron Energy =                 664.1222244975185731
    Total Energy =                       -458.6585734793031861
  Basis Set: (AUG-CC-PVTZ AUX)
    Blend: AUG-CC-PVTZ-RI
    Molecular point group: c1

    Geometry (in Angstrom), charge = 0, multiplicity = 1:

       Center              X                  Y                   Z               Mass
    ------------   -----------------  -----------------  -----------------  -----------------
         O            1.761005268276     2.365165680940    -0.145547071693    15.994914619570
         O            1.673630268276    -2.410210319060    -0.127568071693    15.994914619570
         C           -1.023355731724    -0.010932319060     0.364481928307    12.000000000000
         C           -2.515736731724    -0.022655319060     0.563770928307    12.000000000000
         C           -0.324849731724    -1.210602319060     0.234708928307    12.000000000000
         C           -0.338733831724     1.226358480940     0.235148228307    12.000000000000
         C           -3.275353731724    -0.022962319060    -0.763994071693    12.000000000000
         C            1.032903268276     1.207453680940    -0.017768071693    12.000000000000
         C            1.046272268276    -1.194252319060    -0.018667071693    12.000000000000
         C            1.755488868276     0.024208180940    -0.149194271693    12.000000000000
         H           -2.794568731724    -0.906252319060     1.148667928307     1.007825032230
         H           -2.810072731724     0.850645680940     1.157646928307     1.007825032230
         H           -0.833020731724    -2.166760319060     0.331253928307     1.007825032230
         H           -0.880743731724     2.142437680940     0.335523928307     1.007825032230
         H           -3.024882731724     0.864047680940    -1.352440071693     1.007825032230
         H           -4.359190731724    -0.032640319060    -0.604989071693     1.007825032230
         H           -3.009432731724    -0.901340319060    -1.358341071693     1.007825032230
         H            2.805653268276     0.043552680940    -0.335917071693     1.007825032230
         H            1.157281268276     3.119093680940    -0.029637071693     1.007825032230
         H            2.619746268276    -2.257597319060    -0.297285071693     1.007825032230

  Basis Set: AUG-CC-PVTZ
    Blend: AUG-CC-PVTZ
  Basis Set: (AUG-CC-PVTZ AUX)
    Blend: AUG-CC-PVTZ-JKFIT
	 Reference Energy          =    -458.6585734793031293 [Eh]
	 Singles Energy            =      -0.0000000000000000 [Eh]
	 Same-Spin Energy          =      -0.4815234359037378 [Eh]
	 Opposite-Spin Energy      =      -1.5051967251402361 [Eh]
	 Correlation Energy        =      -1.9867201610439738 [Eh]
	 Total Energy              =    -460.6452936403471199 [Eh]

	 ================> DF-SCS-MP2 Energies <==================
	-----------------------------------------------------------
	 SCS Same-Spin Scale       =       0.3333333333333333 [-]
	 SCS Opposite-Spin Scale   =       1.2000000000000000 [-]
	 SCS Same-Spin Energy      =      -0.1605078119679126 [Eh]
	 SCS Opposite-Spin Energy  =      -1.8062360701682831 [Eh]
	 SCS Correlation Energy    =      -1.9667438821361958 [Eh]
	 SCS Total Energy          =    -460.6253173614393290 [Eh]
	-----------------------------------------------------------

  Dipole Moment: [D]
     X:    -0.5050      Y:     1.1666      Z:     0.0103     Total:     1.2712

*** Psi4 exiting successfully. Buy a developer a beer!
