                               Psi4 1.4a3.dev225

  ==> Input File <==

--------------------------------------------------------------------------
#psi4
#
memory 32 gb

molecule  {
0 1
  O       -1.8116000     2.3801270     0.1363720
  O       -1.7799440    -2.3994320     0.1189850
  C        0.9489570    -0.0306590    -0.3689570
  C        2.4429910    -0.0568610    -0.5708560
  C        0.2354480    -1.2220220    -0.2373930
  C        0.2798030     1.1938580    -0.2383990
  C        3.1984060    -0.0265600     0.7613490
  C       -1.0921630     1.2139390     0.0079710
  C       -1.1396310    -1.1871160     0.0102260
  C       -1.8132500     0.0254130     0.1385790
  H        2.7130484    -0.9419675    -1.1199205
  H        2.7446220     0.7994920    -1.1857830
  H        0.7258350    -2.1872220    -0.3369480
  H        0.8309290     2.1284970    -0.3452230
  H        2.9508560     0.8787730     1.3230630
  H        4.2811760    -0.0477390     0.6027570
  H        2.9230980    -0.8883860     1.3756490
  H       -2.8837580     0.0741080     0.3259950
  H       -1.1979550     3.1274200     0.0245130
  H       -2.7238770    -2.2320380     0.2881370
units angstrom
no_reorient  #important for SAPT in psi4, default
symmetry c1  #important for SAPT in psi4, default
}

set PROPERTIES_ORIGIN ["COM"]
properties('MP2/aug-cc-pvtz', properties = ['dipole'])
--------------------------------------------------------------------------

    Molecular point group: c1
  Charge       = 0
  Multiplicity = 1
  Basis Set: AUG-CC-PVTZ
    Blend: AUG-CC-PVTZ
  Basis Set: (AUG-CC-PVTZ AUX)
    Blend: AUG-CC-PVTZ-JKFIT

    Orbital Energies [Eh]
    ---------------------

    Doubly Occupied:

       1A    -20.595631     2A    -20.593365     3A    -11.311081
       4A    -11.309249     5A    -11.252187     6A    -11.230169
       7A    -11.224517     8A    -11.223249     9A    -11.219716
      10A    -11.216865    11A     -1.404216    12A     -1.400821
      13A     -1.149769    14A     -1.064092    15A     -1.000971
      16A     -0.987958    17A     -0.876819    18A     -0.836028
      19A     -0.808424    20A     -0.739721    21A     -0.687051
      22A     -0.674237    23A     -0.665583    24A     -0.612858
      25A     -0.602325    26A     -0.595262    27A     -0.587434
      28A     -0.575758    29A     -0.553312    30A     -0.548419
      31A     -0.523452    32A     -0.521862    33A     -0.489673
      34A     -0.482858    35A     -0.453724    36A     -0.325919
      37A     -0.311508

  @DF-RHF Final Energy:  -458.65974566893749

   => Energetics <=

    Nuclear Repulsion Energy =            507.1834079564678746
    One-Electron Energy =               -1630.3741410136040031
    Two-Electron Energy =                 664.5309873881986960
    Total Energy =                       -458.6597456689374894
  Basis Set: (AUG-CC-PVTZ AUX)
    Blend: AUG-CC-PVTZ-RI
    Molecular point group: c1

    Geometry (in Angstrom), charge = 0, multiplicity = 1:

       Center              X                  Y                   Z               Mass
    ------------   -----------------  -----------------  -----------------  -----------------
         O           -1.737182836878     2.384996896214     0.143076343145    15.994914619570
         O           -1.705526836878    -2.394562103786     0.125689343145    15.994914619570
         C            1.023374163122    -0.025789103786    -0.362252656855    12.000000000000
         C            2.517408163122    -0.051991103786    -0.564151656855    12.000000000000
         C            0.309865163122    -1.217152103786    -0.230688656855    12.000000000000
         C            0.354220163122     1.198727896214    -0.231694656855    12.000000000000
         C            3.272823163122    -0.021690103786     0.768053343145    12.000000000000
         C           -1.017745836878     1.218808896214     0.014675343145    12.000000000000
         C           -1.065213836878    -1.182246103786     0.016930343145    12.000000000000
         C           -1.738832836878     0.030282896214     0.145283343145    12.000000000000
         H            2.787465563122    -0.937097603786    -1.113216156855     1.007825032230
         H            2.819039163122     0.804361896214    -1.179078656855     1.007825032230
         H            0.800252163122    -2.182352103786    -0.330243656855     1.007825032230
         H            0.905346163122     2.133366896214    -0.338518656855     1.007825032230
         H            3.025273163122     0.883642896214     1.329767343145     1.007825032230
         H            4.355593163122    -0.042869103786     0.609461343145     1.007825032230
         H            2.997515163122    -0.883516103786     1.382353343145     1.007825032230
         H           -2.809340836878     0.078977896214     0.332699343145     1.007825032230
         H           -1.123537836878     3.132289896214     0.031217343145     1.007825032230
         H           -2.649459836878    -2.227168103786     0.294841343145     1.007825032230

  Basis Set: AUG-CC-PVTZ
    Blend: AUG-CC-PVTZ
  Basis Set: (AUG-CC-PVTZ AUX)
    Blend: AUG-CC-PVTZ-JKFIT
	 Reference Energy          =    -458.6597456689374894 [Eh]
	 Singles Energy            =      -0.0000000000000000 [Eh]
	 Same-Spin Energy          =      -0.4817191992770055 [Eh]
	 Opposite-Spin Energy      =      -1.5053471987024993 [Eh]
	 Correlation Energy        =      -1.9870663979795049 [Eh]
	 Total Energy              =    -460.6468120669169934 [Eh]

	 ================> DF-SCS-MP2 Energies <==================
	-----------------------------------------------------------
	 SCS Same-Spin Scale       =       0.3333333333333333 [-]
	 SCS Opposite-Spin Scale   =       1.2000000000000000 [-]
	 SCS Same-Spin Energy      =      -0.1605730664256685 [Eh]
	 SCS Opposite-Spin Energy  =      -1.8064166384429992 [Eh]
	 SCS Correlation Energy    =      -1.9669897048686675 [Eh]
	 SCS Total Energy          =    -460.6267353738061843 [Eh]
	-----------------------------------------------------------

  Dipole Moment: [D]
     X:     0.5348      Y:     1.2155      Z:    -0.0256     Total:     1.3282

*** Psi4 exiting successfully. Buy a developer a beer!
