                               Psi4 1.4a3.dev225

  ==> Input File <==

--------------------------------------------------------------------------
#psi4
#
memory 32 gb

molecule  {
0 1
  O       -1.8116000     2.3801270     0.1363720
  O       -1.7799440    -2.3994320     0.1189850
  C        0.9489570    -0.0306590    -0.3689570
  C        2.4429910    -0.0568610    -0.5708560
  C        0.2354480    -1.2220220    -0.2373930
  C        0.2798030     1.1938580    -0.2383990
  C        3.1984060    -0.0265600     0.7613490
  C       -1.0921630     1.2139390     0.0079710
  C       -1.1396310    -1.1871160     0.0102260
  C       -1.8132500     0.0254130     0.1385790
  H        2.7230876    -0.9748705    -1.1403315
  H        2.7446220     0.7994920    -1.1857830
  H        0.7258350    -2.1872220    -0.3369480
  H        0.8309290     2.1284970    -0.3452230
  H        2.9508560     0.8787730     1.3230630
  H        4.2811760    -0.0477390     0.6027570
  H        2.9230980    -0.8883860     1.3756490
  H       -2.8837580     0.0741080     0.3259950
  H       -1.1979550     3.1274200     0.0245130
  H       -2.7238770    -2.2320380     0.2881370
units angstrom
no_reorient  #important for SAPT in psi4, default
symmetry c1  #important for SAPT in psi4, default
}

set PROPERTIES_ORIGIN ["COM"]
properties('MP2/aug-cc-pvtz', properties = ['dipole'])
--------------------------------------------------------------------------

    Molecular point group: c1
  Charge       = 0
  Multiplicity = 1
  Basis Set: AUG-CC-PVTZ
    Blend: AUG-CC-PVTZ
  Basis Set: (AUG-CC-PVTZ AUX)
    Blend: AUG-CC-PVTZ-JKFIT

    Orbital Energies [Eh]
    ---------------------

    Doubly Occupied:

       1A    -20.595753     2A    -20.593413     3A    -11.311234
       4A    -11.309294     5A    -11.252530     6A    -11.235062
       7A    -11.224640     8A    -11.223543     9A    -11.220085
      10A    -11.216907    11A     -1.404323    12A     -1.400882
      13A     -1.149755    14A     -1.063087    15A     -1.001087
      16A     -0.987650    17A     -0.875933    18A     -0.836149
      19A     -0.806852    20A     -0.738534    21A     -0.687167
      22A     -0.674326    23A     -0.665675    24A     -0.610697
      25A     -0.601830    26A     -0.595393    27A     -0.587083
      28A     -0.575837    29A     -0.553436    30A     -0.548706
      31A     -0.523606    32A     -0.521184    33A     -0.487151
      34A     -0.482382    35A     -0.453755    36A     -0.326026
      37A     -0.311590

  @DF-RHF Final Energy:  -458.65910980131429

   => Energetics <=

    Nuclear Repulsion Energy =            506.9933348588086233
    One-Electron Energy =               -1629.9997802671061891
    Two-Electron Energy =                 664.3473356069832789
    Total Energy =                       -458.6591098013143437
  Basis Set: (AUG-CC-PVTZ AUX)
    Blend: AUG-CC-PVTZ-RI
    Molecular point group: c1

    Geometry (in Angstrom), charge = 0, multiplicity = 1:

       Center              X                  Y                   Z               Mass
    ------------   -----------------  -----------------  -----------------  -----------------
         O           -1.737256117806     2.385237070968     0.143225332808    15.994914619570
         O           -1.705600117806    -2.394321929032     0.125838332808    15.994914619570
         C            1.023300882194    -0.025548929032    -0.362103667192    12.000000000000
         C            2.517334882194    -0.051750929032    -0.564002667192    12.000000000000
         C            0.309791882194    -1.216911929032    -0.230539667192    12.000000000000
         C            0.354146882194     1.198968070968    -0.231545667192    12.000000000000
         C            3.272749882194    -0.021449929032     0.768202332808    12.000000000000
         C           -1.017819117806     1.219049070968     0.014824332808    12.000000000000
         C           -1.065287117806    -1.182005929032     0.017079332808    12.000000000000
         C           -1.738906117806     0.030523070968     0.145432332808    12.000000000000
         H            2.797431482194    -0.969760429032    -1.133478167192     1.007825032230
         H            2.818965882194     0.804602070968    -1.178929667192     1.007825032230
         H            0.800178882194    -2.182111929032    -0.330094667192     1.007825032230
         H            0.905272882194     2.133607070968    -0.338369667192     1.007825032230
         H            3.025199882194     0.883883070968     1.329916332808     1.007825032230
         H            4.355519882194    -0.042628929032     0.609610332808     1.007825032230
         H            2.997441882194    -0.883275929032     1.382502332808     1.007825032230
         H           -2.809414117806     0.079218070968     0.332848332808     1.007825032230
         H           -1.123611117806     3.132530070968     0.031366332808     1.007825032230
         H           -2.649533117806    -2.226927929032     0.294990332808     1.007825032230

  Basis Set: AUG-CC-PVTZ
    Blend: AUG-CC-PVTZ
  Basis Set: (AUG-CC-PVTZ AUX)
    Blend: AUG-CC-PVTZ-JKFIT
	 Reference Energy          =    -458.6591098013142869 [Eh]
	 Singles Energy            =      -0.0000000000000000 [Eh]
	 Same-Spin Energy          =      -0.4817504041482121 [Eh]
	 Opposite-Spin Energy      =      -1.5056461108125903 [Eh]
	 Correlation Energy        =      -1.9873965149608024 [Eh]
	 Total Energy              =    -460.6465063162750653 [Eh]

	 ================> DF-SCS-MP2 Energies <==================
	-----------------------------------------------------------
	 SCS Same-Spin Scale       =       0.3333333333333333 [-]
	 SCS Opposite-Spin Scale   =       1.2000000000000000 [-]
	 SCS Same-Spin Energy      =      -0.1605834680494040 [Eh]
	 SCS Opposite-Spin Energy  =      -1.8067753329751082 [Eh]
	 SCS Correlation Energy    =      -1.9673588010245122 [Eh]
	 SCS Total Energy          =    -460.6264686023387753 [Eh]
	-----------------------------------------------------------

  Dipole Moment: [D]
     X:     0.5223      Y:     1.2310      Z:    -0.0091     Total:     1.3373

*** Psi4 exiting successfully. Buy a developer a beer!
