                               Psi4 1.3.2 release

  ==> Input File <==

--------------------------------------------------------------------------
#psi4
#
memory 32 gb

molecule  {
0 1
  O        1.7627890     2.3683800    -0.1458810
  O        1.6754140    -2.4069960    -0.1279020
  C       -1.0215720    -0.0077180     0.3641480
  C       -2.5139530    -0.0194410     0.5634370
  C       -0.3230660    -1.2073880     0.2343750
  C       -0.3370590     1.2052280     0.2348720
  C       -3.2735700    -0.0197480    -0.7643280
  C        1.0346870     1.2106680    -0.0181020
  C        1.0899232    -1.2147453    -0.0263633
  C        1.7368580     0.0147850    -0.1457440
  H       -2.7927850    -0.9030380     1.1483340
  H       -2.8082890     0.8538600     1.1573130
  H       -0.8312370    -2.1635460     0.3309200
  H       -0.8789600     2.1456520     0.3351900
  H       -3.0230990     0.8672620    -1.3527740
  H       -4.3574070    -0.0294260    -0.6053230
  H       -3.0076490    -0.8981260    -1.3586750
  H        2.8079068     0.0087981    -0.3362009
  H        1.1590650     3.1223080    -0.0299710
  H        2.6215300    -2.2543830    -0.2976190
units angstrom
no_reorient  #important for SAPT in psi4, default
symmetry c1  #important for SAPT in psi4, default
}

set PROPERTIES_ORIGIN ["COM"]
properties('MP2/aug-cc-pvtz', properties = ['dipole'])
--------------------------------------------------------------------------

    Molecular point group: c1
  Charge       = 0
  Multiplicity = 1
  Basis Set: AUG-CC-PVTZ
    Blend: AUG-CC-PVTZ
  Basis Set: (AUG-CC-PVTZ AUX)
    Blend: AUG-CC-PVTZ-JKFIT

    Orbital Energies [Eh]
    ---------------------

    Doubly Occupied:

       1A    -20.603171     2A    -20.594851     3A    -11.312509
       4A    -11.310653     5A    -11.249031     6A    -11.230619
       7A    -11.222853     8A    -11.220191     9A    -11.218346
      10A    -11.216986    11A     -1.426876    12A     -1.403700
      13A     -1.145122    14A     -1.062262    15A     -0.994984
      16A     -0.986245    17A     -0.874754    18A     -0.838556
      19A     -0.812398    20A     -0.742873    21A     -0.691321
      22A     -0.673321    23A     -0.667028    24A     -0.612841
      25A     -0.606408    26A     -0.597300    27A     -0.591693
      28A     -0.582309    29A     -0.550624    30A     -0.546113
      31A     -0.524915    32A     -0.517237    33A     -0.486138
      34A     -0.477916    35A     -0.450988    36A     -0.325905
      37A     -0.304360

  @DF-RHF Final Energy:  -458.65714315481193

   => Energetics <=

    Nuclear Repulsion Energy =            507.1867157403250985
    One-Electron Energy =               -1630.3409264009360413
    Two-Electron Energy =                 664.4970675057990093
    Total Energy =                       -458.6571431548119335
  Basis Set: (AUG-CC-PVTZ AUX)
    Blend: AUG-CC-PVTZ-RI
    Molecular point group: c1

    Geometry (in Angstrom), charge = 0, multiplicity = 1:

       Center              X                  Y                   Z               Mass
    ------------   -----------------  -----------------  -----------------  -----------------
         O            1.759146780224     2.370717588451    -0.145241466603    15.994914619570
         O            1.671771780224    -2.404658411549    -0.127262466603    15.994914619570
         C           -1.025214219776    -0.005380411549     0.364787533397    12.000000000000
         C           -2.517595219776    -0.017103411549     0.564076533397    12.000000000000
         C           -0.326708219776    -1.205050411549     0.235014533397    12.000000000000
         C           -0.340701219776     1.207565588451     0.235511533397    12.000000000000
         C           -3.277212219776    -0.017410411549    -0.763688466603    12.000000000000
         C            1.031044780224     1.213005588451    -0.017462466603    12.000000000000
         C            1.086280980224    -1.212407711549    -0.025723766603    12.000000000000
         C            1.733215780224     0.017122588451    -0.145104466603    12.000000000000
         H           -2.796427219776    -0.900700411549     1.148973533397     1.007825032230
         H           -2.811931219776     0.856197588451     1.157952533397     1.007825032230
         H           -0.834879219776    -2.161208411549     0.331559533397     1.007825032230
         H           -0.882602219776     2.147989588451     0.335829533397     1.007825032230
         H           -3.026741219776     0.869599588451    -1.352134466603     1.007825032230
         H           -4.361049219776    -0.027088411549    -0.604683466603     1.007825032230
         H           -3.011291219776    -0.895788411549    -1.358035466603     1.007825032230
         H            2.804264580224     0.011135688451    -0.335561366603     1.007825032230
         H            1.155422780224     3.124645588451    -0.029331466603     1.007825032230
         H            2.617887780224    -2.252045411549    -0.296979466603     1.007825032230

  Basis Set: AUG-CC-PVTZ
    Blend: AUG-CC-PVTZ
  Basis Set: (AUG-CC-PVTZ AUX)
    Blend: AUG-CC-PVTZ-JKFIT
	 Reference Energy          =    -458.6571431548119335 [Eh]
	 Singles Energy            =      -0.0000000000000000 [Eh]
	 Same-Spin Energy          =      -0.4817224662654646 [Eh]
	 Opposite-Spin Energy      =      -1.5050684829615548 [Eh]
	 Correlation Energy        =      -1.9867909492270195 [Eh]
	 Total Energy              =    -460.6439341040389763 [Eh]

	 ================> DF-SCS-MP2 Energies <==================
	-----------------------------------------------------------
	 SCS Same-Spin Scale       =       0.3333333333333333 [-]
	 SCS Opposite-Spin Scale   =       1.2000000000000000 [-]
	 SCS Same-Spin Energy      =      -0.1605741554218215 [Eh]
	 SCS Opposite-Spin Energy  =      -1.8060821795538657 [Eh]
	 SCS Correlation Energy    =      -1.9666563349756871 [Eh]
	 SCS Total Energy          =    -460.6237994897876433 [Eh]
	-----------------------------------------------------------

  Dipole Moment: [D]
     X:    -0.3077      Y:     0.9483      Z:    -0.0188     Total:     0.9971

*** Psi4 exiting successfully. Buy a developer a beer!
