                               Psi4 1.3.2 release

  ==> Input File <==

--------------------------------------------------------------------------
#psi4
#
memory 32 gb

molecule  {
0 1
  O        1.7627890     2.3683800    -0.1458810
  O        1.6754140    -2.4069960    -0.1279020
  C       -1.0215720    -0.0077180     0.3641480
  C       -2.5139530    -0.0194410     0.5634370
  C       -0.3230660    -1.2073880     0.2343750
  C       -0.3370590     1.2052280     0.2348720
  C       -3.2735700    -0.0197480    -0.7643280
  C        0.9363461     1.2102780     0.0000338
  C        1.0480560    -1.1910380    -0.0190010
  C        1.7368580     0.0147850    -0.1457440
  H       -2.7927850    -0.9030380     1.1483340
  H       -2.8082890     0.8538600     1.1573130
  H       -0.8312370    -2.1635460     0.3309200
  H       -0.8789600     2.1456520     0.3351900
  H       -3.0230990     0.8672620    -1.3527740
  H       -4.3574070    -0.0294260    -0.6053230
  H       -3.0076490    -0.8981260    -1.3586750
  H        2.8074370     0.0467670    -0.3362510
  H        1.1590650     3.1223080    -0.0299710
  H        2.6215300    -2.2543830    -0.2976190
units angstrom
no_reorient  #important for SAPT in psi4, default
symmetry c1  #important for SAPT in psi4, default
}

set PROPERTIES_ORIGIN ["COM"]
properties('MP2/aug-cc-pvtz', properties = ['dipole'])
--------------------------------------------------------------------------

    Molecular point group: c1
  Charge       = 0
  Multiplicity = 1
  Basis Set: AUG-CC-PVTZ
    Blend: AUG-CC-PVTZ
  Basis Set: (AUG-CC-PVTZ AUX)
    Blend: AUG-CC-PVTZ-JKFIT

    Orbital Energies [Eh]
    ---------------------

    Doubly Occupied:

       1A    -20.592339     2A    -20.587448     3A    -11.307410
       4A    -11.303322     5A    -11.254900     6A    -11.234607
       7A    -11.228333     8A    -11.221911     9A    -11.220888
      10A    -11.216955    11A     -1.402008    12A     -1.379261
      13A     -1.159624    14A     -1.062644    15A     -1.019797
      16A     -0.984096    17A     -0.882541    18A     -0.826388
      19A     -0.809848    20A     -0.737572    21A     -0.690932
      22A     -0.670581    23A     -0.653678    24A     -0.612884
      25A     -0.599973    26A     -0.594690    27A     -0.584507
      28A     -0.568131    29A     -0.555745    30A     -0.552676
      31A     -0.526916    32A     -0.514736    33A     -0.489982
      34A     -0.489138    35A     -0.459072    36A     -0.329267
      37A     -0.318278

  @DF-RHF Final Energy:  -458.64537405967394

   => Energetics <=

    Nuclear Repulsion Energy =            507.9749426991670020
    One-Electron Energy =               -1631.9544782074799514
    Two-Electron Energy =                 665.3341614486389517
    Total Energy =                       -458.6453740596739408
  Basis Set: (AUG-CC-PVTZ AUX)
    Blend: AUG-CC-PVTZ-RI
    Molecular point group: c1

    Geometry (in Angstrom), charge = 0, multiplicity = 1:

       Center              X                  Y                   Z               Mass
    ------------   -----------------  -----------------  -----------------  -----------------
         O            1.771336206495     2.368413843741    -0.147457233701    15.994914619570
         O            1.683961206495    -2.406962156259    -0.129478233701    15.994914619570
         C           -1.013024793505    -0.007684156259     0.362571766299    12.000000000000
         C           -2.505405793505    -0.019407156259     0.561860766299    12.000000000000
         C           -0.314518793505    -1.207354156259     0.232798766299    12.000000000000
         C           -0.328511793505     1.205261843741     0.233295766299    12.000000000000
         C           -3.265022793505    -0.019714156259    -0.765904233701    12.000000000000
         C            0.944893306495     1.210311843741    -0.001542433701    12.000000000000
         C            1.056603206495    -1.191004156259    -0.020577233701    12.000000000000
         C            1.745405206495     0.014818843741    -0.147320233701    12.000000000000
         H           -2.784237793505    -0.903004156259     1.146757766299     1.007825032230
         H           -2.799741793505     0.853893843741     1.155736766299     1.007825032230
         H           -0.822689793505    -2.163512156259     0.329343766299     1.007825032230
         H           -0.870412793505     2.145685843741     0.333613766299     1.007825032230
         H           -3.014551793505     0.867295843741    -1.354350233701     1.007825032230
         H           -4.348859793505    -0.029392156259    -0.606899233701     1.007825032230
         H           -2.999101793505    -0.898092156259    -1.360251233701     1.007825032230
         H            2.815984206495     0.046800843741    -0.337827233701     1.007825032230
         H            1.167612206495     3.122341843741    -0.031547233701     1.007825032230
         H            2.630077206495    -2.254349156259    -0.299195233701     1.007825032230

  Basis Set: AUG-CC-PVTZ
    Blend: AUG-CC-PVTZ
  Basis Set: (AUG-CC-PVTZ AUX)
    Blend: AUG-CC-PVTZ-JKFIT
	 Reference Energy          =    -458.6453740596739408 [Eh]
	 Singles Energy            =      -0.0000000000000000 [Eh]
	 Same-Spin Energy          =      -0.4817623632529625 [Eh]
	 Opposite-Spin Energy      =      -1.5068676300690513 [Eh]
	 Correlation Energy        =      -1.9886299933220137 [Eh]
	 Total Energy              =    -460.6340040529959765 [Eh]

	 ================> DF-SCS-MP2 Energies <==================
	-----------------------------------------------------------
	 SCS Same-Spin Scale       =       0.3333333333333333 [-]
	 SCS Opposite-Spin Scale   =       1.2000000000000000 [-]
	 SCS Same-Spin Energy      =      -0.1605874544176542 [Eh]
	 SCS Opposite-Spin Energy  =      -1.8082411560828615 [Eh]
	 SCS Correlation Energy    =      -1.9688286105005157 [Eh]
	 SCS Total Energy          =    -460.6142026701744498 [Eh]
	-----------------------------------------------------------

  Dipole Moment: [D]
     X:    -0.7857      Y:     0.9529      Z:     0.0540     Total:     1.2362

*** Psi4 exiting successfully. Buy a developer a beer!
