                               Psi4 1.3.2 release

  ==> Input File <==

--------------------------------------------------------------------------
#psi4
#
memory 32 gb

molecule  {
0 1
  O        1.7627890     2.3683800    -0.1458810
  O        1.6754140    -2.4069960    -0.1279020
  C       -1.0215720    -0.0077180     0.3641480
  C       -2.5122027     0.0593381     0.5655885
  C       -0.2616160    -1.1686259     0.2273283
  C       -0.3370590     1.2052280     0.2348720
  C       -3.2735700    -0.0197480    -0.7643280
  C        1.0346870     1.2106680    -0.0181020
  C        1.0480560    -1.1910380    -0.0190010
  C        1.7368580     0.0147850    -0.1457440
  H       -2.7927850    -0.9030380     1.1483340
  H       -2.8082890     0.8538600     1.1573130
  H       -0.8312370    -2.1635460     0.3309200
  H       -0.8789600     2.1456520     0.3351900
  H       -3.0230990     0.8672620    -1.3527740
  H       -4.3574070    -0.0294260    -0.6053230
  H       -3.0076490    -0.8981260    -1.3586750
  H        2.8074370     0.0467670    -0.3362510
  H        1.1590650     3.1223080    -0.0299710
  H        2.6215300    -2.2543830    -0.2976190
units angstrom
no_reorient  #important for SAPT in psi4, default
symmetry c1  #important for SAPT in psi4, default
}

set PROPERTIES_ORIGIN ["COM"]
properties('MP2/aug-cc-pvtz', properties = ['dipole'])
--------------------------------------------------------------------------

    Molecular point group: c1
  Charge       = 0
  Multiplicity = 1
  Basis Set: AUG-CC-PVTZ
    Blend: AUG-CC-PVTZ
  Basis Set: (AUG-CC-PVTZ AUX)
    Blend: AUG-CC-PVTZ-JKFIT

    Orbital Energies [Eh]
    ---------------------

    Doubly Occupied:

       1A    -20.594309     2A    -20.591808     3A    -11.308164
       4A    -11.300293     5A    -11.252917     6A    -11.235783
       7A    -11.223538     8A    -11.223314     9A    -11.221816
      10A    -11.215988    11A     -1.404301    12A     -1.400859
      13A     -1.156339    14A     -1.066021    15A     -1.007566
      16A     -0.988335    17A     -0.879311    18A     -0.834081
      19A     -0.813028    20A     -0.738761    21A     -0.687495
      22A     -0.679352    23A     -0.662653    24A     -0.613601
      25A     -0.602041    26A     -0.600243    27A     -0.581437
      28A     -0.576524    29A     -0.553942    30A     -0.549969
      31A     -0.528186    32A     -0.507505    33A     -0.498230
      34A     -0.472273    35A     -0.455405    36A     -0.324334
      37A     -0.316632

  @DF-RHF Final Energy:  -458.64527107009832

   => Energetics <=

    Nuclear Repulsion Energy =            508.5638646609339730
    One-Electron Energy =               -1633.0855637801084868
    Two-Electron Energy =                 665.8764280490763667
    Total Energy =                       -458.6452710700982607
  Basis Set: (AUG-CC-PVTZ AUX)
    Blend: AUG-CC-PVTZ-RI
    Molecular point group: c1

    Geometry (in Angstrom), charge = 0, multiplicity = 1:

       Center              X                  Y                   Z               Mass
    ------------   -----------------  -----------------  -----------------  -----------------
         O            1.757296072047     2.358164013335    -0.145455525552    15.994914619570
         O            1.669921072047    -2.417211986665    -0.127476525552    15.994914619570
         C           -1.027064927953    -0.017933986665     0.364573474448    12.000000000000
         C           -2.517695627953     0.049122113335     0.566013974448    12.000000000000
         C           -0.267108927953    -1.178841886665     0.227753774448    12.000000000000
         C           -0.342551927953     1.195012013335     0.235297474448    12.000000000000
         C           -3.279062927953    -0.029963986665    -0.763902525552    12.000000000000
         C            1.029194072047     1.200452013335    -0.017676525552    12.000000000000
         C            1.042563072047    -1.201253986665    -0.018575525552    12.000000000000
         C            1.731365072047     0.004569013335    -0.145318525552    12.000000000000
         H           -2.798277927953    -0.913253986665     1.148759474448     1.007825032230
         H           -2.813781927953     0.843644013335     1.157738474448     1.007825032230
         H           -0.836729927953    -2.173761986665     0.331345474448     1.007825032230
         H           -0.884452927953     2.135436013335     0.335615474448     1.007825032230
         H           -3.028591927953     0.857046013335    -1.352348525552     1.007825032230
         H           -4.362899927953    -0.039641986665    -0.604897525552     1.007825032230
         H           -3.013141927953    -0.908341986665    -1.358249525552     1.007825032230
         H            2.801944072047     0.036551013335    -0.335825525552     1.007825032230
         H            1.153572072047     3.112092013335    -0.029545525552     1.007825032230
         H            2.616037072047    -2.264598986665    -0.297193525552     1.007825032230

  Basis Set: AUG-CC-PVTZ
    Blend: AUG-CC-PVTZ
  Basis Set: (AUG-CC-PVTZ AUX)
    Blend: AUG-CC-PVTZ-JKFIT
	 Reference Energy          =    -458.6452710700983175 [Eh]
	 Singles Energy            =      -0.0000000000000000 [Eh]
	 Same-Spin Energy          =      -0.4823005402335677 [Eh]
	 Opposite-Spin Energy      =      -1.5060614364217288 [Eh]
	 Correlation Energy        =      -1.9883619766552965 [Eh]
	 Total Energy              =    -460.6336330467536300 [Eh]

	 ================> DF-SCS-MP2 Energies <==================
	-----------------------------------------------------------
	 SCS Same-Spin Scale       =       0.3333333333333333 [-]
	 SCS Opposite-Spin Scale   =       1.2000000000000000 [-]
	 SCS Same-Spin Energy      =      -0.1607668467445225 [Eh]
	 SCS Opposite-Spin Energy  =      -1.8072737237060745 [Eh]
	 SCS Correlation Energy    =      -1.9680405704505970 [Eh]
	 SCS Total Energy          =    -460.6133116405488863 [Eh]
	-----------------------------------------------------------

  Dipole Moment: [D]
     X:    -0.5874      Y:     1.3377      Z:     0.0056     Total:     1.4610

*** Psi4 exiting successfully. Buy a developer a beer!
