                               Psi4 1.3.2 release

  ==> Input File <==

--------------------------------------------------------------------------
#psi4
#
memory 32 gb

molecule  {
0 1
  O        1.7627890     2.3683800    -0.1458810
  O        1.6754140    -2.4069960    -0.1279020
  C       -1.0215720    -0.0077180     0.3641480
  C       -2.5139530    -0.0194410     0.5634370
  C       -0.3230660    -1.2073880     0.2343750
  C       -0.3370590     1.2052280     0.2348720
  C       -3.2735700    -0.0197480    -0.7643280
  C        1.0346870     1.2106680    -0.0181020
  C        1.0480560    -1.1910380    -0.0190010
  C        1.6874624    -0.0716873    -0.1366550
  H       -2.7927850    -0.9030380     1.1483340
  H       -2.8082890     0.8538600     1.1573130
  H       -0.8312370    -2.1635460     0.3309200
  H       -0.8789600     2.1456520     0.3351900
  H       -3.0230990     0.8672620    -1.3527740
  H       -4.3574070    -0.0294260    -0.6053230
  H       -3.0076490    -0.8981260    -1.3586750
  H        2.8074370     0.0467670    -0.3362510
  H        1.1590650     3.1223080    -0.0299710
  H        2.6215300    -2.2543830    -0.2976190
units angstrom
no_reorient  #important for SAPT in psi4, default
symmetry c1  #important for SAPT in psi4, default
}

set PROPERTIES_ORIGIN ["COM"]
properties('MP2/aug-cc-pvtz', properties = ['dipole'])
--------------------------------------------------------------------------

    Molecular point group: c1
  Charge       = 0
  Multiplicity = 1
  Basis Set: AUG-CC-PVTZ
    Blend: AUG-CC-PVTZ
  Basis Set: (AUG-CC-PVTZ AUX)
    Blend: AUG-CC-PVTZ-JKFIT

    Orbital Energies [Eh]
    ---------------------

    Doubly Occupied:

       1A    -20.601919     2A    -20.587606     3A    -11.317913
       4A    -11.293689     5A    -11.249426     6A    -11.231491
       7A    -11.224159     8A    -11.223716     9A    -11.219201
      10A    -11.215760    11A     -1.408541    12A     -1.399565
      13A     -1.155157    14A     -1.067897    15A     -1.004891
      16A     -0.986666    17A     -0.874563    18A     -0.843766
      19A     -0.806928    20A     -0.739713    21A     -0.689418
      22A     -0.677288    23A     -0.663077    24A     -0.612696
      25A     -0.604425    26A     -0.596206    27A     -0.582345
      28A     -0.577631    29A     -0.557394    30A     -0.540998
      31A     -0.525140    32A     -0.515233    33A     -0.487193
      34A     -0.478577    35A     -0.456789    36A     -0.335247
      37A     -0.308116

  @DF-RHF Final Energy:  -458.64614673492849

   => Energetics <=

    Nuclear Repulsion Energy =            508.4968686374311346
    One-Electron Energy =               -1632.9653505112703442
    Two-Electron Energy =                 665.8223351389107165
    Total Energy =                       -458.6461467349284931
  Basis Set: (AUG-CC-PVTZ AUX)
    Blend: AUG-CC-PVTZ-RI
    Molecular point group: c1

    Geometry (in Angstrom), charge = 0, multiplicity = 1:

       Center              X                  Y                   Z               Mass
    ------------   -----------------  -----------------  -----------------  -----------------
         O            1.767082192085     2.375895570171    -0.146670943341    15.994914619570
         O            1.679707192085    -2.399480429829    -0.128691943341    15.994914619570
         C           -1.017278807915    -0.000202429829     0.363358056659    12.000000000000
         C           -2.509659807915    -0.011925429829     0.562647056659    12.000000000000
         C           -0.318772807915    -1.199872429829     0.233585056659    12.000000000000
         C           -0.332765807915     1.212743570171     0.234082056659    12.000000000000
         C           -3.269276807915    -0.012232429829    -0.765117943341    12.000000000000
         C            1.038980192085     1.218183570171    -0.018891943341    12.000000000000
         C            1.052349192085    -1.183522429829    -0.019790943341    12.000000000000
         C            1.691755592085    -0.064171729829    -0.137444943341    12.000000000000
         H           -2.788491807915    -0.895522429829     1.147544056659     1.007825032230
         H           -2.803995807915     0.861375570171     1.156523056659     1.007825032230
         H           -0.826943807915    -2.156030429829     0.330130056659     1.007825032230
         H           -0.874666807915     2.153167570171     0.334400056659     1.007825032230
         H           -3.018805807915     0.874777570171    -1.353563943341     1.007825032230
         H           -4.353113807915    -0.021910429829    -0.606112943341     1.007825032230
         H           -3.003355807915    -0.890610429829    -1.359464943341     1.007825032230
         H            2.811730192085     0.054282570171    -0.337040943341     1.007825032230
         H            1.163358192085     3.129823570171    -0.030760943341     1.007825032230
         H            2.625823192085    -2.246867429829    -0.298408943341     1.007825032230

  Basis Set: AUG-CC-PVTZ
    Blend: AUG-CC-PVTZ
  Basis Set: (AUG-CC-PVTZ AUX)
    Blend: AUG-CC-PVTZ-JKFIT
	 Reference Energy          =    -458.6461467349284931 [Eh]
	 Singles Energy            =      -0.0000000000000000 [Eh]
	 Same-Spin Energy          =      -0.4817655644611292 [Eh]
	 Opposite-Spin Energy      =      -1.5055994923399791 [Eh]
	 Correlation Energy        =      -1.9873650568011083 [Eh]
	 Total Energy              =    -460.6335117917295747 [Eh]

	 ================> DF-SCS-MP2 Energies <==================
	-----------------------------------------------------------
	 SCS Same-Spin Scale       =       0.3333333333333333 [-]
	 SCS Opposite-Spin Scale   =       1.2000000000000000 [-]
	 SCS Same-Spin Energy      =      -0.1605885214870431 [Eh]
	 SCS Opposite-Spin Energy  =      -1.8067193908079748 [Eh]
	 SCS Correlation Energy    =      -1.9673079122950179 [Eh]
	 SCS Total Energy          =    -460.6134546472235343 [Eh]
	-----------------------------------------------------------

  Dipole Moment: [D]
     X:    -0.5147      Y:     1.4335      Z:     0.0141     Total:     1.5231

*** Psi4 exiting successfully. Buy a developer a beer!
