                               Psi4 1.3.2 release

  ==> Input File <==

--------------------------------------------------------------------------
#psi4
#
memory 32 gb

molecule  {
0 1
  O        1.7226373     2.3934721    -0.1383343
  O        1.6754140    -2.4069960    -0.1279020
  C       -1.0215720    -0.0077180     0.3641480
  C       -2.5139530    -0.0194410     0.5634370
  C       -0.3230660    -1.2073880     0.2343750
  C       -0.3363612     1.2539111     0.2350171
  C       -3.2735700    -0.0197480    -0.7643280
  C        1.0346870     1.2106680    -0.0181020
  C        1.0480560    -1.1910380    -0.0190010
  C        1.7368580     0.0147850    -0.1457440
  H       -2.7927850    -0.9030380     1.1483340
  H       -2.8082890     0.8538600     1.1573130
  H       -0.8312370    -2.1635460     0.3309200
  H       -0.8789600     2.1456520     0.3351900
  H       -3.0230990     0.8672620    -1.3527740
  H       -4.3574070    -0.0294260    -0.6053230
  H       -3.0076490    -0.8981260    -1.3586750
  H        2.8074370     0.0467670    -0.3362510
  H        1.1590650     3.1223080    -0.0299710
  H        2.6215300    -2.2543830    -0.2976190
units angstrom
no_reorient  #important for SAPT in psi4, default
symmetry c1  #important for SAPT in psi4, default
}

set PROPERTIES_ORIGIN ["COM"]
properties('MP2/aug-cc-pvtz', properties = ['dipole'])
--------------------------------------------------------------------------

    Molecular point group: c1
  Charge       = 0
  Multiplicity = 1
  Basis Set: AUG-CC-PVTZ
    Blend: AUG-CC-PVTZ
  Basis Set: (AUG-CC-PVTZ AUX)
    Blend: AUG-CC-PVTZ-JKFIT

    Orbital Energies [Eh]
    ---------------------

    Doubly Occupied:

       1A    -20.595124     2A    -20.587046     3A    -11.311721
       4A    -11.311358     5A    -11.256246     6A    -11.231873
       7A    -11.225442     8A    -11.221125     9A    -11.219779
      10A    -11.217148    11A     -1.411205    12A     -1.403953
      13A     -1.146589    14A     -1.064112    15A     -1.003586
      16A     -0.986237    17A     -0.877561    18A     -0.842276
      19A     -0.809210    20A     -0.737751    21A     -0.692343
      22A     -0.681034    23A     -0.671371    24A     -0.610273
      25A     -0.602534    26A     -0.596008    27A     -0.587453
      28A     -0.576769    29A     -0.553677    30A     -0.547292
      31A     -0.530359    32A     -0.520406    33A     -0.488048
      34A     -0.478811    35A     -0.451353    36A     -0.324316
      37A     -0.311784

  @DF-RHF Final Energy:  -458.65769576638507

   => Energetics <=

    Nuclear Repulsion Energy =            507.0085227928099130
    One-Electron Energy =               -1629.9660914016162678
    Two-Electron Energy =                 664.2998728424214505
    Total Energy =                       -458.6576957663850180
  Basis Set: (AUG-CC-PVTZ AUX)
    Blend: AUG-CC-PVTZ-RI
    Molecular point group: c1

    Geometry (in Angstrom), charge = 0, multiplicity = 1:

       Center              X                  Y                   Z               Mass
    ------------   -----------------  -----------------  -----------------  -----------------
         O            1.727228187349     2.386333951487    -0.139221166700    15.994914619570
         O            1.680004887349    -2.414134148513    -0.128788866700    15.994914619570
         C           -1.016981112651    -0.014856148513     0.363261133300    12.000000000000
         C           -2.509362112651    -0.026579148513     0.562550133300    12.000000000000
         C           -0.318475112651    -1.214526148513     0.233488133300    12.000000000000
         C           -0.331770312651     1.246772951487     0.234130233300    12.000000000000
         C           -3.268979112651    -0.026886148513    -0.765214866700    12.000000000000
         C            1.039277887349     1.203529851487    -0.018988866700    12.000000000000
         C            1.052646887349    -1.198176148513    -0.019887866700    12.000000000000
         C            1.741448887349     0.007646851487    -0.146630866700    12.000000000000
         H           -2.788194112651    -0.910176148513     1.147447133300     1.007825032230
         H           -2.803698112651     0.846721851487     1.156426133300     1.007825032230
         H           -0.826646112651    -2.170684148513     0.330033133300     1.007825032230
         H           -0.874369112651     2.138513851487     0.334303133300     1.007825032230
         H           -3.018508112651     0.860123851487    -1.353660866700     1.007825032230
         H           -4.352816112651    -0.036564148513    -0.606209866700     1.007825032230
         H           -3.003058112651    -0.905264148513    -1.359561866700     1.007825032230
         H            2.812027887349     0.039628851487    -0.337137866700     1.007825032230
         H            1.163655887349     3.115169851487    -0.030857866700     1.007825032230
         H            2.626120887349    -2.261521148513    -0.298505866700     1.007825032230

  Basis Set: AUG-CC-PVTZ
    Blend: AUG-CC-PVTZ
  Basis Set: (AUG-CC-PVTZ AUX)
    Blend: AUG-CC-PVTZ-JKFIT
	 Reference Energy          =    -458.6576957663850749 [Eh]
	 Singles Energy            =      -0.0000000000000000 [Eh]
	 Same-Spin Energy          =      -0.4808098534751196 [Eh]
	 Opposite-Spin Energy      =      -1.5035572277253948 [Eh]
	 Correlation Energy        =      -1.9843670812005145 [Eh]
	 Total Energy              =    -460.6420628475855779 [Eh]

	 ================> DF-SCS-MP2 Energies <==================
	-----------------------------------------------------------
	 SCS Same-Spin Scale       =       0.3333333333333333 [-]
	 SCS Opposite-Spin Scale   =       1.2000000000000000 [-]
	 SCS Same-Spin Energy      =      -0.1602699511583732 [Eh]
	 SCS Opposite-Spin Energy  =      -1.8042686732704736 [Eh]
	 SCS Correlation Energy    =      -1.9645386244288467 [Eh]
	 SCS Total Energy          =    -460.6222343908139010 [Eh]
	-----------------------------------------------------------

  Dipole Moment: [D]
     X:    -0.4735      Y:     1.1202      Z:     0.0058     Total:     1.2162

*** Psi4 exiting successfully. Buy a developer a beer!
