                               Psi4 1.3.2 release

  ==> Input File <==

--------------------------------------------------------------------------
#psi4
#
memory 32 gb

molecule  {
0 1
  O        1.7627890     2.3683800    -0.1458810
  O        1.6754140    -2.4069960    -0.1279020
  C       -1.0215720    -0.0077180     0.3641480
  C       -2.5139530    -0.0194410     0.5634370
  C       -0.3230660    -1.2073880     0.2343750
  C       -0.3370590     1.2052280     0.2348720
  C       -3.2735700    -0.0197480    -0.7643280
  C        1.0346870     1.2106680    -0.0181020
  C        1.0480560    -1.1910380    -0.0190010
  C        1.7368580     0.0147850    -0.1457440
  H       -2.7927850    -0.9030380     1.1483340
  H       -2.8082890     0.8538600     1.1573130
  H       -0.8312370    -2.1635460     0.3309200
  H       -0.9783906     2.3182056     0.3535968
  H       -3.0230990     0.8672620    -1.3527740
  H       -4.3574070    -0.0294260    -0.6053230
  H       -3.0076490    -0.8981260    -1.3586750
  H        2.8074370     0.0467670    -0.3362510
  H        1.1590650     3.1223080    -0.0299710
  H        2.6215300    -2.2543830    -0.2976190
units angstrom
no_reorient  #important for SAPT in psi4, default
symmetry c1  #important for SAPT in psi4, default
}

set PROPERTIES_ORIGIN ["COM"]
properties('MP2/aug-cc-pvtz', properties = ['dipole'])
--------------------------------------------------------------------------

    Molecular point group: c1
  Charge       = 0
  Multiplicity = 1
  Basis Set: AUG-CC-PVTZ
    Blend: AUG-CC-PVTZ
  Basis Set: (AUG-CC-PVTZ AUX)
    Blend: AUG-CC-PVTZ-JKFIT

    Orbital Energies [Eh]
    ---------------------

    Doubly Occupied:

       1A    -20.595372     2A    -20.594467     3A    -11.313447
       4A    -11.310245     5A    -11.254365     6A    -11.245039
       7A    -11.232381     8A    -11.226070     9A    -11.219668
      10A    -11.218153    11A     -1.405555    12A     -1.402677
      13A     -1.151504    14A     -1.064896    15A     -0.999721
      16A     -0.986803    17A     -0.876013    18A     -0.833586
      19A     -0.808524    20A     -0.740855    21A     -0.683565
      22A     -0.676262    23A     -0.651467    24A     -0.612414
      25A     -0.601829    26A     -0.591983    27A     -0.587103
      28A     -0.577074    29A     -0.550947    30A     -0.547946
      31A     -0.522278    32A     -0.507122    33A     -0.487597
      34A     -0.482363    35A     -0.455526    36A     -0.327717
      37A     -0.313139

  @DF-RHF Final Energy:  -458.63845463030111

   => Energetics <=

    Nuclear Repulsion Energy =            506.5490991450719775
    One-Electron Energy =               -1629.0637596259678048
    Two-Electron Energy =                 663.8762058505947152
    Total Energy =                       -458.6384546303011120
  Basis Set: (AUG-CC-PVTZ AUX)
    Blend: AUG-CC-PVTZ-RI
    Molecular point group: c1

    Geometry (in Angstrom), charge = 0, multiplicity = 1:

       Center              X                  Y                   Z               Mass
    ------------   -----------------  -----------------  -----------------  -----------------
         O            1.763514832027     2.367120396059    -0.146015345273    15.994914619570
         O            1.676139832027    -2.408255603941    -0.128036345273    15.994914619570
         C           -1.020846167973    -0.008977603941     0.364013654727    12.000000000000
         C           -2.513227167973    -0.020700603941     0.563302654727    12.000000000000
         C           -0.322340167973    -1.208647603941     0.234240654727    12.000000000000
         C           -0.336333167973     1.203968396059     0.234737654727    12.000000000000
         C           -3.272844167973    -0.021007603941    -0.764462345273    12.000000000000
         C            1.035412832027     1.209408396059    -0.018236345273    12.000000000000
         C            1.048781832027    -1.192297603941    -0.019135345273    12.000000000000
         C            1.737583832027     0.013525396059    -0.145878345273    12.000000000000
         H           -2.792059167973    -0.904297603941     1.148199654727     1.007825032230
         H           -2.807563167973     0.852600396059     1.157178654727     1.007825032230
         H           -0.830511167973    -2.164805603941     0.330785654727     1.007825032230
         H           -0.977664767973     2.316945996059     0.353462454727     1.007825032230
         H           -3.022373167973     0.866002396059    -1.352908345273     1.007825032230
         H           -4.356681167973    -0.030685603941    -0.605457345273     1.007825032230
         H           -3.006923167973    -0.899385603941    -1.358809345273     1.007825032230
         H            2.808162832027     0.045507396059    -0.336385345273     1.007825032230
         H            1.159790832027     3.121048396059    -0.030105345273     1.007825032230
         H            2.622255832027    -2.255642603941    -0.297753345273     1.007825032230

  Basis Set: AUG-CC-PVTZ
    Blend: AUG-CC-PVTZ
  Basis Set: (AUG-CC-PVTZ AUX)
    Blend: AUG-CC-PVTZ-JKFIT
	 Reference Energy          =    -458.6384546303011120 [Eh]
	 Singles Energy            =      -0.0000000000000000 [Eh]
	 Same-Spin Energy          =      -0.4822820059477751 [Eh]
	 Opposite-Spin Energy      =      -1.5072277342335432 [Eh]
	 Correlation Energy        =      -1.9895097401813182 [Eh]
	 Total Energy              =    -460.6279643704824025 [Eh]

	 ================> DF-SCS-MP2 Energies <==================
	-----------------------------------------------------------
	 SCS Same-Spin Scale       =       0.3333333333333333 [-]
	 SCS Opposite-Spin Scale   =       1.2000000000000000 [-]
	 SCS Same-Spin Energy      =      -0.1607606686492584 [Eh]
	 SCS Opposite-Spin Energy  =      -1.8086732810802517 [Eh]
	 SCS Correlation Energy    =      -1.9694339497295101 [Eh]
	 SCS Total Energy          =    -460.6078885800306466 [Eh]
	-----------------------------------------------------------

  Dipole Moment: [D]
     X:    -0.4637      Y:     1.1082      Z:     0.0008     Total:     1.2013

*** Psi4 exiting successfully. Buy a developer a beer!
