                               Psi4 1.3.2 release

  ==> Input File <==

--------------------------------------------------------------------------
#psi4
#
memory 32 gb

molecule  {
0 1
  O        1.7627890     2.3683800    -0.1458810
  O        1.6754140    -2.4069960    -0.1279020
  C       -1.0198894    -0.0077573     0.3771792
  C       -2.5139530    -0.0194410     0.5634370
  C       -0.3230660    -1.2073880     0.2343750
  C       -0.3370590     1.2052280     0.2348720
  C       -3.2851275    -0.0198591    -0.7576488
  C        1.0346870     1.2106680    -0.0181020
  C        1.0480560    -1.1910380    -0.0190010
  C        1.7368580     0.0147850    -0.1457440
  H       -2.7927850    -0.9030380     1.1483340
  H       -2.8082890     0.8538600     1.1573130
  H       -0.8312370    -2.1635460     0.3309200
  H       -0.8789600     2.1456520     0.3351900
  H       -3.0230990     0.8672620    -1.3527740
  H       -4.3574070    -0.0294260    -0.6053230
  H       -3.0076490    -0.8981260    -1.3586750
  H        2.8074370     0.0467670    -0.3362510
  H        1.1590650     3.1223080    -0.0299710
  H        2.6215300    -2.2543830    -0.2976190
units angstrom
no_reorient  #important for SAPT in psi4, default
symmetry c1  #important for SAPT in psi4, default
}

set PROPERTIES_ORIGIN ["COM"]
properties('MP2/aug-cc-pvtz', properties = ['dipole'])
--------------------------------------------------------------------------

    Molecular point group: c1
  Charge       = 0
  Multiplicity = 1
  Basis Set: AUG-CC-PVTZ
    Blend: AUG-CC-PVTZ
  Basis Set: (AUG-CC-PVTZ AUX)
    Blend: AUG-CC-PVTZ-JKFIT

    Orbital Energies [Eh]
    ---------------------

    Doubly Occupied:

       1A    -20.595734     2A    -20.593365     3A    -11.310549
       4A    -11.308842     5A    -11.251594     6A    -11.232018
       7A    -11.224177     8A    -11.222928     9A    -11.219882
      10A    -11.216155    11A     -1.405433    12A     -1.401914
      13A     -1.150332    14A     -1.063788    15A     -1.001389
      16A     -0.988188    17A     -0.877023    18A     -0.836716
      19A     -0.808032    20A     -0.739717    21A     -0.687629
      22A     -0.675281    23A     -0.665980    24A     -0.612179
      25A     -0.602141    26A     -0.595169    27A     -0.587371
      28A     -0.576531    29A     -0.552943    30A     -0.550310
      31A     -0.523195    32A     -0.520709    33A     -0.485943
      34A     -0.483844    35A     -0.453985    36A     -0.326108
      37A     -0.311353

  @DF-RHF Final Energy:  -458.65981870324322

   => Energetics <=

    Nuclear Repulsion Energy =            507.3679626167686365
    One-Electron Energy =               -1630.7386681620789659
    Two-Electron Energy =                 664.7108868420671115
    Total Energy =                       -458.6598187032432179
  Basis Set: (AUG-CC-PVTZ AUX)
    Blend: AUG-CC-PVTZ-RI
    Molecular point group: c1

    Geometry (in Angstrom), charge = 0, multiplicity = 1:

       Center              X                  Y                   Z               Mass
    ------------   -----------------  -----------------  -----------------  -----------------
         O            1.763647304011     2.368393019232    -0.147594087926    15.994914619570
         O            1.676272304011    -2.406982980768    -0.129615087926    15.994914619570
         C           -1.019031095989    -0.007744280768     0.375466112074    12.000000000000
         C           -2.513094695989    -0.019427980768     0.561723912074    12.000000000000
         C           -0.322207695989    -1.207374980768     0.232661912074    12.000000000000
         C           -0.336200695989     1.205241019232     0.233158912074    12.000000000000
         C           -3.284269195989    -0.019846080768    -0.759361887926    12.000000000000
         C            1.035545304011     1.210681019232    -0.019815087926    12.000000000000
         C            1.048914304011    -1.191024980768    -0.020714087926    12.000000000000
         C            1.737716304011     0.014798019232    -0.147457087926    12.000000000000
         H           -2.791926695989    -0.903024980768     1.146620912074     1.007825032230
         H           -2.807430695989     0.853873019232     1.155599912074     1.007825032230
         H           -0.830378695989    -2.163532980768     0.329206912074     1.007825032230
         H           -0.878101695989     2.145665019232     0.333476912074     1.007825032230
         H           -3.022240695989     0.867275019232    -1.354487087926     1.007825032230
         H           -4.356548695989    -0.029412980768    -0.607036087926     1.007825032230
         H           -3.006790695989    -0.898112980768    -1.360388087926     1.007825032230
         H            2.808295304011     0.046780019232    -0.337964087926     1.007825032230
         H            1.159923304011     3.122321019232    -0.031684087926     1.007825032230
         H            2.622388304011    -2.254369980768    -0.299332087926     1.007825032230

  Basis Set: AUG-CC-PVTZ
    Blend: AUG-CC-PVTZ
  Basis Set: (AUG-CC-PVTZ AUX)
    Blend: AUG-CC-PVTZ-JKFIT
	 Reference Energy          =    -458.6598187032432179 [Eh]
	 Singles Energy            =      -0.0000000000000000 [Eh]
	 Same-Spin Energy          =      -0.4817457216960265 [Eh]
	 Opposite-Spin Energy      =      -1.5052375846834711 [Eh]
	 Correlation Energy        =      -1.9869833063794977 [Eh]
	 Total Energy              =    -460.6468020096227178 [Eh]

	 ================> DF-SCS-MP2 Energies <==================
	-----------------------------------------------------------
	 SCS Same-Spin Scale       =       0.3333333333333333 [-]
	 SCS Opposite-Spin Scale   =       1.2000000000000000 [-]
	 SCS Same-Spin Energy      =      -0.1605819072320088 [Eh]
	 SCS Opposite-Spin Energy  =      -1.8062851016201653 [Eh]
	 SCS Correlation Energy    =      -1.9668670088521742 [Eh]
	 SCS Total Energy          =    -460.6266857120953659 [Eh]
	-----------------------------------------------------------

  Dipole Moment: [D]
     X:    -0.4933      Y:     1.2208      Z:     0.0024     Total:     1.3167

*** Psi4 exiting successfully. Buy a developer a beer!
