                               Psi4 1.3.2 release

  ==> Input File <==

--------------------------------------------------------------------------
#psi4
#
memory 32 gb

molecule  {
0 1
  O        1.7627890     2.3683800    -0.1458810
  O        1.6754140    -2.4069960    -0.1279020
  C       -1.0215720    -0.0077180     0.3641480
  C       -2.5139530    -0.0194410     0.5634370
  C       -0.3230660    -1.2073880     0.2343750
  C       -0.3370590     1.2052280     0.2348720
  C       -3.2735700    -0.0197480    -0.7643280
  C        1.0346870     1.2106680    -0.0181020
  C        0.9497277    -1.1922105    -0.0008305
  C        1.7368580     0.0147850    -0.1457440
  H       -2.7927850    -0.9030380     1.1483340
  H       -2.8082890     0.8538600     1.1573130
  H       -0.8312370    -2.1635460     0.3309200
  H       -0.8789600     2.1456520     0.3351900
  H       -3.0230990     0.8672620    -1.3527740
  H       -4.3574070    -0.0294260    -0.6053230
  H       -3.0076490    -0.8981260    -1.3586750
  H        2.8074370     0.0467670    -0.3362510
  H        1.1590650     3.1223080    -0.0299710
  H        2.6215300    -2.2543830    -0.2976190
units angstrom
no_reorient  #important for SAPT in psi4, default
symmetry c1  #important for SAPT in psi4, default
}

set PROPERTIES_ORIGIN ["COM"]
properties('MP2/aug-cc-pvtz', properties = ['dipole'])
--------------------------------------------------------------------------

    Molecular point group: c1
  Charge       = 0
  Multiplicity = 1
  Basis Set: AUG-CC-PVTZ
    Blend: AUG-CC-PVTZ
  Basis Set: (AUG-CC-PVTZ AUX)
    Blend: AUG-CC-PVTZ-JKFIT

    Orbital Energies [Eh]
    ---------------------

    Doubly Occupied:

       1A    -20.595353     2A    -20.579579     3A    -11.309173
       4A    -11.302954     5A    -11.256749     6A    -11.235206
       7A    -11.227935     8A    -11.227322     9A    -11.222395
      10A    -11.209504    11A     -1.404697    12A     -1.373833
      13A     -1.159664    14A     -1.063292    15A     -1.020817
      16A     -0.984621    17A     -0.881682    18A     -0.827970
      19A     -0.808433    20A     -0.735639    21A     -0.689219
      22A     -0.673562    23A     -0.667362    24A     -0.613187
      25A     -0.601698    26A     -0.593320    27A     -0.586488
      28A     -0.566278    29A     -0.555095    30A     -0.549954
      31A     -0.526134    32A     -0.508258    33A     -0.491576
      34A     -0.488348    35A     -0.457888    36A     -0.328124
      37A     -0.318806

  @DF-RHF Final Energy:  -458.64553428101880

   => Energetics <=

    Nuclear Repulsion Energy =            508.0215765777426213
    One-Electron Energy =               -1632.0499936422104383
    Two-Electron Energy =                 665.3828827834489630
    Total Energy =                       -458.6455342810187403
  Basis Set: (AUG-CC-PVTZ AUX)
    Blend: AUG-CC-PVTZ-RI
    Molecular point group: c1

    Geometry (in Angstrom), charge = 0, multiplicity = 1:

       Center              X                  Y                   Z               Mass
    ------------   -----------------  -----------------  -----------------  -----------------
         O            1.771335111383     2.368481853668    -0.147460249604    15.994914619570
         O            1.683960111383    -2.406894146332    -0.129481249604    15.994914619570
         C           -1.013025888617    -0.007616146332     0.362568750396    12.000000000000
         C           -2.505406888617    -0.019339146332     0.561857750396    12.000000000000
         C           -0.314519888617    -1.207286146332     0.232795750396    12.000000000000
         C           -0.328512888617     1.205329853668     0.233292750396    12.000000000000
         C           -3.265023888617    -0.019646146332    -0.765907249604    12.000000000000
         C            1.043233111383     1.210769853668    -0.019681249604    12.000000000000
         C            0.958273811383    -1.192108646332    -0.002409749604    12.000000000000
         C            1.745404111383     0.014886853668    -0.147323249604    12.000000000000
         H           -2.784238888617    -0.902936146332     1.146754750396     1.007825032230
         H           -2.799742888617     0.853961853668     1.155733750396     1.007825032230
         H           -0.822690888617    -2.163444146332     0.329340750396     1.007825032230
         H           -0.870413888617     2.145753853668     0.333610750396     1.007825032230
         H           -3.014552888617     0.867363853668    -1.354353249604     1.007825032230
         H           -4.348860888617    -0.029324146332    -0.606902249604     1.007825032230
         H           -2.999102888617    -0.898024146332    -1.360254249604     1.007825032230
         H            2.815983111383     0.046868853668    -0.337830249604     1.007825032230
         H            1.167611111383     3.122409853668    -0.031550249604     1.007825032230
         H            2.630076111383    -2.254281146332    -0.299198249604     1.007825032230

  Basis Set: AUG-CC-PVTZ
    Blend: AUG-CC-PVTZ
  Basis Set: (AUG-CC-PVTZ AUX)
    Blend: AUG-CC-PVTZ-JKFIT
	 Reference Energy          =    -458.6455342810187972 [Eh]
	 Singles Energy            =      -0.0000000000000000 [Eh]
	 Same-Spin Energy          =      -0.4816024110747176 [Eh]
	 Opposite-Spin Energy      =      -1.5059107428096343 [Eh]
	 Correlation Energy        =      -1.9875131538843520 [Eh]
	 Total Energy              =    -460.6330474349031761 [Eh]

	 ================> DF-SCS-MP2 Energies <==================
	-----------------------------------------------------------
	 SCS Same-Spin Scale       =       0.3333333333333333 [-]
	 SCS Opposite-Spin Scale   =       1.2000000000000000 [-]
	 SCS Same-Spin Energy      =      -0.1605341370249059 [Eh]
	 SCS Opposite-Spin Energy  =      -1.8070928913715611 [Eh]
	 SCS Correlation Energy    =      -1.9676270283964670 [Eh]
	 SCS Total Energy          =    -460.6131613094152613 [Eh]
	-----------------------------------------------------------

  Dipole Moment: [D]
     X:    -0.8312      Y:     1.5167      Z:     0.0602     Total:     1.7306

*** Psi4 exiting successfully. Buy a developer a beer!
