                               Psi4 1.3.2 release

  ==> Input File <==

--------------------------------------------------------------------------
#psi4
#
memory 32 gb

molecule  {
0 1
  O        1.7627890     2.3683800    -0.1458810
  O        1.6754140    -2.4069960    -0.1279020
  C       -1.0215720    -0.0077180     0.3641480
  C       -2.5139530    -0.0194410     0.5634370
  C       -0.2623164    -1.1685614     0.2229625
  C       -0.2755956     1.1671078     0.2233936
  C       -3.2735700    -0.0197480    -0.7643280
  C        1.0346870     1.2106680    -0.0181020
  C        1.0480560    -1.1910380    -0.0190010
  C        1.7368580     0.0147850    -0.1457440
  H       -2.7927850    -0.9030380     1.1483340
  H       -2.8082890     0.8538600     1.1573130
  H       -0.8312370    -2.1635460     0.3309200
  H       -0.8789600     2.1456520     0.3351900
  H       -3.0230990     0.8672620    -1.3527740
  H       -4.3574070    -0.0294260    -0.6053230
  H       -3.0076490    -0.8981260    -1.3586750
  H        2.8074370     0.0467670    -0.3362510
  H        1.1590650     3.1223080    -0.0299710
  H        2.6215300    -2.2543830    -0.2976190
units angstrom
no_reorient  #important for SAPT in psi4, default
symmetry c1  #important for SAPT in psi4, default
}

set PROPERTIES_ORIGIN ["COM"]
properties('MP2/aug-cc-pvtz', properties = ['dipole'])
--------------------------------------------------------------------------

    Molecular point group: c1
  Charge       = 0
  Multiplicity = 1
  Basis Set: AUG-CC-PVTZ
    Blend: AUG-CC-PVTZ
  Basis Set: (AUG-CC-PVTZ AUX)
    Blend: AUG-CC-PVTZ-JKFIT

    Orbital Energies [Eh]
    ---------------------

    Doubly Occupied:

       1A    -20.593062     2A    -20.590434     3A    -11.299834
       4A    -11.298201     5A    -11.252914     6A    -11.237556
       7A    -11.223869     8A    -11.223397     9A    -11.222317
      10A    -11.216440    11A     -1.403551    12A     -1.399735
      13A     -1.162038    14A     -1.066920    15A     -1.014058
      16A     -0.988728    17A     -0.882658    18A     -0.828410
      19A     -0.815568    20A     -0.743689    21A     -0.686996
      22A     -0.678004    23A     -0.653946    24A     -0.615867
      25A     -0.603739    26A     -0.597221    27A     -0.584415
      28A     -0.576563    29A     -0.550867    30A     -0.548469
      31A     -0.524398    32A     -0.501344    33A     -0.494024
      34A     -0.484065    35A     -0.461037    36A     -0.323851
      37A     -0.321003

  @DF-RHF Final Energy:  -458.64480765869411

   => Energetics <=

    Nuclear Repulsion Energy =            509.6508697041263645
    One-Electron Energy =               -1635.2529770236874356
    Two-Electron Energy =                 666.9572996608670792
    Total Energy =                       -458.6448076586940488
  Basis Set: (AUG-CC-PVTZ AUX)
    Blend: AUG-CC-PVTZ-RI
    Molecular point group: c1

    Geometry (in Angstrom), charge = 0, multiplicity = 1:

       Center              X                  Y                   Z               Mass
    ------------   -----------------  -----------------  -----------------  -----------------
         O            1.752167063212     2.368318551621    -0.143891453677    15.994914619570
         O            1.664792063212    -2.407057448379    -0.125912453677    15.994914619570
         C           -1.032193936788    -0.007779448379     0.366137546323    12.000000000000
         C           -2.524574936788    -0.019502448379     0.565426546323    12.000000000000
         C           -0.272938336788    -1.168622848379     0.224952046323    12.000000000000
         C           -0.286217536788     1.167046351621     0.225383146323    12.000000000000
         C           -3.284191936788    -0.019809448379    -0.762338453677    12.000000000000
         C            1.024065063212     1.210606551621    -0.016112453677    12.000000000000
         C            1.037434063212    -1.191099448379    -0.017011453677    12.000000000000
         C            1.726236063212     0.014723551621    -0.143754453677    12.000000000000
         H           -2.803406936788    -0.903099448379     1.150323546323     1.007825032230
         H           -2.818910936788     0.853798551621     1.159302546323     1.007825032230
         H           -0.841858936788    -2.163607448379     0.332909546323     1.007825032230
         H           -0.889581936788     2.145590551621     0.337179546323     1.007825032230
         H           -3.033720936788     0.867200551621    -1.350784453677     1.007825032230
         H           -4.368028936788    -0.029487448379    -0.603333453677     1.007825032230
         H           -3.018270936788    -0.898187448379    -1.356685453677     1.007825032230
         H            2.796815063212     0.046705551621    -0.334261453677     1.007825032230
         H            1.148443063212     3.122246551621    -0.027981453677     1.007825032230
         H            2.610908063212    -2.254444448379    -0.295629453677     1.007825032230

  Basis Set: AUG-CC-PVTZ
    Blend: AUG-CC-PVTZ
  Basis Set: (AUG-CC-PVTZ AUX)
    Blend: AUG-CC-PVTZ-JKFIT
	 Reference Energy          =    -458.6448076586941056 [Eh]
	 Singles Energy            =      -0.0000000000000000 [Eh]
	 Same-Spin Energy          =      -0.4826612109292956 [Eh]
	 Opposite-Spin Energy      =      -1.5061206594759577 [Eh]
	 Correlation Energy        =      -1.9887818704052533 [Eh]
	 Total Energy              =    -460.6335895290993676 [Eh]

	 ================> DF-SCS-MP2 Energies <==================
	-----------------------------------------------------------
	 SCS Same-Spin Scale       =       0.3333333333333333 [-]
	 SCS Opposite-Spin Scale   =       1.2000000000000000 [-]
	 SCS Same-Spin Energy      =      -0.1608870703097652 [Eh]
	 SCS Opposite-Spin Energy  =      -1.8073447913711491 [Eh]
	 SCS Correlation Energy    =      -1.9682318616809142 [Eh]
	 SCS Total Energy          =    -460.6130395203750254 [Eh]
	-----------------------------------------------------------

  Dipole Moment: [D]
     X:    -0.6827      Y:     1.2133      Z:     0.0233     Total:     1.3924

*** Psi4 exiting successfully. Buy a developer a beer!
