                               Psi4 1.4a3.dev225

  ==> Input File <==

--------------------------------------------------------------------------
#psi4
#
memory 32 gb

molecule  {
0 1
  O       -1.8116000     2.3801270     0.1363720
  O       -1.7799440    -2.3994320     0.1189850
  C        0.9489570    -0.0306590    -0.3689570
  C        2.4429910    -0.0568610    -0.5708560
  C        0.2354480    -1.2220220    -0.2373930
  C        0.2798030     1.1938580    -0.2383990
  C        3.1984060    -0.0265600     0.7613490
  C       -1.0921630     1.2139390     0.0079710
  C       -1.1396310    -1.1871160     0.0102260
  C       -1.8132500     0.0254130     0.1385790
  H        2.7180680    -0.9584190    -1.1301260
  H        2.7446220     0.7994920    -1.1857830
  H        0.7258350    -2.1872220    -0.3369480
  H        0.8309290     2.1284970    -0.3452230
  H        2.9508560     0.8787730     1.3230630
  H        4.2811760    -0.0477390     0.6027570
  H        2.9230980    -0.8883860     1.3756490
  H       -2.8837580     0.0741080     0.3259950
  H       -1.1664345     3.1658055     0.0187672
  H       -2.7238770    -2.2320380     0.2881370
units angstrom
no_reorient  #important for SAPT in psi4, default
symmetry c1  #important for SAPT in psi4, default
}

set PROPERTIES_ORIGIN ["COM"]
properties('MP2/aug-cc-pvtz', properties = ['dipole'])
--------------------------------------------------------------------------

    Molecular point group: c1
  Charge       = 0
  Multiplicity = 1
  Basis Set: AUG-CC-PVTZ
    Blend: AUG-CC-PVTZ
  Basis Set: (AUG-CC-PVTZ AUX)
    Blend: AUG-CC-PVTZ-JKFIT

    Orbital Energies [Eh]
    ---------------------

    Doubly Occupied:

       1A    -20.599498     2A    -20.593219     3A    -11.310747
       4A    -11.309094     5A    -11.252101     6A    -11.232493
       7A    -11.224329     8A    -11.222993     9A    -11.219801
      10A    -11.216539    11A     -1.401600    12A     -1.393538
      13A     -1.148960    14A     -1.062885    15A     -0.999829
      16A     -0.987292    17A     -0.876092    18A     -0.832207
      19A     -0.806329    20A     -0.735457    21A     -0.686426
      22A     -0.669986    23A     -0.665198    24A     -0.610550
      25A     -0.600965    26A     -0.594823    27A     -0.586488
      28A     -0.574858    29A     -0.552420    30A     -0.547333
      31A     -0.523123    32A     -0.521292    33A     -0.488198
      34A     -0.482312    35A     -0.453200    36A     -0.325718
      37A     -0.311068

  @DF-RHF Final Energy:  -458.65446388079823

   => Energetics <=

    Nuclear Repulsion Energy =            506.8032210901105259
    One-Electron Energy =               -1629.6774488593168826
    Two-Electron Energy =                 664.2197638884080106
    Total Energy =                       -458.6544638807982892
  Basis Set: (AUG-CC-PVTZ AUX)
    Blend: AUG-CC-PVTZ-RI
    Molecular point group: c1

    Geometry (in Angstrom), charge = 0, multiplicity = 1:

       Center              X                  Y                   Z               Mass
    ------------   -----------------  -----------------  -----------------  -----------------
         O           -1.737449560566     2.384836789444     0.143192779322    15.994914619570
         O           -1.705793560566    -2.394722210556     0.125805779322    15.994914619570
         C            1.023107439434    -0.025949210556    -0.362136220678    12.000000000000
         C            2.517141439434    -0.052151210556    -0.564035220678    12.000000000000
         C            0.309598439434    -1.217312210556    -0.230572220678    12.000000000000
         C            0.353953439434     1.198567789444    -0.231578220678    12.000000000000
         C            3.272556439434    -0.021850210556     0.768169779322    12.000000000000
         C           -1.018012560566     1.218648789444     0.014791779322    12.000000000000
         C           -1.065480560566    -1.182406210556     0.017046779322    12.000000000000
         C           -1.739099560566     0.030122789444     0.145399779322    12.000000000000
         H            2.792218439434    -0.953709210556    -1.123305220678     1.007825032230
         H            2.818772439434     0.804201789444    -1.178962220678     1.007825032230
         H            0.799985439434    -2.182512210556    -0.330127220678     1.007825032230
         H            0.905079439434     2.133206789444    -0.338402220678     1.007825032230
         H            3.025006439434     0.883482789444     1.329883779322     1.007825032230
         H            4.355326439434    -0.043029210556     0.609577779322     1.007825032230
         H            2.997248439434    -0.883676210556     1.382469779322     1.007825032230
         H           -2.809607560566     0.078817789444     0.332815779322     1.007825032230
         H           -1.092284060566     3.170515289444     0.025587979322     1.007825032230
         H           -2.649726560566    -2.227328210556     0.294957779322     1.007825032230

  Basis Set: AUG-CC-PVTZ
    Blend: AUG-CC-PVTZ
  Basis Set: (AUG-CC-PVTZ AUX)
    Blend: AUG-CC-PVTZ-JKFIT
	 Reference Energy          =    -458.6544638807982324 [Eh]
	 Singles Energy            =      -0.0000000000000000 [Eh]
	 Same-Spin Energy          =      -0.4823548110631743 [Eh]
	 Opposite-Spin Energy      =      -1.5070975803186819 [Eh]
	 Correlation Energy        =      -1.9894523913818563 [Eh]
	 Total Energy              =    -460.6439162721800926 [Eh]

	 ================> DF-SCS-MP2 Energies <==================
	-----------------------------------------------------------
	 SCS Same-Spin Scale       =       0.3333333333333333 [-]
	 SCS Opposite-Spin Scale   =       1.2000000000000000 [-]
	 SCS Same-Spin Energy      =      -0.1607849370210581 [Eh]
	 SCS Opposite-Spin Energy  =      -1.8085170963824182 [Eh]
	 SCS Correlation Energy    =      -1.9693020334034763 [Eh]
	 SCS Total Energy          =    -460.6237659142017264 [Eh]
	-----------------------------------------------------------

  Dipole Moment: [D]
     X:     0.5413      Y:     1.2744      Z:    -0.0205     Total:     1.3847

*** Psi4 exiting successfully. Buy a developer a beer!
