                               Psi4 1.3.2 release

  ==> Input File <==

--------------------------------------------------------------------------
#psi4
#
memory 32 gb

molecule  {
0 1
  O        1.7627890     2.3683800    -0.1458810
  O        1.6649611    -2.4125058    -0.1259394
  C       -1.0215720    -0.0077180     0.3641480
  C       -2.5139530    -0.0194410     0.5634370
  C       -0.3228610    -1.2195549     0.2344071
  C       -0.3370590     1.2052280     0.2348720
  C       -3.2735700    -0.0197480    -0.7643280
  C        1.0346870     1.2106680    -0.0181020
  C        1.0480560    -1.1910380    -0.0190010
  C        1.7368580     0.0147850    -0.1457440
  H       -2.7927850    -0.9030380     1.1483340
  H       -2.8082890     0.8538600     1.1573130
  H       -0.8312370    -2.1635460     0.3309200
  H       -0.8789600     2.1456520     0.3351900
  H       -3.0230990     0.8672620    -1.3527740
  H       -4.3574070    -0.0294260    -0.6053230
  H       -3.0076490    -0.8981260    -1.3586750
  H        2.8074370     0.0467670    -0.3362510
  H        1.1590650     3.1223080    -0.0299710
  H        2.6215300    -2.2543830    -0.2976190
units angstrom
no_reorient  #important for SAPT in psi4, default
symmetry c1  #important for SAPT in psi4, default
}

set PROPERTIES_ORIGIN ["COM"]
properties('MP2/aug-cc-pvtz', properties = ['dipole'])
--------------------------------------------------------------------------

    Molecular point group: c1
  Charge       = 0
  Multiplicity = 1
  Basis Set: AUG-CC-PVTZ
    Blend: AUG-CC-PVTZ
  Basis Set: (AUG-CC-PVTZ AUX)
    Blend: AUG-CC-PVTZ-JKFIT

    Orbital Energies [Eh]
    ---------------------

    Doubly Occupied:

       1A    -20.596031     2A    -20.594097     3A    -11.310983
       4A    -11.308450     5A    -11.252588     6A    -11.232012
       7A    -11.224165     8A    -11.222932     9A    -11.219716
      10A    -11.215503    11A     -1.405428    12A     -1.400049
      13A     -1.149036    14A     -1.063748    15A     -1.001039
      16A     -0.987561    17A     -0.876527    18A     -0.836399
      19A     -0.806503    20A     -0.738855    21A     -0.688083
      22A     -0.675071    23A     -0.664527    24A     -0.611737
      25A     -0.602210    26A     -0.594912    27A     -0.588379
      28A     -0.576350    29A     -0.552246    30A     -0.549083
      31A     -0.524269    32A     -0.522257    33A     -0.487325
      34A     -0.482759    35A     -0.453162    36A     -0.325494
      37A     -0.311048

  @DF-RHF Final Energy:  -458.65896071342871

   => Energetics <=

    Nuclear Repulsion Energy =            507.2900998013766412
    One-Electron Energy =               -1630.5970518244505456
    Two-Electron Energy =                 664.6479913096451355
    Total Energy =                       -458.6589607134286553
  Basis Set: (AUG-CC-PVTZ AUX)
    Blend: AUG-CC-PVTZ-RI
    Molecular point group: c1

    Geometry (in Angstrom), charge = 0, multiplicity = 1:

       Center              X                  Y                   Z               Mass
    ------------   -----------------  -----------------  -----------------  -----------------
         O            1.763982171006     2.370075716502    -0.146111138491    15.994914619570
         O            1.666154271006    -2.410810083498    -0.126169538491    15.994914619570
         C           -1.020378828994    -0.006022283498     0.363917861509    12.000000000000
         C           -2.512759828994    -0.017745283498     0.563206861509    12.000000000000
         C           -0.321667828994    -1.217859183498     0.234176961509    12.000000000000
         C           -0.335865828994     1.206923716502     0.234641861509    12.000000000000
         C           -3.272376828994    -0.018052283498    -0.764558138491    12.000000000000
         C            1.035880171006     1.212363716502    -0.018332138491    12.000000000000
         C            1.049249171006    -1.189342283498    -0.019231138491    12.000000000000
         C            1.738051171006     0.016480716502    -0.145974138491    12.000000000000
         H           -2.791591828994    -0.901342283498     1.148103861509     1.007825032230
         H           -2.807095828994     0.855555716502     1.157082861509     1.007825032230
         H           -0.830043828994    -2.161850283498     0.330689861509     1.007825032230
         H           -0.877766828994     2.147347716502     0.334959861509     1.007825032230
         H           -3.021905828994     0.868957716502    -1.353004138491     1.007825032230
         H           -4.356213828994    -0.027730283498    -0.605553138491     1.007825032230
         H           -3.006455828994    -0.896430283498    -1.358905138491     1.007825032230
         H            2.808630171006     0.048462716502    -0.336481138491     1.007825032230
         H            1.160258171006     3.124003716502    -0.030201138491     1.007825032230
         H            2.622723171006    -2.252687283498    -0.297849138491     1.007825032230

  Basis Set: AUG-CC-PVTZ
    Blend: AUG-CC-PVTZ
  Basis Set: (AUG-CC-PVTZ AUX)
    Blend: AUG-CC-PVTZ-JKFIT
	 Reference Energy          =    -458.6589607134287121 [Eh]
	 Singles Energy            =      -0.0000000000000000 [Eh]
	 Same-Spin Energy          =      -0.4818803401716855 [Eh]
	 Opposite-Spin Energy      =      -1.5056571672794283 [Eh]
	 Correlation Energy        =      -1.9875375074511139 [Eh]
	 Total Energy              =    -460.6464982208798347 [Eh]

	 ================> DF-SCS-MP2 Energies <==================
	-----------------------------------------------------------
	 SCS Same-Spin Scale       =       0.3333333333333333 [-]
	 SCS Opposite-Spin Scale   =       1.2000000000000000 [-]
	 SCS Same-Spin Energy      =      -0.1606267800572285 [Eh]
	 SCS Opposite-Spin Energy  =      -1.8067886007353140 [Eh]
	 SCS Correlation Energy    =      -1.9674153807925425 [Eh]
	 SCS Total Energy          =    -460.6263760942212571 [Eh]
	-----------------------------------------------------------

  Dipole Moment: [D]
     X:    -0.4871      Y:     1.2295      Z:     0.0079     Total:     1.3225

*** Psi4 exiting successfully. Buy a developer a beer!
