                               Psi4 1.3.2 release

  ==> Input File <==

--------------------------------------------------------------------------
#psi4
#
memory 32 gb

molecule  {
0 1
  O        1.7627890     2.3683800    -0.1458810
  O        1.6754140    -2.4069960    -0.1279020
  C       -1.0215720    -0.0077180     0.3641480
  C       -2.5139530    -0.0194410     0.5634370
  C       -0.3230660    -1.2073880     0.2343750
  C       -0.2391842     1.3786606     0.2163875
  C       -3.2735700    -0.0197480    -0.7643280
  C        1.0346870     1.2106680    -0.0181020
  C        1.0480560    -1.1910380    -0.0190010
  C        1.7368580     0.0147850    -0.1457440
  H       -2.7927850    -0.9030380     1.1483340
  H       -2.8082890     0.8538600     1.1573130
  H       -0.8312370    -2.1635460     0.3309200
  H       -0.8789600     2.1456520     0.3351900
  H       -3.0230990     0.8672620    -1.3527740
  H       -4.3574070    -0.0294260    -0.6053230
  H       -3.0076490    -0.8981260    -1.3586750
  H        2.8074370     0.0467670    -0.3362510
  H        1.1590650     3.1223080    -0.0299710
  H        2.6215300    -2.2543830    -0.2976190
units angstrom
no_reorient  #important for SAPT in psi4, default
symmetry c1  #important for SAPT in psi4, default
}

set PROPERTIES_ORIGIN ["COM"]
properties('MP2/aug-cc-pvtz', properties = ['dipole'])
--------------------------------------------------------------------------

    Molecular point group: c1
  Charge       = 0
  Multiplicity = 1
  Basis Set: AUG-CC-PVTZ
    Blend: AUG-CC-PVTZ
  Basis Set: (AUG-CC-PVTZ AUX)
    Blend: AUG-CC-PVTZ-JKFIT

    Orbital Energies [Eh]
    ---------------------

    Doubly Occupied:

       1A    -20.597221     2A    -20.579364     3A    -11.314497
       4A    -11.297929     5A    -11.270214     6A    -11.235639
       7A    -11.222287     8A    -11.222171     9A    -11.222029
      10A    -11.219187    11A     -1.406350    12A     -1.397199
      13A     -1.139548    14A     -1.063541    15A     -1.013507
      16A     -0.981538    17A     -0.884706    18A     -0.835461
      19A     -0.804488    20A     -0.732847    21A     -0.692452
      22A     -0.681835    23A     -0.671838    24A     -0.610862
      25A     -0.603870    26A     -0.596412    27A     -0.588304
      28A     -0.575251    29A     -0.557133    30A     -0.543595
      31A     -0.533441    32A     -0.517193    33A     -0.491418
      34A     -0.461577    35A     -0.446504    36A     -0.329171
      37A     -0.310225

  @DF-RHF Final Energy:  -458.61960989531553

   => Energetics <=

    Nuclear Repulsion Energy =            505.9383551436358175
    One-Electron Energy =               -1627.8143230418725125
    Two-Electron Energy =                 663.2563580029211607
    Total Energy =                       -458.6196098953155342
  Basis Set: (AUG-CC-PVTZ AUX)
    Blend: AUG-CC-PVTZ-RI
    Molecular point group: c1

    Geometry (in Angstrom), charge = 0, multiplicity = 1:

       Center              X                  Y                   Z               Mass
    ------------   -----------------  -----------------  -----------------  -----------------
         O            1.754282384877     2.353306288058    -0.144274429961    15.994914619570
         O            1.666907384877    -2.422069711942    -0.126295429961    15.994914619570
         C           -1.030078615123    -0.022791711942     0.365754570039    12.000000000000
         C           -2.522459615123    -0.034514711942     0.565043570039    12.000000000000
         C           -0.331572615123    -1.222461711942     0.235981570039    12.000000000000
         C           -0.247690815123     1.363586888058     0.217994070039    12.000000000000
         C           -3.282076615123    -0.034821711942    -0.762721429961    12.000000000000
         C            1.026180384877     1.195594288058    -0.016495429961    12.000000000000
         C            1.039549384877    -1.206111711942    -0.017394429961    12.000000000000
         C            1.728351384877    -0.000288711942    -0.144137429961    12.000000000000
         H           -2.801291615123    -0.918111711942     1.149940570039     1.007825032230
         H           -2.816795615123     0.838786288058     1.158919570039     1.007825032230
         H           -0.839743615123    -2.178619711942     0.332526570039     1.007825032230
         H           -0.887466615123     2.130578288058     0.336796570039     1.007825032230
         H           -3.031605615123     0.852188288058    -1.351167429961     1.007825032230
         H           -4.365913615123    -0.044499711942    -0.603716429961     1.007825032230
         H           -3.016155615123    -0.913199711942    -1.357068429961     1.007825032230
         H            2.798930384877     0.031693288058    -0.334644429961     1.007825032230
         H            1.150558384877     3.107234288058    -0.028364429961     1.007825032230
         H            2.613023384877    -2.269456711942    -0.296012429961     1.007825032230

  Basis Set: AUG-CC-PVTZ
    Blend: AUG-CC-PVTZ
  Basis Set: (AUG-CC-PVTZ AUX)
    Blend: AUG-CC-PVTZ-JKFIT
	 Reference Energy          =    -458.6196098953155342 [Eh]
	 Singles Energy            =      -0.0000000000000000 [Eh]
	 Same-Spin Energy          =      -0.4807783980814218 [Eh]
	 Opposite-Spin Energy      =      -1.5063037770486571 [Eh]
	 Correlation Energy        =      -1.9870821751300789 [Eh]
	 Total Energy              =    -460.6066920704456038 [Eh]

	 ================> DF-SCS-MP2 Energies <==================
	-----------------------------------------------------------
	 SCS Same-Spin Scale       =       0.3333333333333333 [-]
	 SCS Opposite-Spin Scale   =       1.2000000000000000 [-]
	 SCS Same-Spin Energy      =      -0.1602594660271406 [Eh]
	 SCS Opposite-Spin Energy  =      -1.8075645324583884 [Eh]
	 SCS Correlation Energy    =      -1.9678239984855290 [Eh]
	 SCS Total Energy          =    -460.5874338938010624 [Eh]
	-----------------------------------------------------------

  Dipole Moment: [D]
     X:    -0.6961      Y:     0.8593      Z:     0.0346     Total:     1.1064

*** Psi4 exiting successfully. Buy a developer a beer!
