                               Psi4 1.3.2 release

  ==> Input File <==

--------------------------------------------------------------------------
#psi4
#
memory 32 gb

molecule  {
0 1
  O        1.7627890     2.3683800    -0.1458810
  O        1.6754140    -2.4069960    -0.1279020
  C       -0.9799732     0.0163458     0.3564743
  C       -2.5139530    -0.0194410     0.5634370
  C       -0.3230660    -1.2073880     0.2343750
  C       -0.3370590     1.2052280     0.2348720
  C       -3.2735700    -0.0197480    -0.7643280
  C        1.0346870     1.2106680    -0.0181020
  C        1.0466646    -1.1423863    -0.0187160
  C        1.7368580     0.0147850    -0.1457440
  H       -2.7927850    -0.9030380     1.1483340
  H       -2.8082890     0.8538600     1.1573130
  H       -0.8312370    -2.1635460     0.3309200
  H       -0.8789600     2.1456520     0.3351900
  H       -3.0230990     0.8672620    -1.3527740
  H       -4.3574070    -0.0294260    -0.6053230
  H       -3.0076490    -0.8981260    -1.3586750
  H        2.8074370     0.0467670    -0.3362510
  H        1.1590650     3.1223080    -0.0299710
  H        2.6215300    -2.2543830    -0.2976190
units angstrom
no_reorient  #important for SAPT in psi4, default
symmetry c1  #important for SAPT in psi4, default
}

set PROPERTIES_ORIGIN ["COM"]
properties('MP2/aug-cc-pvtz', properties = ['dipole'])
--------------------------------------------------------------------------

    Molecular point group: c1
  Charge       = 0
  Multiplicity = 1
  Basis Set: AUG-CC-PVTZ
    Blend: AUG-CC-PVTZ
  Basis Set: (AUG-CC-PVTZ AUX)
    Blend: AUG-CC-PVTZ-JKFIT

    Orbital Energies [Eh]
    ---------------------

    Doubly Occupied:

       1A    -20.598449     2A    -20.585058     3A    -11.313659
       4A    -11.304113     5A    -11.248434     6A    -11.233444
       7A    -11.223039     8A    -11.221862     9A    -11.219068
      10A    -11.216806    11A     -1.407715    12A     -1.380703
      13A     -1.159279    14A     -1.063950    15A     -1.005242
      16A     -0.993390    17A     -0.871637    18A     -0.842280
      19A     -0.803075    20A     -0.739046    21A     -0.691636
      22A     -0.674396    23A     -0.656190    24A     -0.609956
      25A     -0.602539    26A     -0.594395    27A     -0.583472
      28A     -0.568014    29A     -0.558222    30A     -0.550504
      31A     -0.530868    32A     -0.521183    33A     -0.489010
      34A     -0.471255    35A     -0.460312    36A     -0.337114
      37A     -0.312129

  @DF-RHF Final Energy:  -458.65430098373929

   => Energetics <=

    Nuclear Repulsion Energy =            508.2168181152001694
    One-Electron Energy =               -1632.4593508419927730
    Two-Electron Energy =                 665.5882317430533703
    Total Energy =                       -458.6543009837392901
  Basis Set: (AUG-CC-PVTZ AUX)
    Blend: AUG-CC-PVTZ-RI
    Molecular point group: c1

    Geometry (in Angstrom), charge = 0, multiplicity = 1:

       Center              X                  Y                   Z               Mass
    ------------   -----------------  -----------------  -----------------  -----------------
         O            1.759294468787     2.362059978294    -0.145238806379    15.994914619570
         O            1.671919468787    -2.413316021706    -0.127259806379    15.994914619570
         C           -0.983467731213     0.010025778294     0.357116493621    12.000000000000
         C           -2.517447531213    -0.025761021706     0.564079193621    12.000000000000
         C           -0.326560531213    -1.213708021706     0.235017193621    12.000000000000
         C           -0.340553531213     1.198907978294     0.235514193621    12.000000000000
         C           -3.277064531213    -0.026068021706    -0.763685806379    12.000000000000
         C            1.031192468787     1.204347978294    -0.017459806379    12.000000000000
         C            1.043170068787    -1.148706321706    -0.018073806379    12.000000000000
         C            1.733363468787     0.008464978294    -0.145101806379    12.000000000000
         H           -2.796279531213    -0.909358021706     1.148976193621     1.007825032230
         H           -2.811783531213     0.847539978294     1.157955193621     1.007825032230
         H           -0.834731531213    -2.169866021706     0.331562193621     1.007825032230
         H           -0.882454531213     2.139331978294     0.335832193621     1.007825032230
         H           -3.026593531213     0.860941978294    -1.352131806379     1.007825032230
         H           -4.360901531213    -0.035746021706    -0.604680806379     1.007825032230
         H           -3.011143531213    -0.904446021706    -1.358032806379     1.007825032230
         H            2.803942468787     0.040446978294    -0.335608806379     1.007825032230
         H            1.155570468787     3.115987978294    -0.029328806379     1.007825032230
         H            2.618035468787    -2.260703021706    -0.296976806379     1.007825032230

  Basis Set: AUG-CC-PVTZ
    Blend: AUG-CC-PVTZ
  Basis Set: (AUG-CC-PVTZ AUX)
    Blend: AUG-CC-PVTZ-JKFIT
	 Reference Energy          =    -458.6543009837392901 [Eh]
	 Singles Energy            =      -0.0000000000000000 [Eh]
	 Same-Spin Energy          =      -0.4816414928911346 [Eh]
	 Opposite-Spin Energy      =      -1.5055485969115132 [Eh]
	 Correlation Energy        =      -1.9871900898026478 [Eh]
	 Total Energy              =    -460.6414910735419426 [Eh]

	 ================> DF-SCS-MP2 Energies <==================
	-----------------------------------------------------------
	 SCS Same-Spin Scale       =       0.3333333333333333 [-]
	 SCS Opposite-Spin Scale   =       1.2000000000000000 [-]
	 SCS Same-Spin Energy      =      -0.1605471642970449 [Eh]
	 SCS Opposite-Spin Energy  =      -1.8066583162938157 [Eh]
	 SCS Correlation Energy    =      -1.9672054805908605 [Eh]
	 SCS Total Energy          =    -460.6215064643301389 [Eh]
	-----------------------------------------------------------

  Dipole Moment: [D]
     X:    -0.5703      Y:     1.5218      Z:     0.0283     Total:     1.6254

*** Psi4 exiting successfully. Buy a developer a beer!
