                               Psi4 1.3.2 release

  ==> Input File <==

--------------------------------------------------------------------------
#psi4
#
memory 32 gb

molecule  {
0 1
  O        1.7427920     2.3811049    -0.1422866
  O        1.6754140    -2.4069960    -0.1279020
  C       -1.0215720    -0.0077180     0.3641480
  C       -2.5139530    -0.0194410     0.5634370
  C       -0.3230660    -1.2073880     0.2343750
  C       -0.3370590     1.2052280     0.2348720
  C       -3.2735700    -0.0197480    -0.7643280
  C        1.0346870     1.2106680    -0.0181020
  C        1.0480560    -1.1910380    -0.0190010
  C        1.7162007     0.0025118    -0.1420795
  H       -2.7927850    -0.9030380     1.1483340
  H       -2.8082890     0.8538600     1.1573130
  H       -0.8312370    -2.1635460     0.3309200
  H       -0.8789600     2.1456520     0.3351900
  H       -3.0230990     0.8672620    -1.3527740
  H       -4.3574070    -0.0294260    -0.6053230
  H       -3.0076490    -0.8981260    -1.3586750
  H        2.8074370     0.0467670    -0.3362510
  H        1.1590650     3.1223080    -0.0299710
  H        2.6215300    -2.2543830    -0.2976190
units angstrom
no_reorient  #important for SAPT in psi4, default
symmetry c1  #important for SAPT in psi4, default
}

set PROPERTIES_ORIGIN ["COM"]
properties('MP2/aug-cc-pvtz', properties = ['dipole'])
--------------------------------------------------------------------------

    Molecular point group: c1
  Charge       = 0
  Multiplicity = 1
  Basis Set: AUG-CC-PVTZ
    Blend: AUG-CC-PVTZ
  Basis Set: (AUG-CC-PVTZ AUX)
    Blend: AUG-CC-PVTZ-JKFIT

    Orbital Energies [Eh]
    ---------------------

    Doubly Occupied:

       1A    -20.594031     2A    -20.593130     3A    -11.311254
       4A    -11.306294     5A    -11.250447     6A    -11.231754
       7A    -11.224904     8A    -11.222410     9A    -11.219469
      10A    -11.215991    11A     -1.409387    12A     -1.402274
      13A     -1.152423    14A     -1.065492    15A     -1.002686
      16A     -0.988239    17A     -0.875654    18A     -0.841476
      19A     -0.808736    20A     -0.741219    21A     -0.690149
      22A     -0.678088    23A     -0.665015    24A     -0.611695
      25A     -0.602883    26A     -0.595239    27A     -0.586197
      28A     -0.577109    29A     -0.553835    30A     -0.546293
      31A     -0.524408    32A     -0.520985    33A     -0.487472
      34A     -0.481191    35A     -0.455236    36A     -0.327886
      37A     -0.311242

  @DF-RHF Final Energy:  -458.66038877969379

   => Energetics <=

    Nuclear Repulsion Energy =            507.9863530477293239
    One-Electron Energy =               -1631.9490941551539436
    Two-Electron Energy =                 665.3023523277307731
    Total Energy =                       -458.6603887796937897
  Basis Set: (AUG-CC-PVTZ AUX)
    Blend: AUG-CC-PVTZ-RI
    Molecular point group: c1

    Geometry (in Angstrom), charge = 0, multiplicity = 1:

       Center              X                  Y                   Z               Mass
    ------------   -----------------  -----------------  -----------------  -----------------
         O            1.746904054690     2.380697401403    -0.143021484424    15.994914619570
         O            1.679526054690    -2.407403498597    -0.128636884424    15.994914619570
         C           -1.017459945310    -0.008125498597     0.363413115576    12.000000000000
         C           -2.509840945310    -0.019848498597     0.562702115576    12.000000000000
         C           -0.318953945310    -1.207795498597     0.233640115576    12.000000000000
         C           -0.332946945310     1.204820501403     0.234137115576    12.000000000000
         C           -3.269457945310    -0.020155498597    -0.765062884424    12.000000000000
         C            1.038799054690     1.210260501403    -0.018836884424    12.000000000000
         C            1.052168054690    -1.191445498597    -0.019735884424    12.000000000000
         C            1.720312754690     0.002104301403    -0.142814384424    12.000000000000
         H           -2.788672945310    -0.903445498597     1.147599115576     1.007825032230
         H           -2.804176945310     0.853452501403     1.156578115576     1.007825032230
         H           -0.827124945310    -2.163953498597     0.330185115576     1.007825032230
         H           -0.874847945310     2.145244501403     0.334455115576     1.007825032230
         H           -3.018986945310     0.866854501403    -1.353508884424     1.007825032230
         H           -4.353294945310    -0.029833498597    -0.606057884424     1.007825032230
         H           -3.003536945310    -0.898533498597    -1.359409884424     1.007825032230
         H            2.811549054690     0.046359501403    -0.336985884424     1.007825032230
         H            1.163177054690     3.121900501403    -0.030705884424     1.007825032230
         H            2.625642054690    -2.254790498597    -0.298353884424     1.007825032230

  Basis Set: AUG-CC-PVTZ
    Blend: AUG-CC-PVTZ
  Basis Set: (AUG-CC-PVTZ AUX)
    Blend: AUG-CC-PVTZ-JKFIT
	 Reference Energy          =    -458.6603887796937897 [Eh]
	 Singles Energy            =      -0.0000000000000000 [Eh]
	 Same-Spin Energy          =      -0.4814883999398180 [Eh]
	 Opposite-Spin Energy      =      -1.5044150287447184 [Eh]
	 Correlation Energy        =      -1.9859034286845365 [Eh]
	 Total Energy              =    -460.6462922083783269 [Eh]

	 ================> DF-SCS-MP2 Energies <==================
	-----------------------------------------------------------
	 SCS Same-Spin Scale       =       0.3333333333333333 [-]
	 SCS Opposite-Spin Scale   =       1.2000000000000000 [-]
	 SCS Same-Spin Energy      =      -0.1604961333132727 [Eh]
	 SCS Opposite-Spin Energy  =      -1.8052980344936620 [Eh]
	 SCS Correlation Energy    =      -1.9657941678069346 [Eh]
	 SCS Total Energy          =    -460.6261829475007517 [Eh]
	-----------------------------------------------------------

  Dipole Moment: [D]
     X:    -0.4829      Y:     1.2267      Z:     0.0080     Total:     1.3184

*** Psi4 exiting successfully. Buy a developer a beer!
