                               Psi4 1.3.2 release

  ==> Input File <==

--------------------------------------------------------------------------
#psi4
#
memory 32 gb

molecule  {
0 1
  O        1.7627890     2.3683800    -0.1458810
  O        1.6754140    -2.4069960    -0.1279020
  C       -1.0215720    -0.0077180     0.3641480
  C       -2.5139530    -0.0194410     0.5634370
  C       -0.3230660    -1.2073880     0.2343750
  C       -0.3370590     1.2052280     0.2348720
  C       -3.2735700    -0.0197480    -0.7643280
  C        1.0346870     1.2106680    -0.0181020
  C        1.0470546    -1.2640341    -0.0186133
  C        1.7368580     0.0147850    -0.1457440
  H       -2.7927850    -0.9030380     1.1483340
  H       -2.8082890     0.8538600     1.1573130
  H       -0.7813184    -2.1893065     0.3217685
  H       -0.8789600     2.1456520     0.3351900
  H       -3.0230990     0.8672620    -1.3527740
  H       -4.3574070    -0.0294260    -0.6053230
  H       -3.0076490    -0.8981260    -1.3586750
  H        2.8074370     0.0467670    -0.3362510
  H        1.1590650     3.1223080    -0.0299710
  H        2.6215300    -2.2543830    -0.2976190
units angstrom
no_reorient  #important for SAPT in psi4, default
symmetry c1  #important for SAPT in psi4, default
}

set PROPERTIES_ORIGIN ["COM"]
properties('MP2/aug-cc-pvtz', properties = ['dipole'])
--------------------------------------------------------------------------

    Molecular point group: c1
  Charge       = 0
  Multiplicity = 1
  Basis Set: AUG-CC-PVTZ
    Blend: AUG-CC-PVTZ
  Basis Set: (AUG-CC-PVTZ AUX)
    Blend: AUG-CC-PVTZ-JKFIT

    Orbital Energies [Eh]
    ---------------------

    Doubly Occupied:

       1A    -20.605457     2A    -20.592963     3A    -11.314423
       4A    -11.307333     5A    -11.251812     6A    -11.231151
       7A    -11.224049     8A    -11.219875     9A    -11.218584
      10A    -11.213123    11A     -1.437866    12A     -1.401865
      13A     -1.143709    14A     -1.057105    15A     -1.002020
      16A     -0.980864    17A     -0.877140    18A     -0.833911
      19A     -0.814719    20A     -0.746417    21A     -0.687287
      22A     -0.681607    23A     -0.670844    24A     -0.614632
      25A     -0.608149    26A     -0.596569    27A     -0.591809
      28A     -0.582642    29A     -0.550064    30A     -0.545090
      31A     -0.523157    32A     -0.510135    33A     -0.487166
      34A     -0.478016    35A     -0.449614    36A     -0.318573
      37A     -0.306772

  @DF-RHF Final Energy:  -458.65339017793974

   => Energetics <=

    Nuclear Repulsion Energy =            507.1120000913927583
    One-Electron Energy =               -1630.1777582323038587
    Two-Electron Energy =                 664.4123679629714161
    Total Energy =                       -458.6533901779397411
  Basis Set: (AUG-CC-PVTZ AUX)
    Blend: AUG-CC-PVTZ-RI
    Molecular point group: c1

    Geometry (in Angstrom), charge = 0, multiplicity = 1:

       Center              X                  Y                   Z               Mass
    ------------   -----------------  -----------------  -----------------  -----------------
         O            1.762511696018     2.374912342739    -0.145847880464    15.994914619570
         O            1.675136696018    -2.400463657261    -0.127868880464    15.994914619570
         C           -1.021849303982    -0.001185657261     0.364181119536    12.000000000000
         C           -2.514230303982    -0.012908657261     0.563470119536    12.000000000000
         C           -0.323343303982    -1.200855657261     0.234408119536    12.000000000000
         C           -0.337336303982     1.211760342739     0.234905119536    12.000000000000
         C           -3.273847303982    -0.013215657261    -0.764294880464    12.000000000000
         C            1.034409696018     1.217200342739    -0.018068880464    12.000000000000
         C            1.046777296018    -1.257501757261    -0.018580180464    12.000000000000
         C            1.736580696018     0.021317342739    -0.145710880464    12.000000000000
         H           -2.793062303982    -0.896505657261     1.148367119536     1.007825032230
         H           -2.808566303982     0.860392342739     1.157346119536     1.007825032230
         H           -0.781595703982    -2.182774157261     0.321801619536     1.007825032230
         H           -0.879237303982     2.152184342739     0.335223119536     1.007825032230
         H           -3.023376303982     0.873794342739    -1.352740880464     1.007825032230
         H           -4.357684303982    -0.022893657261    -0.605289880464     1.007825032230
         H           -3.007926303982    -0.891593657261    -1.358641880464     1.007825032230
         H            2.807159696018     0.053299342739    -0.336217880464     1.007825032230
         H            1.158787696018     3.128840342739    -0.029937880464     1.007825032230
         H            2.621252696018    -2.247850657261    -0.297585880464     1.007825032230

  Basis Set: AUG-CC-PVTZ
    Blend: AUG-CC-PVTZ
  Basis Set: (AUG-CC-PVTZ AUX)
    Blend: AUG-CC-PVTZ-JKFIT
	 Reference Energy          =    -458.6533901779397411 [Eh]
	 Singles Energy            =      -0.0000000000000000 [Eh]
	 Same-Spin Energy          =      -0.4817127683248499 [Eh]
	 Opposite-Spin Energy      =      -1.5047282643321331 [Eh]
	 Correlation Energy        =      -1.9864410326569830 [Eh]
	 Total Energy              =    -460.6398312105966966 [Eh]

	 ================> DF-SCS-MP2 Energies <==================
	-----------------------------------------------------------
	 SCS Same-Spin Scale       =       0.3333333333333333 [-]
	 SCS Opposite-Spin Scale   =       1.2000000000000000 [-]
	 SCS Same-Spin Energy      =      -0.1605709227749500 [Eh]
	 SCS Opposite-Spin Energy  =      -1.8056739171985596 [Eh]
	 SCS Correlation Energy    =      -1.9662448399735095 [Eh]
	 SCS Total Energy          =    -460.6196350179132537 [Eh]
	-----------------------------------------------------------

  Dipole Moment: [D]
     X:    -0.2717      Y:     0.7977      Z:    -0.0226     Total:     0.8430

*** Psi4 exiting successfully. Buy a developer a beer!
