                               Psi4 1.3.2 release

  ==> Input File <==

--------------------------------------------------------------------------
#psi4
#
memory 32 gb

molecule  {
0 1
  O        1.7627890     2.3683800    -0.1458810
  O        1.6961757    -2.3956990    -0.1318022
  C       -1.0215720    -0.0077180     0.3641480
  C       -2.5139530    -0.0194410     0.5634370
  C       -0.3231628    -1.1830514     0.2342530
  C       -0.3370590     1.2052280     0.2348720
  C       -3.2735700    -0.0197480    -0.7643280
  C        1.0346870     1.2106680    -0.0181020
  C        1.0480560    -1.1910380    -0.0190010
  C        1.7368580     0.0147850    -0.1457440
  H       -2.7927850    -0.9030380     1.1483340
  H       -2.8082890     0.8538600     1.1573130
  H       -0.8312370    -2.1635460     0.3309200
  H       -0.8789600     2.1456520     0.3351900
  H       -3.0230990     0.8672620    -1.3527740
  H       -4.3574070    -0.0294260    -0.6053230
  H       -3.0076490    -0.8981260    -1.3586750
  H        2.8074370     0.0467670    -0.3362510
  H        1.1590650     3.1223080    -0.0299710
  H        2.6215300    -2.2543830    -0.2976190
units angstrom
no_reorient  #important for SAPT in psi4, default
symmetry c1  #important for SAPT in psi4, default
}

set PROPERTIES_ORIGIN ["COM"]
properties('MP2/aug-cc-pvtz', properties = ['dipole'])
--------------------------------------------------------------------------

    Molecular point group: c1
  Charge       = 0
  Multiplicity = 1
  Basis Set: AUG-CC-PVTZ
    Blend: AUG-CC-PVTZ
  Basis Set: (AUG-CC-PVTZ AUX)
    Blend: AUG-CC-PVTZ-JKFIT

    Orbital Energies [Eh]
    ---------------------

    Doubly Occupied:

       1A    -20.595064     2A    -20.591672     3A    -11.309581
       4A    -11.309576     5A    -11.248914     6A    -11.232315
       7A    -11.223602     8A    -11.222367     9A    -11.219777
      10A    -11.216881    11A     -1.407438    12A     -1.403625
      13A     -1.153335    14A     -1.064595    15A     -1.001978
      16A     -0.989027    17A     -0.876976    18A     -0.837928
      19A     -0.811020    20A     -0.741972    21A     -0.686959
      22A     -0.677640    23A     -0.666915    24A     -0.612465
      25A     -0.602699    26A     -0.596128    27A     -0.585585
      28A     -0.576730    29A     -0.553889    30A     -0.549144
      31A     -0.523725    32A     -0.517414    33A     -0.488821
      34A     -0.481883    35A     -0.455666    36A     -0.326992
      37A     -0.311770

  @DF-RHF Final Energy:  -458.66039275890887

   => Energetics <=

    Nuclear Repulsion Energy =            507.9512588601037351
    One-Electron Energy =               -1631.8791647064920198
    Two-Electron Energy =                 665.2675130874794149
    Total Energy =                       -458.6603927589088698
  Basis Set: (AUG-CC-PVTZ AUX)
    Blend: AUG-CC-PVTZ-RI
    Molecular point group: c1

    Geometry (in Angstrom), charge = 0, multiplicity = 1:

       Center              X                  Y                   Z               Mass
    ------------   -----------------  -----------------  -----------------  -----------------
         O            1.760392251718     2.364956029654    -0.145418551285    15.994914619570
         O            1.693778951718    -2.399122970346    -0.131339751285    15.994914619570
         C           -1.023968748282    -0.011141970346     0.364610448715    12.000000000000
         C           -2.516349748282    -0.022864970346     0.563899448715    12.000000000000
         C           -0.325559548282    -1.186475370346     0.234715448715    12.000000000000
         C           -0.339455748282     1.201804029654     0.235334448715    12.000000000000
         C           -3.275966748282    -0.023171970346    -0.763865551285    12.000000000000
         C            1.032290251718     1.207244029654    -0.017639551285    12.000000000000
         C            1.045659251718    -1.194461970346    -0.018538551285    12.000000000000
         C            1.734461251718     0.011361029654    -0.145281551285    12.000000000000
         H           -2.795181748282    -0.906461970346     1.148796448715     1.007825032230
         H           -2.810685748282     0.850436029654     1.157775448715     1.007825032230
         H           -0.833633748282    -2.166969970346     0.331382448715     1.007825032230
         H           -0.881356748282     2.142228029654     0.335652448715     1.007825032230
         H           -3.025495748282     0.863838029654    -1.352311551285     1.007825032230
         H           -4.359803748282    -0.032849970346    -0.604860551285     1.007825032230
         H           -3.010045748282    -0.901549970346    -1.358212551285     1.007825032230
         H            2.805040251718     0.043343029654    -0.335788551285     1.007825032230
         H            1.156668251718     3.118884029654    -0.029508551285     1.007825032230
         H            2.619133251718    -2.257806970346    -0.297156551285     1.007825032230

  Basis Set: AUG-CC-PVTZ
    Blend: AUG-CC-PVTZ
  Basis Set: (AUG-CC-PVTZ AUX)
    Blend: AUG-CC-PVTZ-JKFIT
	 Reference Energy          =    -458.6603927589088698 [Eh]
	 Singles Energy            =      -0.0000000000000000 [Eh]
	 Same-Spin Energy          =      -0.4814716152345579 [Eh]
	 Opposite-Spin Energy      =      -1.5044208987905368 [Eh]
	 Correlation Energy        =      -1.9858925140250947 [Eh]
	 Total Energy              =    -460.6462852729339374 [Eh]

	 ================> DF-SCS-MP2 Energies <==================
	-----------------------------------------------------------
	 SCS Same-Spin Scale       =       0.3333333333333333 [-]
	 SCS Opposite-Spin Scale   =       1.2000000000000000 [-]
	 SCS Same-Spin Energy      =      -0.1604905384115193 [Eh]
	 SCS Opposite-Spin Energy  =      -1.8053050785486440 [Eh]
	 SCS Correlation Energy    =      -1.9657956169601634 [Eh]
	 SCS Total Energy          =    -460.6261883758690487 [Eh]
	-----------------------------------------------------------

  Dipole Moment: [D]
     X:    -0.5209      Y:     1.2068      Z:     0.0125     Total:     1.3145

*** Psi4 exiting successfully. Buy a developer a beer!
