                               Psi4 1.3.2 release

  ==> Input File <==

--------------------------------------------------------------------------
#psi4
#
memory 32 gb

molecule  {
0 1
  O        1.7627890     2.3683800    -0.1458810
  O        1.6754140    -2.4069960    -0.1279020
  C       -1.0215720    -0.0077180     0.3641480
  C       -2.5139530    -0.0194410     0.5634370
  C       -0.3230660    -1.2073880     0.2343750
  C       -0.3370590     1.2052280     0.2348720
  C       -3.2735700    -0.0197480    -0.7643280
  C        1.0346870     1.2106680    -0.0181020
  C        1.2447126    -1.1886930    -0.0553421
  C        1.7368580     0.0147850    -0.1457440
  H       -2.7927850    -0.9030380     1.1483340
  H       -2.8082890     0.8538600     1.1573130
  H       -0.8312370    -2.1635460     0.3309200
  H       -0.8789600     2.1456520     0.3351900
  H       -3.0230990     0.8672620    -1.3527740
  H       -4.3574070    -0.0294260    -0.6053230
  H       -3.0076490    -0.8981260    -1.3586750
  H        2.8074370     0.0467670    -0.3362510
  H        1.1590650     3.1223080    -0.0299710
  H        2.6215300    -2.2543830    -0.2976190
units angstrom
no_reorient  #important for SAPT in psi4, default
symmetry c1  #important for SAPT in psi4, default
}

set PROPERTIES_ORIGIN ["COM"]
properties('MP2/aug-cc-pvtz', properties = ['dipole'])
--------------------------------------------------------------------------

    Molecular point group: c1
  Charge       = 0
  Multiplicity = 1
  Basis Set: AUG-CC-PVTZ
    Blend: AUG-CC-PVTZ
  Basis Set: (AUG-CC-PVTZ AUX)
    Blend: AUG-CC-PVTZ-JKFIT

    Orbital Energies [Eh]
    ---------------------

    Doubly Occupied:

       1A    -20.618361     2A    -20.596068     3A    -11.315959
       4A    -11.312395     5A    -11.241077     6A    -11.226634
       7A    -11.222583     8A    -11.217188     9A    -11.216999
      10A    -11.215053    11A     -1.458174    12A     -1.404649
      13A     -1.140567    14A     -1.069041    15A     -0.997513
      16A     -0.970083    17A     -0.867826    18A     -0.849791
      19A     -0.814214    20A     -0.743749    21A     -0.704031
      22A     -0.667524    23A     -0.660019    24A     -0.625033
      25A     -0.618894    26A     -0.602250    27A     -0.592633
      28A     -0.585749    29A     -0.550566    30A     -0.535206
      31A     -0.527033    32A     -0.509597    33A     -0.482107
      34A     -0.451956    35A     -0.448526    36A     -0.341398
      37A     -0.288132

  @DF-RHF Final Energy:  -458.61482347088173

   => Energetics <=

    Nuclear Repulsion Energy =            506.7340292295285167
    One-Electron Energy =               -1629.3205465221287795
    Two-Electron Energy =                 663.9716938217186453
    Total Energy =                       -458.6148234708816744
  Basis Set: (AUG-CC-PVTZ AUX)
    Blend: AUG-CC-PVTZ-RI
    Molecular point group: c1

    Geometry (in Angstrom), charge = 0, multiplicity = 1:

       Center              X                  Y                   Z               Mass
    ------------   -----------------  -----------------  -----------------  -----------------
         O            1.745696898617     2.368176134923    -0.142722447774    15.994914619570
         O            1.658321898617    -2.407199865077    -0.124743447774    15.994914619570
         C           -1.038664101383    -0.007921865077     0.367306552226    12.000000000000
         C           -2.531045101383    -0.019644865077     0.566595552226    12.000000000000
         C           -0.340158101383    -1.207591865077     0.237533552226    12.000000000000
         C           -0.354151101383     1.205024134923     0.238030552226    12.000000000000
         C           -3.290662101383    -0.019951865077    -0.761169447774    12.000000000000
         C            1.017594898617     1.210464134923    -0.014943447774    12.000000000000
         C            1.227620498617    -1.188896865077    -0.052183547774    12.000000000000
         C            1.719765898617     0.014581134923    -0.142585447774    12.000000000000
         H           -2.809877101383    -0.903241865077     1.151492552226     1.007825032230
         H           -2.825381101383     0.853656134923     1.160471552226     1.007825032230
         H           -0.848329101383    -2.163749865077     0.334078552226     1.007825032230
         H           -0.896052101383     2.145448134923     0.338348552226     1.007825032230
         H           -3.040191101383     0.867058134923    -1.349615447774     1.007825032230
         H           -4.374499101383    -0.029629865077    -0.602164447774     1.007825032230
         H           -3.024741101383    -0.898329865077    -1.355516447774     1.007825032230
         H            2.790344898617     0.046563134923    -0.333092447774     1.007825032230
         H            1.141972898617     3.122104134923    -0.026812447774     1.007825032230
         H            2.604437898617    -2.254586865077    -0.294460447774     1.007825032230

  Basis Set: AUG-CC-PVTZ
    Blend: AUG-CC-PVTZ
  Basis Set: (AUG-CC-PVTZ AUX)
    Blend: AUG-CC-PVTZ-JKFIT
	 Reference Energy          =    -458.6148234708817313 [Eh]
	 Singles Energy            =      -0.0000000000000000 [Eh]
	 Same-Spin Energy          =      -0.4817459132402064 [Eh]
	 Opposite-Spin Energy      =      -1.5077777884211505 [Eh]
	 Correlation Energy        =      -1.9895237016613569 [Eh]
	 Total Energy              =    -460.6043471725431004 [Eh]

	 ================> DF-SCS-MP2 Energies <==================
	-----------------------------------------------------------
	 SCS Same-Spin Scale       =       0.3333333333333333 [-]
	 SCS Opposite-Spin Scale   =       1.2000000000000000 [-]
	 SCS Same-Spin Energy      =      -0.1605819710800688 [Eh]
	 SCS Opposite-Spin Energy  =      -1.8093333461053804 [Eh]
	 SCS Correlation Energy    =      -1.9699153171854493 [Eh]
	 SCS Total Energy          =    -460.5847387880671704 [Eh]
	-----------------------------------------------------------

  Dipole Moment: [D]
     X:     0.0510      Y:     0.6793      Z:    -0.0730     Total:     0.6851

*** Psi4 exiting successfully. Buy a developer a beer!
