                               Psi4 1.3.2 release

  ==> Input File <==

--------------------------------------------------------------------------
#psi4
#
memory 32 gb

molecule  {
0 1
  O        1.7627890     2.3683800    -0.1458810
  O        1.6754140    -2.4069960    -0.1279020
  C       -1.0215720    -0.0077180     0.3641480
  C       -2.5139530    -0.0194410     0.5634370
  C       -0.3230660    -1.2073880     0.2343750
  C       -0.3370590     1.2052280     0.2348720
  C       -3.2735700    -0.0197480    -0.7643280
  C        1.1407012     1.3792350    -0.0367071
  C        1.0480560    -1.1910380    -0.0190010
  C        1.7368580     0.0147850    -0.1457440
  H       -2.7927850    -0.9030380     1.1483340
  H       -2.8082890     0.8538600     1.1573130
  H       -0.8312370    -2.1635460     0.3309200
  H       -0.8789600     2.1456520     0.3351900
  H       -3.0230990     0.8672620    -1.3527740
  H       -4.3574070    -0.0294260    -0.6053230
  H       -3.0076490    -0.8981260    -1.3586750
  H        2.8074370     0.0467670    -0.3362510
  H        1.1590650     3.1223080    -0.0299710
  H        2.6215300    -2.2543830    -0.2976190
units angstrom
no_reorient  #important for SAPT in psi4, default
symmetry c1  #important for SAPT in psi4, default
}

set PROPERTIES_ORIGIN ["COM"]
properties('MP2/aug-cc-pvtz', properties = ['dipole'])
--------------------------------------------------------------------------

    Molecular point group: c1
  Charge       = 0
  Multiplicity = 1
  Basis Set: AUG-CC-PVTZ
    Blend: AUG-CC-PVTZ
  Basis Set: (AUG-CC-PVTZ AUX)
    Blend: AUG-CC-PVTZ-JKFIT

    Orbital Energies [Eh]
    ---------------------

    Doubly Occupied:

       1A    -20.643773     2A    -20.586786     3A    -11.335601
       4A    -11.302198     5A    -11.245461     6A    -11.226837
       7A    -11.221496     8A    -11.219017     9A    -11.214368
      10A    -11.200841    11A     -1.542151    12A     -1.395156
      13A     -1.127759    14A     -1.048941    15A     -0.984967
      16A     -0.973819    17A     -0.886463    18A     -0.864459
      19A     -0.807277    20A     -0.759716    21A     -0.719473
      22A     -0.678815    23A     -0.673313    24A     -0.655820
      25A     -0.621922    26A     -0.594719    27A     -0.585096
      28A     -0.578319    29A     -0.547624    30A     -0.533015
      31A     -0.515645    32A     -0.498851    33A     -0.482116
      34A     -0.454573    35A     -0.437958    36A     -0.315586
      37A     -0.283355

  @DF-RHF Final Energy:  -458.59981581298990

   => Energetics <=

    Nuclear Repulsion Energy =            506.5152868029441038
    One-Electron Energy =               -1628.7036322578221643
    Two-Electron Energy =                 663.5885296418881580
    Total Energy =                       -458.5998158129899593
  Basis Set: (AUG-CC-PVTZ AUX)
    Blend: AUG-CC-PVTZ-RI
    Molecular point group: c1

    Geometry (in Angstrom), charge = 0, multiplicity = 1:

       Center              X                  Y                   Z               Mass
    ------------   -----------------  -----------------  -----------------  -----------------
         O            1.753574959958     2.353729175087    -0.144263948175    15.994914619570
         O            1.666199959958    -2.421646824913    -0.126284948175    15.994914619570
         C           -1.030786040042    -0.022368824913     0.365765051825    12.000000000000
         C           -2.523167040042    -0.034091824913     0.565054051825    12.000000000000
         C           -0.332280040042    -1.222038824913     0.235992051825    12.000000000000
         C           -0.346273040042     1.190577175087     0.236489051825    12.000000000000
         C           -3.282784040042    -0.034398824913    -0.762710948175    12.000000000000
         C            1.131487159958     1.364584175087    -0.035090048175    12.000000000000
         C            1.038841959958    -1.205688824913    -0.017383948175    12.000000000000
         C            1.727643959958     0.000134175087    -0.144126948175    12.000000000000
         H           -2.801999040042    -0.917688824913     1.149951051825     1.007825032230
         H           -2.817503040042     0.839209175087     1.158930051825     1.007825032230
         H           -0.840451040042    -2.178196824913     0.332537051825     1.007825032230
         H           -0.888174040042     2.131001175087     0.336807051825     1.007825032230
         H           -3.032313040042     0.852611175087    -1.351156948175     1.007825032230
         H           -4.366621040042    -0.044076824913    -0.603705948175     1.007825032230
         H           -3.016863040042    -0.912776824913    -1.357057948175     1.007825032230
         H            2.798222959958     0.032116175087    -0.334633948175     1.007825032230
         H            1.149850959958     3.107657175087    -0.028353948175     1.007825032230
         H            2.612315959958    -2.269033824913    -0.296001948175     1.007825032230

  Basis Set: AUG-CC-PVTZ
    Blend: AUG-CC-PVTZ
  Basis Set: (AUG-CC-PVTZ AUX)
    Blend: AUG-CC-PVTZ-JKFIT
	 Reference Energy          =    -458.5998158129899025 [Eh]
	 Singles Energy            =      -0.0000000000000000 [Eh]
	 Same-Spin Energy          =      -0.4821982007215267 [Eh]
	 Opposite-Spin Energy      =      -1.5048100096053107 [Eh]
	 Correlation Energy        =      -1.9870082103268376 [Eh]
	 Total Energy              =    -460.5868240233167512 [Eh]

	 ================> DF-SCS-MP2 Energies <==================
	-----------------------------------------------------------
	 SCS Same-Spin Scale       =       0.3333333333333333 [-]
	 SCS Opposite-Spin Scale   =       1.2000000000000000 [-]
	 SCS Same-Spin Energy      =      -0.1607327335738422 [Eh]
	 SCS Opposite-Spin Energy  =      -1.8057720115263729 [Eh]
	 SCS Correlation Energy    =      -1.9665047451002151 [Eh]
	 SCS Total Energy          =    -460.5663205580901263 [Eh]
	-----------------------------------------------------------

  Dipole Moment: [D]
     X:     0.3147      Y:     2.6734      Z:    -0.1110     Total:     2.6941

*** Psi4 exiting successfully. Buy a developer a beer!
