                               Psi4 1.3.2 release

  ==> Input File <==

--------------------------------------------------------------------------
#psi4
#
memory 32 gb

molecule  {
0 1
  O        1.7627890     2.3683800    -0.1458810
  O        1.6754140    -2.4069960    -0.1279020
  C       -1.0215720    -0.0077180     0.3641480
  C       -2.5139530    -0.0194410     0.5634370
  C       -0.3437497    -1.2196045     0.2382598
  C       -0.3579722     1.2172008     0.2387785
  C       -3.2735700    -0.0197480    -0.7643280
  C        1.0346870     1.2106680    -0.0181020
  C        1.0480560    -1.1910380    -0.0190010
  C        1.7368580     0.0147850    -0.1457440
  H       -2.7927850    -0.9030380     1.1483340
  H       -2.8082890     0.8538600     1.1573130
  H       -0.8312370    -2.1635460     0.3309200
  H       -0.8789600     2.1456520     0.3351900
  H       -3.0230990     0.8672620    -1.3527740
  H       -4.3574070    -0.0294260    -0.6053230
  H       -3.0076490    -0.8981260    -1.3586750
  H        2.8074370     0.0467670    -0.3362510
  H        1.1590650     3.1223080    -0.0299710
  H        2.6215300    -2.2543830    -0.2976190
units angstrom
no_reorient  #important for SAPT in psi4, default
symmetry c1  #important for SAPT in psi4, default
}

set PROPERTIES_ORIGIN ["COM"]
properties('MP2/aug-cc-pvtz', properties = ['dipole'])
--------------------------------------------------------------------------

    Molecular point group: c1
  Charge       = 0
  Multiplicity = 1
  Basis Set: AUG-CC-PVTZ
    Blend: AUG-CC-PVTZ
  Basis Set: (AUG-CC-PVTZ AUX)
    Blend: AUG-CC-PVTZ-JKFIT

    Orbital Energies [Eh]
    ---------------------

    Doubly Occupied:

       1A    -20.596765     2A    -20.594484     3A    -11.314173
       4A    -11.312416     5A    -11.251137     6A    -11.230282
       7A    -11.224459     8A    -11.222527     9A    -11.218824
      10A    -11.215945    11A     -1.406165    12A     -1.402734
      13A     -1.147183    14A     -1.063295    15A     -0.997853
      16A     -0.987747    17A     -0.874790    18A     -0.839481
      19A     -0.806163    20A     -0.738498    21A     -0.690173
      22A     -0.676002    23A     -0.667236    24A     -0.610863
      25A     -0.602218    26A     -0.595044    27A     -0.589033
      28A     -0.576639    29A     -0.554030    30A     -0.548678
      31A     -0.529502    32A     -0.521182    33A     -0.486797
      34A     -0.478423    35A     -0.451829    36A     -0.327548
      37A     -0.307724

  @DF-RHF Final Energy:  -458.65846285147950

   => Energetics <=

    Nuclear Repulsion Energy =            506.8282894282578468
    One-Electron Energy =               -1629.6578202515652265
    Two-Electron Energy =                 664.1710679718278243
    Total Energy =                       -458.6584628514794986
  Basis Set: (AUG-CC-PVTZ AUX)
    Blend: AUG-CC-PVTZ-RI
    Molecular point group: c1

    Geometry (in Angstrom), charge = 0, multiplicity = 1:

       Center              X                  Y                   Z               Mass
    ------------   -----------------  -----------------  -----------------  -----------------
         O            1.766404378645     2.368401128275    -0.146558155504    15.994914619570
         O            1.679029378645    -2.406974871725    -0.128579155504    15.994914619570
         C           -1.017956621355    -0.007696871725     0.363470844496    12.000000000000
         C           -2.510337621355    -0.019419871725     0.562759844496    12.000000000000
         C           -0.340134321355    -1.219583371725     0.237582644496    12.000000000000
         C           -0.354356821355     1.217221928275     0.238101344496    12.000000000000
         C           -3.269954621355    -0.019726871725    -0.765005155504    12.000000000000
         C            1.038302378645     1.210689128275    -0.018779155504    12.000000000000
         C            1.051671378645    -1.191016871725    -0.019678155504    12.000000000000
         C            1.740473378645     0.014806128275    -0.146421155504    12.000000000000
         H           -2.789169621355    -0.903016871725     1.147656844496     1.007825032230
         H           -2.804673621355     0.853881128275     1.156635844496     1.007825032230
         H           -0.827621621355    -2.163524871725     0.330242844496     1.007825032230
         H           -0.875344621355     2.145673128275     0.334512844496     1.007825032230
         H           -3.019483621355     0.867283128275    -1.353451155504     1.007825032230
         H           -4.353791621355    -0.029404871725    -0.606000155504     1.007825032230
         H           -3.004033621355    -0.898104871725    -1.359352155504     1.007825032230
         H            2.811052378645     0.046788128275    -0.336928155504     1.007825032230
         H            1.162680378645     3.122329128275    -0.030648155504     1.007825032230
         H            2.625145378645    -2.254361871725    -0.298296155504     1.007825032230

  Basis Set: AUG-CC-PVTZ
    Blend: AUG-CC-PVTZ
  Basis Set: (AUG-CC-PVTZ AUX)
    Blend: AUG-CC-PVTZ-JKFIT
	 Reference Energy          =    -458.6584628514794986 [Eh]
	 Singles Energy            =      -0.0000000000000000 [Eh]
	 Same-Spin Energy          =      -0.4815658653040705 [Eh]
	 Opposite-Spin Energy      =      -1.5052779955466968 [Eh]
	 Correlation Energy        =      -1.9868438608507675 [Eh]
	 Total Energy              =    -460.6453067123302390 [Eh]

	 ================> DF-SCS-MP2 Energies <==================
	-----------------------------------------------------------
	 SCS Same-Spin Scale       =       0.3333333333333333 [-]
	 SCS Opposite-Spin Scale   =       1.2000000000000000 [-]
	 SCS Same-Spin Energy      =      -0.1605219551013568 [Eh]
	 SCS Opposite-Spin Energy  =      -1.8063335946560362 [Eh]
	 SCS Correlation Energy    =      -1.9668555497573930 [Eh]
	 SCS Total Energy          =    -460.6253184012368820 [Eh]
	-----------------------------------------------------------

  Dipole Moment: [D]
     X:    -0.4296      Y:     1.2228      Z:     0.0033     Total:     1.2961

*** Psi4 exiting successfully. Buy a developer a beer!
