                               Psi4 1.4a3.dev225

  ==> Input File <==

--------------------------------------------------------------------------
#psi4
#
memory 32 gb

molecule  {
0 1
  O       -1.8116000     2.3801270     0.1363720
  O       -1.7799440    -2.3994320     0.1189850
  C        0.9489570    -0.0306590    -0.3689570
  C        2.4429910    -0.0568610    -0.5708560
  C        0.2354480    -1.2220220    -0.2373930
  C        0.2798030     1.1938580    -0.2383990
  C        3.1984060    -0.0265600     0.7613490
  C       -1.0921630     1.2139390     0.0079710
  C       -1.1396310    -1.1871160     0.0102260
  C       -1.8132500     0.0254130     0.1385790
  H        2.7180680    -0.9584190    -1.1301260
  H        2.7446220     0.7994920    -1.1857830
  H        0.7258350    -2.1872220    -0.3369480
  H        0.8309290     2.1284970    -0.3452230
  H        2.9508560     0.8787730     1.3230630
  H        4.2811760    -0.0477390     0.6027570
  H        2.9230980    -0.8883860     1.3756490
  H       -2.8837580     0.0741080     0.3259950
  H       -1.1853468     3.1427742     0.0222147
  H       -2.7238770    -2.2320380     0.2881370
units angstrom
no_reorient  #important for SAPT in psi4, default
symmetry c1  #important for SAPT in psi4, default
}

set PROPERTIES_ORIGIN ["COM"]
properties('MP2/aug-cc-pvtz', properties = ['dipole'])
--------------------------------------------------------------------------

    Molecular point group: c1
  Charge       = 0
  Multiplicity = 1
  Basis Set: AUG-CC-PVTZ
    Blend: AUG-CC-PVTZ
  Basis Set: (AUG-CC-PVTZ AUX)
    Blend: AUG-CC-PVTZ-JKFIT

    Orbital Energies [Eh]
    ---------------------

    Doubly Occupied:

       1A    -20.597272     2A    -20.593318     3A    -11.310988
       4A    -11.309197     5A    -11.252251     6A    -11.232573
       7A    -11.224472     8A    -11.223228     9A    -11.219857
      10A    -11.216743    11A     -1.402161    12A     -1.398767
      13A     -1.149426    14A     -1.063279    15A     -1.000524
      16A     -0.987590    17A     -0.876244    18A     -0.834427
      19A     -0.807103    20A     -0.737619    21A     -0.686812
      22A     -0.672612    23A     -0.665463    24A     -0.611237
      25A     -0.601653    26A     -0.595119    27A     -0.586961
      28A     -0.575415    29A     -0.552968    30A     -0.548121
      31A     -0.523368    32A     -0.521420    33A     -0.488286
      34A     -0.482563    35A     -0.453520    36A     -0.325866
      37A     -0.311352

  @DF-RHF Final Energy:  -458.65803964105118

   => Energetics <=

    Nuclear Repulsion Energy =            506.9710644741134615
    One-Electron Energy =               -1629.9786583856912330
    Two-Electron Energy =                 664.3495542705265962
    Total Energy =                       -458.6580396410511185
  Basis Set: (AUG-CC-PVTZ AUX)
    Blend: AUG-CC-PVTZ-RI
    Molecular point group: c1

    Geometry (in Angstrom), charge = 0, multiplicity = 1:

       Center              X                  Y                   Z               Mass
    ------------   -----------------  -----------------  -----------------  -----------------
         O           -1.737311510632     2.385004905932     0.143167614369    15.994914619570
         O           -1.705655510632    -2.394554094068     0.125780614369    15.994914619570
         C            1.023245489368    -0.025781094068    -0.362161385631    12.000000000000
         C            2.517279489368    -0.051983094068    -0.564060385631    12.000000000000
         C            0.309736489368    -1.217144094068    -0.230597385631    12.000000000000
         C            0.354091489368     1.198735905932    -0.231603385631    12.000000000000
         C            3.272694489368    -0.021682094068     0.768144614369    12.000000000000
         C           -1.017874510632     1.218816905932     0.014766614369    12.000000000000
         C           -1.065342510632    -1.182238094068     0.017021614369    12.000000000000
         C           -1.738961510632     0.030290905932     0.145374614369    12.000000000000
         H            2.792356489368    -0.953541094068    -1.123330385631     1.007825032230
         H            2.818910489368     0.804369905932    -1.178987385631     1.007825032230
         H            0.800123489368    -2.182344094068    -0.330152385631     1.007825032230
         H            0.905217489368     2.133374905932    -0.338427385631     1.007825032230
         H            3.025144489368     0.883650905932     1.329858614369     1.007825032230
         H            4.355464489368    -0.042861094068     0.609552614369     1.007825032230
         H            2.997386489368    -0.883508094068     1.382444614369     1.007825032230
         H           -2.809469510632     0.078985905932     0.332790614369     1.007825032230
         H           -1.111058310632     3.147652105932     0.029010314369     1.007825032230
         H           -2.649588510632    -2.227160094068     0.294932614369     1.007825032230

  Basis Set: AUG-CC-PVTZ
    Blend: AUG-CC-PVTZ
  Basis Set: (AUG-CC-PVTZ AUX)
    Blend: AUG-CC-PVTZ-JKFIT
	 Reference Energy          =    -458.6580396410511753 [Eh]
	 Singles Energy            =      -0.0000000000000000 [Eh]
	 Same-Spin Energy          =      -0.4819833772169431 [Eh]
	 Opposite-Spin Energy      =      -1.5061250791790624 [Eh]
	 Correlation Energy        =      -1.9881084563960054 [Eh]
	 Total Energy              =    -460.6461480974471669 [Eh]

	 ================> DF-SCS-MP2 Energies <==================
	-----------------------------------------------------------
	 SCS Same-Spin Scale       =       0.3333333333333333 [-]
	 SCS Opposite-Spin Scale   =       1.2000000000000000 [-]
	 SCS Same-Spin Energy      =      -0.1606611257389810 [Eh]
	 SCS Opposite-Spin Energy  =      -1.8073500950148746 [Eh]
	 SCS Correlation Energy    =      -1.9680112207538556 [Eh]
	 SCS Total Energy          =    -460.6260508618050267 [Eh]
	-----------------------------------------------------------

  Dipole Moment: [D]
     X:     0.5336      Y:     1.2440      Z:    -0.0188     Total:     1.3537

*** Psi4 exiting successfully. Buy a developer a beer!
