                               Psi4 1.4a3.dev225

  ==> Input File <==

--------------------------------------------------------------------------
#psi4
#
memory 32 gb

molecule  {
0 1
  O       -1.8116000     2.3801270     0.1363720
  O       -1.7799440    -2.3994320     0.1189850
  C        0.9489570    -0.0306590    -0.3689570
  C        2.4429910    -0.0568610    -0.5708560
  C        0.2354480    -1.2220220    -0.2373930
  C        0.2798030     1.1938580    -0.2383990
  C        3.1984060    -0.0265600     0.7613490
  C       -1.0921630     1.2139390     0.0079710
  C       -1.1396310    -1.1871160     0.0102260
  C       -1.8132500     0.0254130     0.1385790
  H        2.7306169    -0.9995478    -1.1556397
  H        2.7446220     0.7994920    -1.1857830
  H        0.7258350    -2.1872220    -0.3369480
  H        0.8309290     2.1284970    -0.3452230
  H        2.9508560     0.8787730     1.3230630
  H        4.2811760    -0.0477390     0.6027570
  H        2.9230980    -0.8883860     1.3756490
  H       -2.8837580     0.0741080     0.3259950
  H       -1.1979550     3.1274200     0.0245130
  H       -2.7238770    -2.2320380     0.2881370
units angstrom
no_reorient  #important for SAPT in psi4, default
symmetry c1  #important for SAPT in psi4, default
}

set PROPERTIES_ORIGIN ["COM"]
properties('MP2/aug-cc-pvtz', properties = ['dipole'])
--------------------------------------------------------------------------

    Molecular point group: c1
  Charge       = 0
  Multiplicity = 1
  Basis Set: AUG-CC-PVTZ
    Blend: AUG-CC-PVTZ
  Basis Set: (AUG-CC-PVTZ AUX)
    Blend: AUG-CC-PVTZ-JKFIT

    Orbital Energies [Eh]
    ---------------------

    Doubly Occupied:

       1A    -20.595854     2A    -20.593454     3A    -11.311359
       4A    -11.309336     5A    -11.252811     6A    -11.238662
       7A    -11.224745     8A    -11.223783     9A    -11.220388
      10A    -11.216950    11A     -1.404413    12A     -1.400934
      13A     -1.149778    14A     -1.062473    15A     -1.001185
      16A     -0.987483    17A     -0.875397    18A     -0.836252
      19A     -0.805821    20A     -0.737711    21A     -0.687267
      22A     -0.674402    23A     -0.665763    24A     -0.609470
      25A     -0.601305    26A     -0.595492    27A     -0.586766
      28A     -0.575903    29A     -0.553544    30A     -0.548941
      31A     -0.523751    32A     -0.520759    33A     -0.485957
      34A     -0.481106    35A     -0.453756    36A     -0.326117
      37A     -0.311660

  @DF-RHF Final Energy:  -458.65748279638478

   => Energetics <=

    Nuclear Repulsion Energy =            506.8561064575990258
    One-Electron Energy =               -1629.7256786165460198
    Two-Electron Energy =                 664.2120893625622102
    Total Energy =                       -458.6574827963847838
  Basis Set: (AUG-CC-PVTZ AUX)
    Blend: AUG-CC-PVTZ-RI
    Molecular point group: c1

    Geometry (in Angstrom), charge = 0, multiplicity = 1:

       Center              X                  Y                   Z               Mass
    ------------   -----------------  -----------------  -----------------  -----------------
         O           -1.737311077773     2.385417202398     0.143337074691    15.994914619570
         O           -1.705655077773    -2.394141797602     0.125950074691    15.994914619570
         C            1.023245922227    -0.025368797602    -0.361991925309    12.000000000000
         C            2.517279922227    -0.051570797602    -0.563890925309    12.000000000000
         C            0.309736922227    -1.216731797602    -0.230427925309    12.000000000000
         C            0.354091922227     1.199148202398    -0.231433925309    12.000000000000
         C            3.272694922227    -0.021269797602     0.768314074691    12.000000000000
         C           -1.017874077773     1.219229202398     0.014936074691    12.000000000000
         C           -1.065342077773    -1.181825797602     0.017191074691    12.000000000000
         C           -1.738961077773     0.030703202398     0.145544074691    12.000000000000
         H            2.804905822227    -0.994257597602    -1.148674625309     1.007825032230
         H            2.818910922227     0.804782202398    -1.178817925309     1.007825032230
         H            0.800123922227    -2.181931797602    -0.329982925309     1.007825032230
         H            0.905217922227     2.133787202398    -0.338257925309     1.007825032230
         H            3.025144922227     0.884063202398     1.330028074691     1.007825032230
         H            4.355464922227    -0.042448797602     0.609722074691     1.007825032230
         H            2.997386922227    -0.883095797602     1.382614074691     1.007825032230
         H           -2.809469077773     0.079398202398     0.332960074691     1.007825032230
         H           -1.123666077773     3.132710202398     0.031478074691     1.007825032230
         H           -2.649588077773    -2.226747797602     0.295102074691     1.007825032230

  Basis Set: AUG-CC-PVTZ
    Blend: AUG-CC-PVTZ
  Basis Set: (AUG-CC-PVTZ AUX)
    Blend: AUG-CC-PVTZ-JKFIT
	 Reference Energy          =    -458.6574827963847838 [Eh]
	 Singles Energy            =      -0.0000000000000000 [Eh]
	 Same-Spin Energy          =      -0.4817764445192436 [Eh]
	 Opposite-Spin Energy      =      -1.5058942603593315 [Eh]
	 Correlation Energy        =      -1.9876707048785751 [Eh]
	 Total Energy              =    -460.6451535012633371 [Eh]

	 ================> DF-SCS-MP2 Energies <==================
	-----------------------------------------------------------
	 SCS Same-Spin Scale       =       0.3333333333333333 [-]
	 SCS Opposite-Spin Scale   =       1.2000000000000000 [-]
	 SCS Same-Spin Energy      =      -0.1605921481730812 [Eh]
	 SCS Opposite-Spin Energy  =      -1.8070731124311976 [Eh]
	 SCS Correlation Energy    =      -1.9676652606042788 [Eh]
	 SCS Total Energy          =    -460.6251480569890759 [Eh]
	-----------------------------------------------------------

  Dipole Moment: [D]
     X:     0.5121      Y:     1.2440      Z:     0.0046     Total:     1.3453

*** Psi4 exiting successfully. Buy a developer a beer!
