                               Psi4 1.3.2 release

  ==> Input File <==

--------------------------------------------------------------------------
#psi4
#
memory 32 gb

molecule  {
0 1
  O        1.7627890     2.3683800    -0.1458810
  O        1.6754140    -2.4069960    -0.1279020
  C       -1.0215720    -0.0077180     0.3641480
  C       -2.5139530    -0.0194410     0.5634370
  C       -0.3230660    -1.2073880     0.2343750
  C       -0.3370590     1.2052280     0.2348720
  C       -3.2735700    -0.0197480    -0.7643280
  C        0.9940627     1.1850325    -0.0106562
  C        1.0070767    -1.1658611    -0.0115230
  C        1.7368580     0.0147850    -0.1457440
  H       -2.7927850    -0.9030380     1.1483340
  H       -2.8082890     0.8538600     1.1573130
  H       -0.8312370    -2.1635460     0.3309200
  H       -0.8789600     2.1456520     0.3351900
  H       -3.0230990     0.8672620    -1.3527740
  H       -4.3574070    -0.0294260    -0.6053230
  H       -3.0076490    -0.8981260    -1.3586750
  H        2.8074370     0.0467670    -0.3362510
  H        1.1590650     3.1223080    -0.0299710
  H        2.6215300    -2.2543830    -0.2976190
units angstrom
no_reorient  #important for SAPT in psi4, default
symmetry c1  #important for SAPT in psi4, default
}

set PROPERTIES_ORIGIN ["COM"]
properties('MP2/aug-cc-pvtz', properties = ['dipole'])
--------------------------------------------------------------------------

    Molecular point group: c1
  Charge       = 0
  Multiplicity = 1
  Basis Set: AUG-CC-PVTZ
    Blend: AUG-CC-PVTZ
  Basis Set: (AUG-CC-PVTZ AUX)
    Blend: AUG-CC-PVTZ-JKFIT

    Orbital Energies [Eh]
    ---------------------

    Doubly Occupied:

       1A    -20.588520     2A    -20.584403     3A    -11.306973
       4A    -11.305665     5A    -11.255685     6A    -11.234936
       7A    -11.227295     8A    -11.223891     9A    -11.222395
      10A    -11.217146    11A     -1.384902    12A     -1.380138
      13A     -1.162100    14A     -1.067502    15A     -1.015302
      16A     -0.991425    17A     -0.882300    18A     -0.829636
      19A     -0.806677    20A     -0.732976    21A     -0.691720
      22A     -0.667238    23A     -0.660045    24A     -0.612565
      25A     -0.599784    26A     -0.591117    27A     -0.583201
      28A     -0.563008    29A     -0.559787    30A     -0.551747
      31A     -0.527331    32A     -0.518664    33A     -0.490821
      34A     -0.488431    35A     -0.459946    36A     -0.326993
      37A     -0.325140

  @DF-RHF Final Energy:  -458.65282965487768

   => Energetics <=

    Nuclear Repulsion Energy =            508.2287993158491872
    One-Electron Energy =               -1632.4884435174112696
    Two-Electron Energy =                 665.6068145466842907
    Total Energy =                       -458.6528296548776780
  Basis Set: (AUG-CC-PVTZ AUX)
    Blend: AUG-CC-PVTZ-RI
    Molecular point group: c1

    Geometry (in Angstrom), charge = 0, multiplicity = 1:

       Center              X                  Y                   Z               Mass
    ------------   -----------------  -----------------  -----------------  -----------------
         O            1.769881506751     2.368419806017    -0.147178067074    15.994914619570
         O            1.682506506751    -2.406956193983    -0.129199067074    15.994914619570
         C           -1.014479493249    -0.007678193983     0.362850932926    12.000000000000
         C           -2.506860493249    -0.019401193983     0.562139932926    12.000000000000
         C           -0.315973493249    -1.207348193983     0.233077932926    12.000000000000
         C           -0.329966493249     1.205267806017     0.233574932926    12.000000000000
         C           -3.266477493249    -0.019708193983    -0.765625067074    12.000000000000
         C            1.001155206751     1.185072306017    -0.011953267074    12.000000000000
         C            1.014169206751    -1.165821293983    -0.012820067074    12.000000000000
         C            1.743950506751     0.014824806017    -0.147041067074    12.000000000000
         H           -2.785692493249    -0.902998193983     1.147036932926     1.007825032230
         H           -2.801196493249     0.853899806017     1.156015932926     1.007825032230
         H           -0.824144493249    -2.163506193983     0.329622932926     1.007825032230
         H           -0.871867493249     2.145691806017     0.333892932926     1.007825032230
         H           -3.016006493249     0.867301806017    -1.354071067074     1.007825032230
         H           -4.350314493249    -0.029386193983    -0.606620067074     1.007825032230
         H           -3.000556493249    -0.898086193983    -1.359972067074     1.007825032230
         H            2.814529506751     0.046806806017    -0.337548067074     1.007825032230
         H            1.166157506751     3.122347806017    -0.031268067074     1.007825032230
         H            2.628622506751    -2.254343193983    -0.298916067074     1.007825032230

  Basis Set: AUG-CC-PVTZ
    Blend: AUG-CC-PVTZ
  Basis Set: (AUG-CC-PVTZ AUX)
    Blend: AUG-CC-PVTZ-JKFIT
	 Reference Energy          =    -458.6528296548776780 [Eh]
	 Singles Energy            =      -0.0000000000000000 [Eh]
	 Same-Spin Energy          =      -0.4820422762179263 [Eh]
	 Opposite-Spin Energy      =      -1.5064639828384618 [Eh]
	 Correlation Energy        =      -1.9885062590563880 [Eh]
	 Total Energy              =    -460.6413359139340855 [Eh]

	 ================> DF-SCS-MP2 Energies <==================
	-----------------------------------------------------------
	 SCS Same-Spin Scale       =       0.3333333333333333 [-]
	 SCS Opposite-Spin Scale   =       1.2000000000000000 [-]
	 SCS Same-Spin Energy      =      -0.1606807587393088 [Eh]
	 SCS Opposite-Spin Energy  =      -1.8077567794061542 [Eh]
	 SCS Correlation Energy    =      -1.9684375381454631 [Eh]
	 SCS Total Energy          =    -460.6212671930231295 [Eh]
	-----------------------------------------------------------

  Dipole Moment: [D]
     X:    -0.8708      Y:     1.2260      Z:     0.0649     Total:     1.5051

*** Psi4 exiting successfully. Buy a developer a beer!
