                               Psi4 1.3.2 release

  ==> Input File <==

--------------------------------------------------------------------------
#psi4
#
memory 32 gb

molecule  {
0 1
  O        1.7627890     2.3683800    -0.1458810
  O        1.6754140    -2.4069960    -0.1279020
  C       -1.0215720    -0.0077180     0.3641480
  C       -2.5139530    -0.0194410     0.5634370
  C       -0.3231531    -1.1952196     0.2343966
  C       -0.3370590     1.2052280     0.2348720
  C       -3.2735700    -0.0197480    -0.7643280
  C        1.0346870     1.2106680    -0.0181020
  C        1.0480560    -1.1910380    -0.0190010
  C        1.7264848     0.0208508    -0.1438243
  H       -2.7927850    -0.9030380     1.1483340
  H       -2.8082890     0.8538600     1.1573130
  H       -0.8312370    -2.1635460     0.3309200
  H       -0.8789600     2.1456520     0.3351900
  H       -3.0230990     0.8672620    -1.3527740
  H       -4.3574070    -0.0294260    -0.6053230
  H       -3.0076490    -0.8981260    -1.3586750
  H        2.8074370     0.0467670    -0.3362510
  H        1.1590650     3.1223080    -0.0299710
  H        2.6215300    -2.2543830    -0.2976190
units angstrom
no_reorient  #important for SAPT in psi4, default
symmetry c1  #important for SAPT in psi4, default
}

set PROPERTIES_ORIGIN ["COM"]
properties('MP2/aug-cc-pvtz', properties = ['dipole'])
--------------------------------------------------------------------------

    Molecular point group: c1
  Charge       = 0
  Multiplicity = 1
  Basis Set: AUG-CC-PVTZ
    Blend: AUG-CC-PVTZ
  Basis Set: (AUG-CC-PVTZ AUX)
    Blend: AUG-CC-PVTZ-JKFIT

    Orbital Energies [Eh]
    ---------------------

    Doubly Occupied:

       1A    -20.595191     2A    -20.594638     3A    -11.308968
       4A    -11.308721     5A    -11.249656     6A    -11.231982
       7A    -11.224038     8A    -11.222425     9A    -11.219586
      10A    -11.216041    11A     -1.405289    12A     -1.402323
      13A     -1.152456    14A     -1.064821    15A     -1.001691
      16A     -0.988432    17A     -0.876307    18A     -0.837277
      19A     -0.808607    20A     -0.739902    21A     -0.687866
      22A     -0.675017    23A     -0.665451    24A     -0.611989
      25A     -0.602650    26A     -0.595363    27A     -0.586794
      28A     -0.576785    29A     -0.553112    30A     -0.548358
      31A     -0.524007    32A     -0.519514    33A     -0.488034
      34A     -0.481639    35A     -0.455262    36A     -0.327157
      37A     -0.311432

  @DF-RHF Final Energy:  -458.65974793796670

   => Energetics <=

    Nuclear Repulsion Energy =            507.8790459651407900
    One-Electron Energy =               -1631.7600284112925237
    Two-Electron Energy =                 665.2212345081851481
    Total Energy =                       -458.6597479379666993
  Basis Set: (AUG-CC-PVTZ AUX)
    Blend: AUG-CC-PVTZ-RI
    Molecular point group: c1

    Geometry (in Angstrom), charge = 0, multiplicity = 1:

       Center              X                  Y                   Z               Mass
    ------------   -----------------  -----------------  -----------------  -----------------
         O            1.763698183258     2.366795146641    -0.146049710683    15.994914619570
         O            1.676323183258    -2.408580853359    -0.128070710683    15.994914619570
         C           -1.020662816742    -0.009302853359     0.363979289317    12.000000000000
         C           -2.513043816742    -0.021025853359     0.563268289317    12.000000000000
         C           -0.322243916742    -1.196804453359     0.234227889317    12.000000000000
         C           -0.336149816742     1.203643146641     0.234703289317    12.000000000000
         C           -3.272660816742    -0.021332853359    -0.764496710683    12.000000000000
         C            1.035596183258     1.209083146641    -0.018270710683    12.000000000000
         C            1.048965183258    -1.192622853359    -0.019169710683    12.000000000000
         C            1.727393983258     0.019265946641    -0.143993010683    12.000000000000
         H           -2.791875816742    -0.904622853359     1.148165289317     1.007825032230
         H           -2.807379816742     0.852275146641     1.157144289317     1.007825032230
         H           -0.830327816742    -2.165130853359     0.330751289317     1.007825032230
         H           -0.878050816742     2.144067146641     0.335021289317     1.007825032230
         H           -3.022189816742     0.865677146641    -1.352942710683     1.007825032230
         H           -4.356497816742    -0.031010853359    -0.605491710683     1.007825032230
         H           -3.006739816742    -0.899710853359    -1.358843710683     1.007825032230
         H            2.808346183258     0.045182146641    -0.336419710683     1.007825032230
         H            1.159974183258     3.120723146641    -0.030139710683     1.007825032230
         H            2.622439183258    -2.255967853359    -0.297787710683     1.007825032230

  Basis Set: AUG-CC-PVTZ
    Blend: AUG-CC-PVTZ
  Basis Set: (AUG-CC-PVTZ AUX)
    Blend: AUG-CC-PVTZ-JKFIT
	 Reference Energy          =    -458.6597479379666993 [Eh]
	 Singles Energy            =      -0.0000000000000000 [Eh]
	 Same-Spin Energy          =      -0.4818441563218284 [Eh]
	 Opposite-Spin Energy      =      -1.5052646342184204 [Eh]
	 Correlation Energy        =      -1.9871087905402489 [Eh]
	 Total Energy              =    -460.6468567285069753 [Eh]

	 ================> DF-SCS-MP2 Energies <==================
	-----------------------------------------------------------
	 SCS Same-Spin Scale       =       0.3333333333333333 [-]
	 SCS Opposite-Spin Scale   =       1.2000000000000000 [-]
	 SCS Same-Spin Energy      =      -0.1606147187739428 [Eh]
	 SCS Opposite-Spin Energy  =      -1.8063175610621043 [Eh]
	 SCS Correlation Energy    =      -1.9669322798360471 [Eh]
	 SCS Total Energy          =    -460.6266802178027433 [Eh]
	-----------------------------------------------------------

  Dipole Moment: [D]
     X:    -0.4916      Y:     1.1979      Z:     0.0084     Total:     1.2948

*** Psi4 exiting successfully. Buy a developer a beer!
