                               Psi4 1.3.2 release

  ==> Input File <==

--------------------------------------------------------------------------
#psi4
#
memory 32 gb

molecule  {
0 1
  O        1.7627890     2.3683800    -0.1458810
  O        1.6754140    -2.4069960    -0.1279020
  C       -1.0198018    -0.0300896     0.3778208
  C       -2.5139530    -0.0194410     0.5634370
  C       -0.3230660    -1.2073880     0.2343750
  C       -0.3370590     1.2052280     0.2348720
  C       -3.2735700    -0.0197480    -0.7643280
  C        1.0346870     1.2106680    -0.0181020
  C        1.0480560    -1.1910380    -0.0190010
  C        1.7368580     0.0147850    -0.1457440
  H       -2.7743662    -0.9081212     1.1491228
  H       -2.8082890     0.8538600     1.1573130
  H       -0.8312370    -2.1635460     0.3309200
  H       -0.8789600     2.1456520     0.3351900
  H       -3.0230990     0.8672620    -1.3527740
  H       -4.3574070    -0.0294260    -0.6053230
  H       -3.0076490    -0.8981260    -1.3586750
  H        2.8074370     0.0467670    -0.3362510
  H        1.1590650     3.1223080    -0.0299710
  H        2.6215300    -2.2543830    -0.2976190
units angstrom
no_reorient  #important for SAPT in psi4, default
symmetry c1  #important for SAPT in psi4, default
}

set PROPERTIES_ORIGIN ["COM"]
properties('MP2/aug-cc-pvtz', properties = ['dipole'])
--------------------------------------------------------------------------

    Molecular point group: c1
  Charge       = 0
  Multiplicity = 1
  Basis Set: AUG-CC-PVTZ
    Blend: AUG-CC-PVTZ
  Basis Set: (AUG-CC-PVTZ AUX)
    Blend: AUG-CC-PVTZ-JKFIT

    Orbital Energies [Eh]
    ---------------------

    Doubly Occupied:

       1A    -20.595050     2A    -20.593984     3A    -11.309776
       4A    -11.309714     5A    -11.251050     6A    -11.232082
       7A    -11.224000     8A    -11.223250     9A    -11.220029
      10A    -11.215170    11A     -1.405085    12A     -1.402195
      13A     -1.150358    14A     -1.063969    15A     -1.002027
      16A     -0.986988    17A     -0.877353    18A     -0.837281
      19A     -0.808559    20A     -0.737428    21A     -0.687850
      22A     -0.675762    23A     -0.666258    24A     -0.610368
      25A     -0.602584    26A     -0.595638    27A     -0.587765
      28A     -0.576548    29A     -0.553119    30A     -0.549282
      31A     -0.524317    32A     -0.521043    33A     -0.490093
      34A     -0.479514    35A     -0.453864    36A     -0.326107
      37A     -0.311424

  @DF-RHF Final Energy:  -458.65939782752349

   => Energetics <=

    Nuclear Repulsion Energy =            507.4895090552780061
    One-Electron Energy =               -1630.9840489016992251
    Two-Electron Energy =                 664.8351420188978409
    Total Energy =                       -458.6593978275234349
  Basis Set: (AUG-CC-PVTZ AUX)
    Blend: AUG-CC-PVTZ-RI
    Molecular point group: c1

    Geometry (in Angstrom), charge = 0, multiplicity = 1:

       Center              X                  Y                   Z               Mass
    ------------   -----------------  -----------------  -----------------  -----------------
         O            1.762500738286     2.370361449423    -0.147075095934    15.994914619570
         O            1.675125738286    -2.405014550577    -0.129096095934    15.994914619570
         C           -1.020090061714    -0.028108150577     0.376626704066    12.000000000000
         C           -2.514241261714    -0.017459550577     0.562242904066    12.000000000000
         C           -0.323354261714    -1.205406550577     0.233180904066    12.000000000000
         C           -0.337347261714     1.207209449423     0.233677904066    12.000000000000
         C           -3.273858261714    -0.017766550577    -0.765522095934    12.000000000000
         C            1.034398738286     1.212649449423    -0.019296095934    12.000000000000
         C            1.047767738286    -1.189056550577    -0.020195095934    12.000000000000
         C            1.736569738286     0.016766449423    -0.146938095934    12.000000000000
         H           -2.774654461714    -0.906139750577     1.147928704066     1.007825032230
         H           -2.808577261714     0.855841449423     1.156118904066     1.007825032230
         H           -0.831525261714    -2.161564550577     0.329725904066     1.007825032230
         H           -0.879248261714     2.147633449423     0.333995904066     1.007825032230
         H           -3.023387261714     0.869243449423    -1.353968095934     1.007825032230
         H           -4.357695261714    -0.027444550577    -0.606517095934     1.007825032230
         H           -3.007937261714    -0.896144550577    -1.359869095934     1.007825032230
         H            2.807148738286     0.048748449423    -0.337445095934     1.007825032230
         H            1.158776738286     3.124289449423    -0.031165095934     1.007825032230
         H            2.621241738286    -2.252401550577    -0.298813095934     1.007825032230

  Basis Set: AUG-CC-PVTZ
    Blend: AUG-CC-PVTZ
  Basis Set: (AUG-CC-PVTZ AUX)
    Blend: AUG-CC-PVTZ-JKFIT
	 Reference Energy          =    -458.6593978275234917 [Eh]
	 Singles Energy            =      -0.0000000000000000 [Eh]
	 Same-Spin Energy          =      -0.4816949170218207 [Eh]
	 Opposite-Spin Energy      =      -1.5052355812503020 [Eh]
	 Correlation Energy        =      -1.9869304982721228 [Eh]
	 Total Energy              =    -460.6463283257955936 [Eh]

	 ================> DF-SCS-MP2 Energies <==================
	-----------------------------------------------------------
	 SCS Same-Spin Scale       =       0.3333333333333333 [-]
	 SCS Opposite-Spin Scale   =       1.2000000000000000 [-]
	 SCS Same-Spin Energy      =      -0.1605649723406069 [Eh]
	 SCS Opposite-Spin Energy  =      -1.8062826975003623 [Eh]
	 SCS Correlation Energy    =      -1.9668476698409691 [Eh]
	 SCS Total Energy          =    -460.6262454973644367 [Eh]
	-----------------------------------------------------------

  Dipole Moment: [D]
     X:    -0.4932      Y:     1.1947      Z:    -0.0032     Total:     1.2925

*** Psi4 exiting successfully. Buy a developer a beer!
