                               Psi4 1.3.2 release

  ==> Input File <==

--------------------------------------------------------------------------
#psi4
#
memory 32 gb

molecule  {
0 1
  O        1.7627890     2.3683800    -0.1458810
  O        1.6754140    -2.4069960    -0.1279020
  C       -1.0215720    -0.0077180     0.3641480
  C       -2.5139530    -0.0194410     0.5634370
  C       -0.3230660    -1.2073880     0.2343750
  C       -0.3370590     1.2052280     0.2348720
  C       -3.2735700    -0.0197480    -0.7643280
  C        1.0346870     1.2106680    -0.0181020
  C        1.0274340    -1.1786316    -0.0153772
  C        1.7368580     0.0147850    -0.1457440
  H       -2.7927850    -0.9030380     1.1483340
  H       -2.8082890     0.8538600     1.1573130
  H       -0.8312370    -2.1635460     0.3309200
  H       -0.8789600     2.1456520     0.3351900
  H       -3.0230990     0.8672620    -1.3527740
  H       -4.3574070    -0.0294260    -0.6053230
  H       -3.0076490    -0.8981260    -1.3586750
  H        2.8067129     0.0657397    -0.3361890
  H        1.1590650     3.1223080    -0.0299710
  H        2.6215300    -2.2543830    -0.2976190
units angstrom
no_reorient  #important for SAPT in psi4, default
symmetry c1  #important for SAPT in psi4, default
}

set PROPERTIES_ORIGIN ["COM"]
properties('MP2/aug-cc-pvtz', properties = ['dipole'])
--------------------------------------------------------------------------

    Molecular point group: c1
  Charge       = 0
  Multiplicity = 1
  Basis Set: AUG-CC-PVTZ
    Blend: AUG-CC-PVTZ
  Basis Set: (AUG-CC-PVTZ AUX)
    Blend: AUG-CC-PVTZ-JKFIT

    Orbital Energies [Eh]
    ---------------------

    Doubly Occupied:

       1A    -20.596140     2A    -20.588469     3A    -11.310470
       4A    -11.307071     5A    -11.252564     6A    -11.232855
       7A    -11.224580     8A    -11.223971     9A    -11.220431
      10A    -11.215319    11A     -1.405412    12A     -1.390830
      13A     -1.153278    14A     -1.064918    15A     -1.005020
      16A     -0.988659    17A     -0.877782    18A     -0.835862
      19A     -0.806703    20A     -0.738169    21A     -0.687073
      22A     -0.674834    23A     -0.665551    24A     -0.612090
      25A     -0.601867    26A     -0.594645    27A     -0.585826
      28A     -0.572286    29A     -0.554797    30A     -0.549283
      31A     -0.523556    32A     -0.521349    33A     -0.488552
      34A     -0.484469    35A     -0.455423    36A     -0.326010
      37A     -0.314884

  @DF-RHF Final Energy:  -458.65916081919795

   => Energetics <=

    Nuclear Repulsion Energy =            507.6844703930114520
    One-Electron Energy =               -1631.3852658114462884
    Two-Electron Energy =                 665.0416345992368861
    Total Energy =                       -458.6591608191979503
  Basis Set: (AUG-CC-PVTZ AUX)
    Blend: AUG-CC-PVTZ-RI
    Molecular point group: c1

    Geometry (in Angstrom), charge = 0, multiplicity = 1:

       Center              X                  Y                   Z               Mass
    ------------   -----------------  -----------------  -----------------  -----------------
         O            1.764586659193     2.367163171156    -0.146196395458    15.994914619570
         O            1.677211659193    -2.408212828844    -0.128217395458    15.994914619570
         C           -1.019774340807    -0.008934828844     0.363832604542    12.000000000000
         C           -2.512155340807    -0.020657828844     0.563121604542    12.000000000000
         C           -0.321268340807    -1.208604828844     0.234059604542    12.000000000000
         C           -0.335261340807     1.204011171156     0.234556604542    12.000000000000
         C           -3.271772340807    -0.020964828844    -0.764643395458    12.000000000000
         C            1.036484659193     1.209451171156    -0.018417395458    12.000000000000
         C            1.029231659193    -1.179848428844    -0.015692595458    12.000000000000
         C            1.738655659193     0.013568171156    -0.146059395458    12.000000000000
         H           -2.790987340807    -0.904254828844     1.148018604542     1.007825032230
         H           -2.806491340807     0.852643171156     1.156997604542     1.007825032230
         H           -0.829439340807    -2.164762828844     0.330604604542     1.007825032230
         H           -0.877162340807     2.144435171156     0.334874604542     1.007825032230
         H           -3.021301340807     0.866045171156    -1.353089395458     1.007825032230
         H           -4.355609340807    -0.030642828844    -0.605638395458     1.007825032230
         H           -3.005851340807    -0.899342828844    -1.358990395458     1.007825032230
         H            2.808510559193     0.064522871156    -0.336504395458     1.007825032230
         H            1.160862659193     3.121091171156    -0.030286395458     1.007825032230
         H            2.623327659193    -2.255599828844    -0.297934395458     1.007825032230

  Basis Set: AUG-CC-PVTZ
    Blend: AUG-CC-PVTZ
  Basis Set: (AUG-CC-PVTZ AUX)
    Blend: AUG-CC-PVTZ-JKFIT
	 Reference Energy          =    -458.6591608191979503 [Eh]
	 Singles Energy            =      -0.0000000000000000 [Eh]
	 Same-Spin Energy          =      -0.4817792453348078 [Eh]
	 Opposite-Spin Energy      =      -1.5054122509516330 [Eh]
	 Correlation Energy        =      -1.9871914962864408 [Eh]
	 Total Energy              =    -460.6463523154843642 [Eh]

	 ================> DF-SCS-MP2 Energies <==================
	-----------------------------------------------------------
	 SCS Same-Spin Scale       =       0.3333333333333333 [-]
	 SCS Opposite-Spin Scale   =       1.2000000000000000 [-]
	 SCS Same-Spin Energy      =      -0.1605930817782693 [Eh]
	 SCS Opposite-Spin Energy  =      -1.8064947011419594 [Eh]
	 SCS Correlation Energy    =      -1.9670877829202287 [Eh]
	 SCS Total Energy          =    -460.6262486021181530 [Eh]
	-----------------------------------------------------------

  Dipole Moment: [D]
     X:    -0.5956      Y:     1.3563      Z:     0.0239     Total:     1.4815

*** Psi4 exiting successfully. Buy a developer a beer!
