                               Psi4 1.3.2 release

  ==> Input File <==

--------------------------------------------------------------------------
#psi4
#
memory 32 gb

molecule  {
0 1
  O        1.7627890     2.3683800    -0.1458810
  O        1.6754140    -2.4069960    -0.1279020
  C       -1.0215720    -0.0077180     0.3641480
  C       -2.5139530    -0.0194410     0.5634370
  C       -0.3230660    -1.2073880     0.2343750
  C       -0.3370590     1.2052280     0.2348720
  C       -3.2735700    -0.0197480    -0.7643280
  C        1.0346870     1.2106680    -0.0181020
  C        1.0480560    -1.1910380    -0.0190010
  C        1.7368580     0.0147850    -0.1457440
  H       -2.7927850    -0.9030380     1.1483340
  H       -2.8082890     0.8538600     1.1573130
  H       -0.8312370    -2.1635460     0.3309200
  H       -0.9286753     2.2319288     0.3443934
  H       -3.0230990     0.8672620    -1.3527740
  H       -4.3574070    -0.0294260    -0.6053230
  H       -3.0076490    -0.8981260    -1.3586750
  H        2.8074370     0.0467670    -0.3362510
  H        1.1590650     3.1223080    -0.0299710
  H        2.6215300    -2.2543830    -0.2976190
units angstrom
no_reorient  #important for SAPT in psi4, default
symmetry c1  #important for SAPT in psi4, default
}

set PROPERTIES_ORIGIN ["COM"]
properties('MP2/aug-cc-pvtz', properties = ['dipole'])
--------------------------------------------------------------------------

    Molecular point group: c1
  Charge       = 0
  Multiplicity = 1
  Basis Set: AUG-CC-PVTZ
    Blend: AUG-CC-PVTZ
  Basis Set: (AUG-CC-PVTZ AUX)
    Blend: AUG-CC-PVTZ-JKFIT

    Orbital Energies [Eh]
    ---------------------

    Doubly Occupied:

       1A    -20.595496     2A    -20.593820     3A    -11.311838
       4A    -11.309421     5A    -11.252734     6A    -11.234375
       7A    -11.232218     8A    -11.224938     9A    -11.219693
      10A    -11.216961    11A     -1.405390    12A     -1.402234
      13A     -1.150769    14A     -1.064392    15A     -0.999998
      16A     -0.987258    17A     -0.876125    18A     -0.834724
      19A     -0.808248    20A     -0.740210    21A     -0.684447
      22A     -0.675689    23A     -0.658164    24A     -0.612108
      25A     -0.601808    26A     -0.593395    27A     -0.587489
      28A     -0.576719    29A     -0.551122    30A     -0.548909
      31A     -0.522020    32A     -0.516250    33A     -0.487731
      34A     -0.482842    35A     -0.454666    36A     -0.326731
      37A     -0.312117

  @DF-RHF Final Energy:  -458.65295102166527

   => Energetics <=

    Nuclear Repulsion Energy =            507.0045517491340661
    One-Electron Energy =               -1630.0089053520509879
    Two-Electron Energy =                 664.3514025812517048
    Total Energy =                       -458.6529510216653307
  Basis Set: (AUG-CC-PVTZ AUX)
    Blend: AUG-CC-PVTZ-RI
    Molecular point group: c1

    Geometry (in Angstrom), charge = 0, multiplicity = 1:

       Center              X                  Y                   Z               Mass
    ------------   -----------------  -----------------  -----------------  -----------------
         O            1.763151936244     2.367750171739    -0.145948165249    15.994914619570
         O            1.675776936244    -2.407625828261    -0.127969165249    15.994914619570
         C           -1.021209063756    -0.008347828261     0.364080834751    12.000000000000
         C           -2.513590063756    -0.020070828261     0.563369834751    12.000000000000
         C           -0.322703063756    -1.208017828261     0.234307834751    12.000000000000
         C           -0.336696063756     1.204598171739     0.234804834751    12.000000000000
         C           -3.273207063756    -0.020377828261    -0.764395165249    12.000000000000
         C            1.035049936244     1.210038171739    -0.018169165249    12.000000000000
         C            1.048418936244    -1.191667828261    -0.019068165249    12.000000000000
         C            1.737220936244     0.014155171739    -0.145811165249    12.000000000000
         H           -2.792422063756    -0.903667828261     1.148266834751     1.007825032230
         H           -2.807926063756     0.853230171739     1.157245834751     1.007825032230
         H           -0.830874063756    -2.164175828261     0.330852834751     1.007825032230
         H           -0.928312363756     2.231298971739     0.344326234751     1.007825032230
         H           -3.022736063756     0.866632171739    -1.352841165249     1.007825032230
         H           -4.357044063756    -0.030055828261    -0.605390165249     1.007825032230
         H           -3.007286063756    -0.898755828261    -1.358742165249     1.007825032230
         H            2.807799936244     0.046137171739    -0.336318165249     1.007825032230
         H            1.159427936244     3.121678171739    -0.030038165249     1.007825032230
         H            2.621892936244    -2.255012828261    -0.297686165249     1.007825032230

  Basis Set: AUG-CC-PVTZ
    Blend: AUG-CC-PVTZ
  Basis Set: (AUG-CC-PVTZ AUX)
    Blend: AUG-CC-PVTZ-JKFIT
	 Reference Energy          =    -458.6529510216652739 [Eh]
	 Singles Energy            =      -0.0000000000000000 [Eh]
	 Same-Spin Energy          =      -0.4819922640846934 [Eh]
	 Opposite-Spin Energy      =      -1.5060719668745688 [Eh]
	 Correlation Energy        =      -1.9880642309592622 [Eh]
	 Total Energy              =    -460.6410152526245270 [Eh]

	 ================> DF-SCS-MP2 Energies <==================
	-----------------------------------------------------------
	 SCS Same-Spin Scale       =       0.3333333333333333 [-]
	 SCS Opposite-Spin Scale   =       1.2000000000000000 [-]
	 SCS Same-Spin Energy      =      -0.1606640880282311 [Eh]
	 SCS Opposite-Spin Energy  =      -1.8072863602494824 [Eh]
	 SCS Correlation Energy    =      -1.9679504482777135 [Eh]
	 SCS Total Energy          =    -460.6209014699429645 [Eh]
	-----------------------------------------------------------

  Dipole Moment: [D]
     X:    -0.4837      Y:     1.1702      Z:     0.0057     Total:     1.2662

*** Psi4 exiting successfully. Buy a developer a beer!
