                               Psi4 1.4a3.dev225

  ==> Input File <==

--------------------------------------------------------------------------
#psi4
#
memory 32 gb

molecule  {
0 1
  O       -1.8116000     2.3801270     0.1363720
  O       -1.7799440    -2.3994320     0.1189850
  C        0.9489570    -0.0306590    -0.3689570
  C        2.4429910    -0.0568610    -0.5708560
  C        0.2354480    -1.2220220    -0.2373930
  C        0.2798030     1.1938580    -0.2383990
  C        3.1984060    -0.0265600     0.7613490
  C       -1.1413707     1.2146592     0.0168074
  C       -1.1396310    -1.1871160     0.0102260
  C       -1.8132500     0.0254130     0.1385790
  H        2.7180680    -0.9584190    -1.1301260
  H        2.7446220     0.7994920    -1.1857830
  H        0.7258350    -2.1872220    -0.3369480
  H        0.8309290     2.1284970    -0.3452230
  H        2.9508560     0.8787730     1.3230630
  H        4.2811760    -0.0477390     0.6027570
  H        2.9230980    -0.8883860     1.3756490
  H       -2.8837580     0.0741080     0.3259950
  H       -1.1979550     3.1274200     0.0245130
  H       -2.7238770    -2.2320380     0.2881370
units angstrom
no_reorient  #important for SAPT in psi4, default
symmetry c1  #important for SAPT in psi4, default
}

set PROPERTIES_ORIGIN ["COM"]
properties('MP2/aug-cc-pvtz', properties = ['dipole'])
--------------------------------------------------------------------------

    Molecular point group: c1
  Charge       = 0
  Multiplicity = 1
  Basis Set: AUG-CC-PVTZ
    Blend: AUG-CC-PVTZ
  Basis Set: (AUG-CC-PVTZ AUX)
    Blend: AUG-CC-PVTZ-JKFIT

    Orbital Energies [Eh]
    ---------------------

    Doubly Occupied:

       1A    -20.599669     2A    -20.593804     3A    -11.313925
       4A    -11.309868     5A    -11.250544     6A    -11.231388
       7A    -11.225440     8A    -11.222260     9A    -11.218809
      10A    -11.214597    11A     -1.416582    12A     -1.401607
      13A     -1.146371    14A     -1.064814    15A     -0.996718
      16A     -0.985759    17A     -0.873282    18A     -0.841761
      19A     -0.806666    20A     -0.739824    21A     -0.691487
      22A     -0.679481    23A     -0.664761    24A     -0.611537
      25A     -0.605028    26A     -0.596406    27A     -0.587735
      28A     -0.578988    29A     -0.553207    30A     -0.544254
      31A     -0.524475    32A     -0.519632    33A     -0.487178
      34A     -0.477672    35A     -0.451619    36A     -0.329140
      37A     -0.304395

  @DF-RHF Final Energy:  -458.65724254427386

   => Energetics <=

    Nuclear Repulsion Energy =            506.9033225546385779
    One-Electron Energy =               -1629.7997649744852424
    Two-Electron Energy =                 664.2391998755726945
    Total Energy =                       -458.6572425442739132
  Basis Set: (AUG-CC-PVTZ AUX)
    Blend: AUG-CC-PVTZ-RI
    Molecular point group: c1

    Geometry (in Angstrom), charge = 0, multiplicity = 1:

       Center              X                  Y                   Z               Mass
    ------------   -----------------  -----------------  -----------------  -----------------
         O           -1.732942656792     2.385054388384     0.142382834247    15.994914619570
         O           -1.701286656792    -2.394504611616     0.124995834247    15.994914619570
         C            1.027614343208    -0.025731611616    -0.362946165753    12.000000000000
         C            2.521648343208    -0.051933611616    -0.564845165753    12.000000000000
         C            0.314105343208    -1.217094611616    -0.231382165753    12.000000000000
         C            0.358460343208     1.198785388384    -0.232388165753    12.000000000000
         C            3.277063343208    -0.021632611616     0.767359834247    12.000000000000
         C           -1.062713356792     1.219586588384     0.022818234247    12.000000000000
         C           -1.060973656792    -1.182188611616     0.016236834247    12.000000000000
         C           -1.734592656792     0.030340388384     0.144589834247    12.000000000000
         H            2.796725343208    -0.953491611616    -1.124115165753     1.007825032230
         H            2.823279343208     0.804419388384    -1.179772165753     1.007825032230
         H            0.804492343208    -2.182294611616    -0.330937165753     1.007825032230
         H            0.909586343208     2.133424388384    -0.339212165753     1.007825032230
         H            3.029513343208     0.883700388384     1.329073834247     1.007825032230
         H            4.359833343208    -0.042811611616     0.608767834247     1.007825032230
         H            3.001755343208    -0.883458611616     1.381659834247     1.007825032230
         H           -2.805100656792     0.079035388384     0.332005834247     1.007825032230
         H           -1.119297656792     3.132347388384     0.030523834247     1.007825032230
         H           -2.645219656792    -2.227110611616     0.294147834247     1.007825032230

  Basis Set: AUG-CC-PVTZ
    Blend: AUG-CC-PVTZ
  Basis Set: (AUG-CC-PVTZ AUX)
    Blend: AUG-CC-PVTZ-JKFIT
	 Reference Energy          =    -458.6572425442738563 [Eh]
	 Singles Energy            =      -0.0000000000000000 [Eh]
	 Same-Spin Energy          =      -0.4816458078836680 [Eh]
	 Opposite-Spin Energy      =      -1.5051013655067882 [Eh]
	 Correlation Energy        =      -1.9867471733904563 [Eh]
	 Total Energy              =    -460.6439897176643399 [Eh]

	 ================> DF-SCS-MP2 Energies <==================
	-----------------------------------------------------------
	 SCS Same-Spin Scale       =       0.3333333333333333 [-]
	 SCS Opposite-Spin Scale   =       1.2000000000000000 [-]
	 SCS Same-Spin Energy      =      -0.1605486026278893 [Eh]
	 SCS Opposite-Spin Energy  =      -1.8061216386081458 [Eh]
	 SCS Correlation Energy    =      -1.9666702412360351 [Eh]
	 SCS Total Energy          =    -460.6239127855099014 [Eh]
	-----------------------------------------------------------

  Dipole Moment: [D]
     X:     0.3941      Y:     1.3668      Z:     0.0029     Total:     1.4225

*** Psi4 exiting successfully. Buy a developer a beer!
