                               Psi4 1.3.2 release

  ==> Input File <==

--------------------------------------------------------------------------
#psi4
#
memory 32 gb

molecule  {
0 1
  O        1.7627890     2.3683800    -0.1458810
  O        1.6754140    -2.4069960    -0.1279020
  C       -1.0215720    -0.0077180     0.3641480
  C       -2.5139530    -0.0194410     0.5634370
  C       -0.3230660    -1.2073880     0.2343750
  C       -0.3370590     1.2052280     0.2348720
  C       -3.2735700    -0.0197480    -0.7643280
  C        1.0952275     1.1735685    -0.0295015
  C        1.0480560    -1.1910380    -0.0190010
  C        1.7368580     0.0147850    -0.1457440
  H       -2.7927850    -0.9030380     1.1483340
  H       -2.8082890     0.8538600     1.1573130
  H       -0.8312370    -2.1635460     0.3309200
  H       -0.8789600     2.1456520     0.3351900
  H       -3.0230990     0.8672620    -1.3527740
  H       -4.3574070    -0.0294260    -0.6053230
  H       -3.0076490    -0.8981260    -1.3586750
  H        2.8074370     0.0467670    -0.3362510
  H        1.1987274     3.1534470    -0.0371171
  H        2.6215300    -2.2543830    -0.2976190
units angstrom
no_reorient  #important for SAPT in psi4, default
symmetry c1  #important for SAPT in psi4, default
}

set PROPERTIES_ORIGIN ["COM"]
properties('MP2/aug-cc-pvtz', properties = ['dipole'])
--------------------------------------------------------------------------

    Molecular point group: c1
  Charge       = 0
  Multiplicity = 1
  Basis Set: AUG-CC-PVTZ
    Blend: AUG-CC-PVTZ
  Basis Set: (AUG-CC-PVTZ AUX)
    Blend: AUG-CC-PVTZ-JKFIT

    Orbital Energies [Eh]
    ---------------------

    Doubly Occupied:

       1A    -20.595050     2A    -20.591849     3A    -11.310804
       4A    -11.310683     5A    -11.248923     6A    -11.230633
       7A    -11.225676     8A    -11.220351     9A    -11.218640
      10A    -11.214419    11A     -1.404484    12A     -1.399376
      13A     -1.150300    14A     -1.069749    15A     -0.999860
      16A     -0.985346    17A     -0.873135    18A     -0.842051
      19A     -0.806604    20A     -0.736485    21A     -0.695570
      22A     -0.678862    23A     -0.664965    24A     -0.609621
      25A     -0.601146    26A     -0.595272    27A     -0.585914
      28A     -0.575522    29A     -0.552474    30A     -0.544222
      31A     -0.527599    32A     -0.519028    33A     -0.486600
      34A     -0.474807    35A     -0.453447    36A     -0.334937
      37A     -0.303481

  @DF-RHF Final Energy:  -458.65299403785315

   => Energetics <=

    Nuclear Repulsion Energy =            507.4158774733683117
    One-Electron Energy =               -1630.8619784419661300
    Two-Electron Energy =                 664.7931069307447842
    Total Energy =                       -458.6529940378530910
  Basis Set: (AUG-CC-PVTZ AUX)
    Blend: AUG-CC-PVTZ-RI
    Molecular point group: c1

    Geometry (in Angstrom), charge = 0, multiplicity = 1:

       Center              X                  Y                   Z               Mass
    ------------   -----------------  -----------------  -----------------  -----------------
         O            1.757237730108     2.371377101705    -0.144838050327    15.994914619570
         O            1.669862730108    -2.403998898295    -0.126859050327    15.994914619570
         C           -1.027123269892    -0.004720898295     0.365190949673    12.000000000000
         C           -2.519504269892    -0.016443898295     0.564479949673    12.000000000000
         C           -0.328617269892    -1.204390898295     0.235417949673    12.000000000000
         C           -0.342610269892     1.208225101705     0.235914949673    12.000000000000
         C           -3.279121269892    -0.016750898295    -0.763285050327    12.000000000000
         C            1.089676230108     1.176565601705    -0.028458550327    12.000000000000
         C            1.042504730108    -1.188040898295    -0.017958050327    12.000000000000
         C            1.731306730108     0.017782101705    -0.144701050327    12.000000000000
         H           -2.798336269892    -0.900040898295     1.149376949673     1.007825032230
         H           -2.813840269892     0.856857101705     1.158355949673     1.007825032230
         H           -0.836788269892    -2.160548898295     0.331962949673     1.007825032230
         H           -0.884511269892     2.148649101705     0.336232949673     1.007825032230
         H           -3.028650269892     0.870259101705    -1.351731050327     1.007825032230
         H           -4.362958269892    -0.026428898295    -0.604280050327     1.007825032230
         H           -3.013200269892    -0.895128898295    -1.357632050327     1.007825032230
         H            2.801885730108     0.049764101705    -0.335208050327     1.007825032230
         H            1.193176130108     3.156444101705    -0.036074150327     1.007825032230
         H            2.615978730108    -2.251385898295    -0.296576050327     1.007825032230

  Basis Set: AUG-CC-PVTZ
    Blend: AUG-CC-PVTZ
  Basis Set: (AUG-CC-PVTZ AUX)
    Blend: AUG-CC-PVTZ-JKFIT
	 Reference Energy          =    -458.6529940378531478 [Eh]
	 Singles Energy            =      -0.0000000000000000 [Eh]
	 Same-Spin Energy          =      -0.4814196941167155 [Eh]
	 Opposite-Spin Energy      =      -1.5048939513969175 [Eh]
	 Correlation Energy        =      -1.9863136455136330 [Eh]
	 Total Energy              =    -460.6393076833667806 [Eh]

	 ================> DF-SCS-MP2 Energies <==================
	-----------------------------------------------------------
	 SCS Same-Spin Scale       =       0.3333333333333333 [-]
	 SCS Opposite-Spin Scale   =       1.2000000000000000 [-]
	 SCS Same-Spin Energy      =      -0.1604732313722385 [Eh]
	 SCS Opposite-Spin Energy  =      -1.8058727416763010 [Eh]
	 SCS Correlation Energy    =      -1.9663459730485395 [Eh]
	 SCS Total Energy          =    -460.6193400109016807 [Eh]
	-----------------------------------------------------------

  Dipole Moment: [D]
     X:    -0.3764      Y:     1.2449      Z:    -0.0105     Total:     1.3006

*** Psi4 exiting successfully. Buy a developer a beer!
