                               Psi4 1.3.2 release

  ==> Input File <==

--------------------------------------------------------------------------
#psi4
#
memory 32 gb

molecule  {
0 1
  O        1.7627890     2.3683800    -0.1458810
  O        1.6754140    -2.4069960    -0.1279020
  C       -1.0215720    -0.0077180     0.3641480
  C       -2.5139530    -0.0194410     0.5634370
  C       -0.3230660    -1.2073880     0.2343750
  C       -0.3370590     1.2052280     0.2348720
  C       -3.2735700    -0.0197480    -0.7643280
  C        1.0346870     1.2106680    -0.0181020
  C        1.0584461    -1.1971037    -0.0208274
  C        1.7368580     0.0147850    -0.1457440
  H       -2.7927850    -0.9030380     1.1483340
  H       -2.8082890     0.8538600     1.1573130
  H       -0.8312370    -2.1635460     0.3309200
  H       -0.8789600     2.1456520     0.3351900
  H       -3.0230990     0.8672620    -1.3527740
  H       -4.3574070    -0.0294260    -0.6053230
  H       -3.0076490    -0.8981260    -1.3586750
  H        2.8076768     0.0372766    -0.3362602
  H        1.1590650     3.1223080    -0.0299710
  H        2.6215300    -2.2543830    -0.2976190
units angstrom
no_reorient  #important for SAPT in psi4, default
symmetry c1  #important for SAPT in psi4, default
}

set PROPERTIES_ORIGIN ["COM"]
properties('MP2/aug-cc-pvtz', properties = ['dipole'])
--------------------------------------------------------------------------

    Molecular point group: c1
  Charge       = 0
  Multiplicity = 1
  Basis Set: AUG-CC-PVTZ
    Blend: AUG-CC-PVTZ
  Basis Set: (AUG-CC-PVTZ AUX)
    Blend: AUG-CC-PVTZ-JKFIT

    Orbital Energies [Eh]
    ---------------------

    Doubly Occupied:

       1A    -20.595761     2A    -20.595484     3A    -11.310534
       4A    -11.309684     5A    -11.250787     6A    -11.231733
       7A    -11.223671     8A    -11.222103     9A    -11.219385
      10A    -11.216226    11A     -1.408820    12A     -1.404104
      13A     -1.149043    14A     -1.063563    15A     -0.999616
      16A     -0.987653    17A     -0.876117    18A     -0.837129
      19A     -0.809049    20A     -0.740638    21A     -0.688279
      22A     -0.675036    23A     -0.666281    24A     -0.611955
      25A     -0.602924    26A     -0.595711    27A     -0.588520
      28A     -0.578325    29A     -0.551925    30A     -0.548786
      31A     -0.524028    32A     -0.520341    33A     -0.487382
      34A     -0.481690    35A     -0.453224    36A     -0.325907
      37A     -0.309573

  @DF-RHF Final Energy:  -458.66008447959592

   => Energetics <=

    Nuclear Repulsion Energy =            507.4207317340939767
    One-Electron Energy =               -1630.8396580435692158
    Two-Electron Energy =                 664.7588418298792021
    Total Energy =                       -458.6600844795959802
  Basis Set: (AUG-CC-PVTZ AUX)
    Blend: AUG-CC-PVTZ-RI
    Molecular point group: c1

    Geometry (in Angstrom), charge = 0, multiplicity = 1:

       Center              X                  Y                   Z               Mass
    ------------   -----------------  -----------------  -----------------  -----------------
         O            1.761884248587     2.368976414488    -0.145722178989    15.994914619570
         O            1.674509248587    -2.406399585512    -0.127743178989    15.994914619570
         C           -1.022476751413    -0.007121585512     0.364306821011    12.000000000000
         C           -2.514857751413    -0.018844585512     0.563595821011    12.000000000000
         C           -0.323970751413    -1.206791585512     0.234533821011    12.000000000000
         C           -0.337963751413     1.205824414488     0.235030821011    12.000000000000
         C           -3.274474751413    -0.019151585512    -0.764169178989    12.000000000000
         C            1.033782248587     1.211264414488    -0.017943178989    12.000000000000
         C            1.057541348587    -1.196507285512    -0.020668578989    12.000000000000
         C            1.735953248587     0.015381414488    -0.145585178989    12.000000000000
         H           -2.793689751413    -0.902441585512     1.148492821011     1.007825032230
         H           -2.809193751413     0.854456414488     1.157471821011     1.007825032230
         H           -0.832141751413    -2.162949585512     0.331078821011     1.007825032230
         H           -0.879864751413     2.146248414488     0.335348821011     1.007825032230
         H           -3.024003751413     0.867858414488    -1.352615178989     1.007825032230
         H           -4.358311751413    -0.028829585512    -0.605164178989     1.007825032230
         H           -3.008553751413    -0.897529585512    -1.358516178989     1.007825032230
         H            2.806772048587     0.037873014488    -0.336101378989     1.007825032230
         H            1.158160248587     3.122904414488    -0.029812178989     1.007825032230
         H            2.620625248587    -2.253786585512    -0.297460178989     1.007825032230

  Basis Set: AUG-CC-PVTZ
    Blend: AUG-CC-PVTZ
  Basis Set: (AUG-CC-PVTZ AUX)
    Blend: AUG-CC-PVTZ-JKFIT
	 Reference Energy          =    -458.6600844795959233 [Eh]
	 Singles Energy            =      -0.0000000000000000 [Eh]
	 Same-Spin Energy          =      -0.4817184777877343 [Eh]
	 Opposite-Spin Energy      =      -1.5051375738478794 [Eh]
	 Correlation Energy        =      -1.9868560516356137 [Eh]
	 Total Energy              =    -460.6469405312315644 [Eh]

	 ================> DF-SCS-MP2 Energies <==================
	-----------------------------------------------------------
	 SCS Same-Spin Scale       =       0.3333333333333333 [-]
	 SCS Opposite-Spin Scale   =       1.2000000000000000 [-]
	 SCS Same-Spin Energy      =      -0.1605728259292448 [Eh]
	 SCS Opposite-Spin Energy  =      -1.8061650886174552 [Eh]
	 SCS Correlation Energy    =      -1.9667379145466999 [Eh]
	 SCS Total Energy          =    -460.6268223941426072 [Eh]
	-----------------------------------------------------------

  Dipole Moment: [D]
     X:    -0.4499      Y:     1.1532      Z:     0.0023     Total:     1.2378

*** Psi4 exiting successfully. Buy a developer a beer!
