                               Psi4 1.3.2 release

  ==> Input File <==

--------------------------------------------------------------------------
#psi4
#
memory 32 gb

molecule  {
0 1
  O        1.7627890     2.3683800    -0.1458810
  O        1.6754140    -2.4069960    -0.1279020
  C       -1.0215720    -0.0077180     0.3641480
  C       -2.5139530    -0.0194410     0.5634370
  C       -0.3220224    -1.1343917     0.2342153
  C       -0.3370590     1.2052280     0.2348720
  C       -3.2735700    -0.0197480    -0.7643280
  C        1.0346870     1.2106680    -0.0181020
  C        1.0480560    -1.1910380    -0.0190010
  C        1.6738599     0.0497868    -0.1340860
  H       -2.7927850    -0.9030380     1.1483340
  H       -2.8082890     0.8538600     1.1573130
  H       -0.8312370    -2.1635460     0.3309200
  H       -0.8789600     2.1456520     0.3351900
  H       -3.0230990     0.8672620    -1.3527740
  H       -4.3574070    -0.0294260    -0.6053230
  H       -3.0076490    -0.8981260    -1.3586750
  H        2.8074370     0.0467670    -0.3362510
  H        1.1590650     3.1223080    -0.0299710
  H        2.6215300    -2.2543830    -0.2976190
units angstrom
no_reorient  #important for SAPT in psi4, default
symmetry c1  #important for SAPT in psi4, default
}

set PROPERTIES_ORIGIN ["COM"]
properties('MP2/aug-cc-pvtz', properties = ['dipole'])
--------------------------------------------------------------------------

    Molecular point group: c1
  Charge       = 0
  Multiplicity = 1
  Basis Set: AUG-CC-PVTZ
    Blend: AUG-CC-PVTZ
  Basis Set: (AUG-CC-PVTZ AUX)
    Blend: AUG-CC-PVTZ-JKFIT

    Orbital Energies [Eh]
    ---------------------

    Doubly Occupied:

       1A    -20.601140     2A    -20.593034     3A    -11.310452
       4A    -11.300027     5A    -11.241359     6A    -11.231650
       7A    -11.224729     8A    -11.221467     9A    -11.219040
      10A    -11.216877    11A     -1.407310    12A     -1.402456
      13A     -1.163848    14A     -1.069613    15A     -1.005017
      16A     -0.990065    17A     -0.875596    18A     -0.841093
      19A     -0.809986    20A     -0.740682    21A     -0.693380
      22A     -0.678690    23A     -0.656021    24A     -0.612824
      25A     -0.604357    26A     -0.595923    27A     -0.586155
      28A     -0.578473    29A     -0.555936    30A     -0.542669
      31A     -0.524545    32A     -0.511729    33A     -0.488810
      34A     -0.471599    35A     -0.462148    36A     -0.335772
      37A     -0.310349

  @DF-RHF Final Energy:  -458.64430211199880

   => Energetics <=

    Nuclear Repulsion Energy =            509.8149847960157217
    One-Electron Energy =               -1635.5689298309080186
    Two-Electron Energy =                 667.1096429228934994
    Total Energy =                       -458.6443021119987407
  Basis Set: (AUG-CC-PVTZ AUX)
    Blend: AUG-CC-PVTZ-RI
    Molecular point group: c1

    Geometry (in Angstrom), charge = 0, multiplicity = 1:

       Center              X                  Y                   Z               Mass
    ------------   -----------------  -----------------  -----------------  -----------------
         O            1.768173731857     2.358993438937    -0.146880344385    15.994914619570
         O            1.680798731857    -2.416382561063    -0.128901344385    15.994914619570
         C           -1.016187268143    -0.017104561063     0.363148655615    12.000000000000
         C           -2.508568268143    -0.028827561063     0.562437655615    12.000000000000
         C           -0.316637668143    -1.143778261063     0.233215955615    12.000000000000
         C           -0.331674268143     1.195841438937     0.233872655615    12.000000000000
         C           -3.268185268143    -0.029134561063    -0.765327344385    12.000000000000
         C            1.040071731857     1.201281438937    -0.019101344385    12.000000000000
         C            1.053440731857    -1.200424561063    -0.020000344385    12.000000000000
         C            1.679244631857     0.040400238937    -0.135085344385    12.000000000000
         H           -2.787400268143    -0.912424561063     1.147334655615     1.007825032230
         H           -2.802904268143     0.844473438937     1.156313655615     1.007825032230
         H           -0.825852268143    -2.172932561063     0.329920655615     1.007825032230
         H           -0.873575268143     2.136265438937     0.334190655615     1.007825032230
         H           -3.017714268143     0.857875438937    -1.353773344385     1.007825032230
         H           -4.352022268143    -0.038812561063    -0.606322344385     1.007825032230
         H           -3.002264268143    -0.907512561063    -1.359674344385     1.007825032230
         H            2.812821731857     0.037380438937    -0.337250344385     1.007825032230
         H            1.164449731857     3.112921438937    -0.030970344385     1.007825032230
         H            2.626914731857    -2.263769561063    -0.298618344385     1.007825032230

  Basis Set: AUG-CC-PVTZ
    Blend: AUG-CC-PVTZ
  Basis Set: (AUG-CC-PVTZ AUX)
    Blend: AUG-CC-PVTZ-JKFIT
	 Reference Energy          =    -458.6443021119987975 [Eh]
	 Singles Energy            =      -0.0000000000000000 [Eh]
	 Same-Spin Energy          =      -0.4826974240368681 [Eh]
	 Opposite-Spin Energy      =      -1.5062865272344046 [Eh]
	 Correlation Energy        =      -1.9889839512712726 [Eh]
	 Total Energy              =    -460.6332860632700772 [Eh]

	 ================> DF-SCS-MP2 Energies <==================
	-----------------------------------------------------------
	 SCS Same-Spin Scale       =       0.3333333333333333 [-]
	 SCS Opposite-Spin Scale   =       1.2000000000000000 [-]
	 SCS Same-Spin Energy      =      -0.1608991413456227 [Eh]
	 SCS Opposite-Spin Energy  =      -1.8075438326812854 [Eh]
	 SCS Correlation Energy    =      -1.9684429740269080 [Eh]
	 SCS Total Energy          =    -460.6127450860257113 [Eh]
	-----------------------------------------------------------

  Dipole Moment: [D]
     X:    -0.4703      Y:     1.0982      Z:     0.0043     Total:     1.1947

*** Psi4 exiting successfully. Buy a developer a beer!
