                               Psi4 1.4a3.dev225

  ==> Input File <==

--------------------------------------------------------------------------
#psi4
#
memory 32 gb

molecule  {
0 1
  O       -1.8116000     2.3801270     0.1363720
  O       -1.7799440    -2.3994320     0.1189850
  C        0.9489570    -0.0306590    -0.3689570
  C        2.4429910    -0.0568610    -0.5708560
  C        0.2354480    -1.2220220    -0.2373930
  C        0.2798030     1.1938580    -0.2383990
  C        3.1984060    -0.0265600     0.7613490
  C       -1.0921630     1.2139390     0.0079710
  C       -1.1396310    -1.1871160     0.0102260
  C       -1.7874284     0.0679732     0.1339020
  H        2.7180680    -0.9584190    -1.1301260
  H        2.7446220     0.7994920    -1.1857830
  H        0.7258350    -2.1872220    -0.3369480
  H        0.8309290     2.1284970    -0.3452230
  H        2.9508560     0.8787730     1.3230630
  H        4.2811760    -0.0477390     0.6027570
  H        2.9230980    -0.8883860     1.3756490
  H       -2.8837580     0.0741080     0.3259950
  H       -1.1979550     3.1274200     0.0245130
  H       -2.7238770    -2.2320380     0.2881370
units angstrom
no_reorient  #important for SAPT in psi4, default
symmetry c1  #important for SAPT in psi4, default
}

set PROPERTIES_ORIGIN ["COM"]
properties('MP2/aug-cc-pvtz', properties = ['dipole'])
--------------------------------------------------------------------------

    Molecular point group: c1
  Charge       = 0
  Multiplicity = 1
  Basis Set: AUG-CC-PVTZ
    Blend: AUG-CC-PVTZ
  Basis Set: (AUG-CC-PVTZ AUX)
    Blend: AUG-CC-PVTZ-JKFIT

    Orbital Energies [Eh]
    ---------------------

    Doubly Occupied:

       1A    -20.597221     2A    -20.593190     3A    -11.312561
       4A    -11.303851     5A    -11.251691     6A    -11.232351
       7A    -11.224446     8A    -11.222980     9A    -11.219660
      10A    -11.217004    11A     -1.404444    12A     -1.401448
      13A     -1.151919    14A     -1.065472    15A     -1.002953
      16A     -0.987218    17A     -0.876208    18A     -0.836043
      19A     -0.807037    20A     -0.739680    21A     -0.689571
      22A     -0.672306    23A     -0.664243    24A     -0.611164
      25A     -0.602365    26A     -0.594480    27A     -0.588982
      28A     -0.576452    29A     -0.552797    30A     -0.546846
      31A     -0.526181    32A     -0.518895    33A     -0.488133
      34A     -0.480915    35A     -0.455162    36A     -0.328065
      37A     -0.311085

  @DF-RHF Final Energy:  -458.65621506707686

   => Energetics <=

    Nuclear Repulsion Energy =            507.5705156225086512
    One-Electron Energy =               -1631.1434234783571355
    Two-Electron Energy =                 664.9166927887715701
    Total Energy =                       -458.6562150670768006
  Basis Set: (AUG-CC-PVTZ AUX)
    Blend: AUG-CC-PVTZ-RI
    Molecular point group: c1

    Geometry (in Angstrom), charge = 0, multiplicity = 1:

       Center              X                  Y                   Z               Mass
    ------------   -----------------  -----------------  -----------------  -----------------
         O           -1.739463726708     2.381417921493     0.143557333092    15.994914619570
         O           -1.707807726708    -2.398141078507     0.126170333092    15.994914619570
         C            1.021093273292    -0.029368078507    -0.361771666908    12.000000000000
         C            2.515127273292    -0.055570078507    -0.563670666908    12.000000000000
         C            0.307584273292    -1.220731078507    -0.230207666908    12.000000000000
         C            0.351939273292     1.195148921493    -0.231213666908    12.000000000000
         C            3.270542273292    -0.025269078507     0.768534333092    12.000000000000
         C           -1.020026726708     1.215229921493     0.015156333092    12.000000000000
         C           -1.067494726708    -1.185825078507     0.017411333092    12.000000000000
         C           -1.715292126708     0.069264121493     0.141087333092    12.000000000000
         H            2.790204273292    -0.957128078507    -1.122940666908     1.007825032230
         H            2.816758273292     0.800782921493    -1.178597666908     1.007825032230
         H            0.797971273292    -2.185931078507    -0.329762666908     1.007825032230
         H            0.903065273292     2.129787921493    -0.338037666908     1.007825032230
         H            3.022992273292     0.880063921493     1.330248333092     1.007825032230
         H            4.353312273292    -0.046448078507     0.609942333092     1.007825032230
         H            2.995234273292    -0.887095078507     1.382834333092     1.007825032230
         H           -2.811621726708     0.075398921493     0.333180333092     1.007825032230
         H           -1.125818726708     3.128710921493     0.031698333092     1.007825032230
         H           -2.651740726708    -2.230747078507     0.295322333092     1.007825032230

  Basis Set: AUG-CC-PVTZ
    Blend: AUG-CC-PVTZ
  Basis Set: (AUG-CC-PVTZ AUX)
    Blend: AUG-CC-PVTZ-JKFIT
	 Reference Energy          =    -458.6562150670768574 [Eh]
	 Singles Energy            =      -0.0000000000000000 [Eh]
	 Same-Spin Energy          =      -0.4819575031001994 [Eh]
	 Opposite-Spin Energy      =      -1.5057620440514130 [Eh]
	 Correlation Energy        =      -1.9877195471516123 [Eh]
	 Total Energy              =    -460.6439346142284421 [Eh]

	 ================> DF-SCS-MP2 Energies <==================
	-----------------------------------------------------------
	 SCS Same-Spin Scale       =       0.3333333333333333 [-]
	 SCS Opposite-Spin Scale   =       1.2000000000000000 [-]
	 SCS Same-Spin Energy      =      -0.1606525010333998 [Eh]
	 SCS Opposite-Spin Energy  =      -1.8069144528616956 [Eh]
	 SCS Correlation Energy    =      -1.9675669538950953 [Eh]
	 SCS Total Energy          =    -460.6237820209719303 [Eh]
	-----------------------------------------------------------

  Dipole Moment: [D]
     X:     0.5167      Y:     1.1211      Z:    -0.0167     Total:     1.2346

*** Psi4 exiting successfully. Buy a developer a beer!
