                               Psi4 1.4a3.dev225

  ==> Input File <==

--------------------------------------------------------------------------
#psi4
#
memory 32 gb

molecule  {
0 1
  O       -1.8116000     2.3801270     0.1363720
  O       -1.7799440    -2.3994320     0.1189850
  C        0.9489570    -0.0306590    -0.3689570
  C        2.4429910    -0.0568610    -0.5708560
  C        0.2354480    -1.2220220    -0.2373930
  C        0.2798030     1.1938580    -0.2383990
  C        3.1984060    -0.0265600     0.7613490
  C       -1.0921630     1.2139390     0.0079710
  C       -1.1163525    -1.1430424     0.0062721
  C       -1.8132500     0.0254130     0.1385790
  H        2.7180680    -0.9584190    -1.1301260
  H        2.7446220     0.7994920    -1.1857830
  H        0.7258350    -2.1872220    -0.3369480
  H        0.8309290     2.1284970    -0.3452230
  H        2.9508560     0.8787730     1.3230630
  H        4.2811760    -0.0477390     0.6027570
  H        2.9230980    -0.8883860     1.3756490
  H       -2.8837580     0.0741080     0.3259950
  H       -1.1979550     3.1274200     0.0245130
  H       -2.7238770    -2.2320380     0.2881370
units angstrom
no_reorient  #important for SAPT in psi4, default
symmetry c1  #important for SAPT in psi4, default
}

set PROPERTIES_ORIGIN ["COM"]
properties('MP2/aug-cc-pvtz', properties = ['dipole'])
--------------------------------------------------------------------------

    Molecular point group: c1
  Charge       = 0
  Multiplicity = 1
  Basis Set: AUG-CC-PVTZ
    Blend: AUG-CC-PVTZ
  Basis Set: (AUG-CC-PVTZ AUX)
    Blend: AUG-CC-PVTZ-JKFIT

    Orbital Energies [Eh]
    ---------------------

    Doubly Occupied:

       1A    -20.597242     2A    -20.583463     3A    -11.312814
       4A    -11.304862     5A    -11.253872     6A    -11.233736
       7A    -11.225903     8A    -11.224926     9A    -11.221035
      10A    -11.217335    11A     -1.405360    12A     -1.376352
      13A     -1.156041    14A     -1.067610    15A     -1.004808
      16A     -0.991542    17A     -0.877839    18A     -0.837925
      19A     -0.803460    20A     -0.735115    21A     -0.689346
      22A     -0.671982    23A     -0.659683    24A     -0.612029
      25A     -0.602136    26A     -0.595065    27A     -0.583518
      28A     -0.566127    29A     -0.557924    30A     -0.549094
      31A     -0.525332    32A     -0.522243    33A     -0.489224
      34A     -0.484838    35A     -0.457011    36A     -0.330460
      37A     -0.315907

  @DF-RHF Final Energy:  -458.65604995337850

   => Energetics <=

    Nuclear Repulsion Energy =            507.4904855058783255
    One-Electron Energy =               -1631.0067587202365758
    Two-Electron Energy =                 664.8602232609797511
    Total Energy =                       -458.6560499533785560
  Basis Set: (AUG-CC-PVTZ AUX)
    Blend: AUG-CC-PVTZ-RI
    Molecular point group: c1

    Geometry (in Angstrom), charge = 0, multiplicity = 1:

       Center              X                  Y                   Z               Mass
    ------------   -----------------  -----------------  -----------------  -----------------
         O           -1.739242696618     2.381286386383     0.143494485836    15.994914619570
         O           -1.707586696618    -2.398272613617     0.126107485836    15.994914619570
         C            1.021314303382    -0.029499613617    -0.361834514164    12.000000000000
         C            2.515348303382    -0.055701613617    -0.563733514164    12.000000000000
         C            0.307805303382    -1.220862613617    -0.230270514164    12.000000000000
         C            0.352160303382     1.195017386383    -0.231276514164    12.000000000000
         C            3.270763303382    -0.025400613617     0.768471485836    12.000000000000
         C           -1.019805696618     1.215098386383     0.015093485836    12.000000000000
         C           -1.043995196618    -1.141883013617     0.013394585836    12.000000000000
         C           -1.740892696618     0.026572386383     0.145701485836    12.000000000000
         H            2.790425303382    -0.957259613617    -1.123003514164     1.007825032230
         H            2.816979303382     0.800651386383    -1.178660514164     1.007825032230
         H            0.798192303382    -2.186062613617    -0.329825514164     1.007825032230
         H            0.903286303382     2.129656386383    -0.338100514164     1.007825032230
         H            3.023213303382     0.879932386383     1.330185485836     1.007825032230
         H            4.353533303382    -0.046579613617     0.609879485836     1.007825032230
         H            2.995455303382    -0.887226613617     1.382771485836     1.007825032230
         H           -2.811400696618     0.075267386383     0.333117485836     1.007825032230
         H           -1.125597696618     3.128579386383     0.031635485836     1.007825032230
         H           -2.651519696618    -2.230878613617     0.295259485836     1.007825032230

  Basis Set: AUG-CC-PVTZ
    Blend: AUG-CC-PVTZ
  Basis Set: (AUG-CC-PVTZ AUX)
    Blend: AUG-CC-PVTZ-JKFIT
	 Reference Energy          =    -458.6560499533784991 [Eh]
	 Singles Energy            =      -0.0000000000000000 [Eh]
	 Same-Spin Energy          =      -0.4818937442103070 [Eh]
	 Opposite-Spin Energy      =      -1.5061637862036550 [Eh]
	 Correlation Energy        =      -1.9880575304139620 [Eh]
	 Total Energy              =    -460.6441074837924816 [Eh]

	 ================> DF-SCS-MP2 Energies <==================
	-----------------------------------------------------------
	 SCS Same-Spin Scale       =       0.3333333333333333 [-]
	 SCS Opposite-Spin Scale   =       1.2000000000000000 [-]
	 SCS Same-Spin Energy      =      -0.1606312480701023 [Eh]
	 SCS Opposite-Spin Energy  =      -1.8073965434443859 [Eh]
	 SCS Correlation Energy    =      -1.9680277915144881 [Eh]
	 SCS Total Energy          =    -460.6240777448929862 [Eh]
	-----------------------------------------------------------

  Dipole Moment: [D]
     X:     0.7182      Y:     1.5224      Z:    -0.0444     Total:     1.6839

*** Psi4 exiting successfully. Buy a developer a beer!
