                               Psi4 1.3.2 release

  ==> Input File <==

--------------------------------------------------------------------------
#psi4
#
memory 32 gb

molecule  {
0 1
  O        1.7627890     2.3683800    -0.1458810
  O        1.6754140    -2.4069960    -0.1279020
  C       -1.0215720    -0.0077180     0.3641480
  C       -2.5139530    -0.0194410     0.5634370
  C       -0.3230660    -1.2073880     0.2343750
  C       -0.3370590     1.2052280     0.2348720
  C       -3.2735700    -0.0197480    -0.7643280
  C        1.0346870     1.2106680    -0.0181020
  C        1.0480560    -1.1910380    -0.0190010
  C        1.7368580     0.0147850    -0.1457440
  H       -2.7927850    -0.9030380     1.1483340
  H       -2.8082890     0.8538600     1.1573130
  H       -0.8312370    -2.1635460     0.3309200
  H       -0.8789600     2.1456520     0.3351900
  H       -3.0230990     0.8672620    -1.3527740
  H       -4.3574070    -0.0294260    -0.6053230
  H       -3.0076490    -0.8981260    -1.3586750
  H        2.8074370     0.0467670    -0.3362510
  H        1.0349432     3.2773108    -0.0061406
  H        2.6215300    -2.2543830    -0.2976190
units angstrom
no_reorient  #important for SAPT in psi4, default
symmetry c1  #important for SAPT in psi4, default
}

set PROPERTIES_ORIGIN ["COM"]
properties('MP2/aug-cc-pvtz', properties = ['dipole'])
--------------------------------------------------------------------------

    Molecular point group: c1
  Charge       = 0
  Multiplicity = 1
  Basis Set: AUG-CC-PVTZ
    Blend: AUG-CC-PVTZ
  Basis Set: (AUG-CC-PVTZ AUX)
    Blend: AUG-CC-PVTZ-JKFIT

    Orbital Energies [Eh]
    ---------------------

    Doubly Occupied:

       1A    -20.608299     2A    -20.592736     3A    -11.309051
       4A    -11.308189     5A    -11.250442     6A    -11.231633
       7A    -11.223219     8A    -11.221352     9A    -11.219398
      10A    -11.214701    11A     -1.401964    12A     -1.373621
      13A     -1.147749    14A     -1.061775    15A     -0.997482
      16A     -0.986205    17A     -0.875723    18A     -0.825618
      19A     -0.802890    20A     -0.727375    21A     -0.685467
      22A     -0.664930    23A     -0.656514    24A     -0.607902
      25A     -0.597528    26A     -0.593532    27A     -0.583948
      28A     -0.573094    29A     -0.550484    30A     -0.541182
      31A     -0.521514    32A     -0.520263    33A     -0.487263
      34A     -0.480921    35A     -0.452064    36A     -0.325052
      37A     -0.309621

  @DF-RHF Final Energy:  -458.62428330194962

   => Energetics <=

    Nuclear Repulsion Energy =            506.4783584392760645
    One-Electron Energy =               -1629.1438807302806708
    Two-Electron Energy =                 664.0412389890550457
    Total Energy =                       -458.6242833019496175
  Basis Set: (AUG-CC-PVTZ AUX)
    Blend: AUG-CC-PVTZ-RI
    Molecular point group: c1

    Geometry (in Angstrom), charge = 0, multiplicity = 1:

       Center              X                  Y                   Z               Mass
    ------------   -----------------  -----------------  -----------------  -----------------
         O            1.763695064920     2.367248507753    -0.146054934726    15.994914619570
         O            1.676320064920    -2.408127492247    -0.128075934726    15.994914619570
         C           -1.020665935080    -0.008849492247     0.363974065274    12.000000000000
         C           -2.513046935080    -0.020572492247     0.563263065274    12.000000000000
         C           -0.322159935080    -1.208519492247     0.234201065274    12.000000000000
         C           -0.336152935080     1.204096507753     0.234698065274    12.000000000000
         C           -3.272663935080    -0.020879492247    -0.764501934726    12.000000000000
         C            1.035593064920     1.209536507753    -0.018275934726    12.000000000000
         C            1.048962064920    -1.192169492247    -0.019174934726    12.000000000000
         C            1.737764064920     0.013653507753    -0.145917934726    12.000000000000
         H           -2.791878935080    -0.904169492247     1.148160065274     1.007825032230
         H           -2.807382935080     0.852728507753     1.157139065274     1.007825032230
         H           -0.830330935080    -2.164677492247     0.330746065274     1.007825032230
         H           -0.878053935080     2.144520507753     0.335016065274     1.007825032230
         H           -3.022192935080     0.866130507753    -1.352947934726     1.007825032230
         H           -4.356500935080    -0.030557492247    -0.605496934726     1.007825032230
         H           -3.006742935080    -0.899257492247    -1.358848934726     1.007825032230
         H            2.808343064920     0.045635507753    -0.336424934726     1.007825032230
         H            1.035849264920     3.276179307753    -0.006314534726     1.007825032230
         H            2.622436064920    -2.255514492247    -0.297792934726     1.007825032230

  Basis Set: AUG-CC-PVTZ
    Blend: AUG-CC-PVTZ
  Basis Set: (AUG-CC-PVTZ AUX)
    Blend: AUG-CC-PVTZ-JKFIT
	 Reference Energy          =    -458.6242833019496175 [Eh]
	 Singles Energy            =      -0.0000000000000000 [Eh]
	 Same-Spin Energy          =      -0.4841479823223445 [Eh]
	 Opposite-Spin Energy      =      -1.5120454058530060 [Eh]
	 Correlation Energy        =      -1.9961933881753504 [Eh]
	 Total Energy              =    -460.6204766901249741 [Eh]

	 ================> DF-SCS-MP2 Energies <==================
	-----------------------------------------------------------
	 SCS Same-Spin Scale       =       0.3333333333333333 [-]
	 SCS Opposite-Spin Scale   =       1.2000000000000000 [-]
	 SCS Same-Spin Energy      =      -0.1613826607741148 [Eh]
	 SCS Opposite-Spin Energy  =      -1.8144544870236070 [Eh]
	 SCS Correlation Energy    =      -1.9758371477977219 [Eh]
	 SCS Total Energy          =    -460.6001204497473509 [Eh]
	-----------------------------------------------------------

  Dipole Moment: [D]
     X:    -0.5525      Y:     1.4054      Z:     0.0225     Total:     1.5103

*** Psi4 exiting successfully. Buy a developer a beer!
