                               Psi4 1.3.2 release

  ==> Input File <==

--------------------------------------------------------------------------
#psi4
#
memory 32 gb

molecule  {
0 1
  O        1.7627890     2.3683800    -0.1458810
  O        1.6754140    -2.4069960    -0.1279020
  C       -1.0183205    -0.0077974     0.3902246
  C       -2.5139530    -0.0194410     0.5634370
  C       -0.3230660    -1.2073880     0.2343750
  C       -0.3370590     1.2052280     0.2348720
  C       -3.2966262    -0.0199702    -0.7508691
  C        1.0346870     1.2106680    -0.0181020
  C        1.0480560    -1.1910380    -0.0190010
  C        1.7368580     0.0147850    -0.1457440
  H       -2.7927850    -0.9030380     1.1483340
  H       -2.8082890     0.8538600     1.1573130
  H       -0.8312370    -2.1635460     0.3309200
  H       -0.8789600     2.1456520     0.3351900
  H       -3.0230990     0.8672620    -1.3527740
  H       -4.3574070    -0.0294260    -0.6053230
  H       -3.0076490    -0.8981260    -1.3586750
  H        2.8074370     0.0467670    -0.3362510
  H        1.1590650     3.1223080    -0.0299710
  H        2.6215300    -2.2543830    -0.2976190
units angstrom
no_reorient  #important for SAPT in psi4, default
symmetry c1  #important for SAPT in psi4, default
}

set PROPERTIES_ORIGIN ["COM"]
properties('MP2/aug-cc-pvtz', properties = ['dipole'])
--------------------------------------------------------------------------

    Molecular point group: c1
  Charge       = 0
  Multiplicity = 1
  Basis Set: AUG-CC-PVTZ
    Blend: AUG-CC-PVTZ
  Basis Set: (AUG-CC-PVTZ AUX)
    Blend: AUG-CC-PVTZ-JKFIT

    Orbital Energies [Eh]
    ---------------------

    Doubly Occupied:

       1A    -20.595771     2A    -20.593415     3A    -11.310595
       4A    -11.308900     5A    -11.251869     6A    -11.231959
       7A    -11.224415     8A    -11.223165     9A    -11.220098
      10A    -11.216417    11A     -1.405481    12A     -1.401969
      13A     -1.150233    14A     -1.063596    15A     -1.001421
      16A     -0.988372    17A     -0.877450    18A     -0.836737
      19A     -0.807925    20A     -0.739610    21A     -0.687639
      22A     -0.675334    23A     -0.665919    24A     -0.612615
      25A     -0.601921    26A     -0.595114    27A     -0.587212
      28A     -0.576596    29A     -0.554172    30A     -0.550534
      31A     -0.522877    32A     -0.520050    33A     -0.485881
      34A     -0.482992    35A     -0.453875    36A     -0.326279
      37A     -0.311360

  @DF-RHF Final Energy:  -458.65884237421324

   => Energetics <=

    Nuclear Repulsion Energy =            507.2269838033587916
    One-Electron Energy =               -1630.4521200593228514
    Two-Electron Energy =                 664.5662938817508802
    Total Energy =                       -458.6588423742132363
  Basis Set: (AUG-CC-PVTZ AUX)
    Blend: AUG-CC-PVTZ-RI
    Molecular point group: c1

    Geometry (in Angstrom), charge = 0, multiplicity = 1:

       Center              X                  Y                   Z               Mass
    ------------   -----------------  -----------------  -----------------  -----------------
         O            1.764510339119     2.368406160575    -0.149317159621    15.994914619570
         O            1.677135339119    -2.406969839425    -0.131338159621    15.994914619570
         C           -1.016599160881    -0.007771239425     0.386788440379    12.000000000000
         C           -2.512231660881    -0.019414839425     0.560000840379    12.000000000000
         C           -0.321344660881    -1.207361839425     0.230938840379    12.000000000000
         C           -0.335337660881     1.205254160575     0.231435840379    12.000000000000
         C           -3.294904860881    -0.019944039425    -0.754305259621    12.000000000000
         C            1.036408339119     1.210694160575    -0.021538159621    12.000000000000
         C            1.049777339119    -1.191011839425    -0.022437159621    12.000000000000
         C            1.738579339119     0.014811160575    -0.149180159621    12.000000000000
         H           -2.791063660881    -0.903011839425     1.144897840379     1.007825032230
         H           -2.806567660881     0.853886160575     1.153876840379     1.007825032230
         H           -0.829515660881    -2.163519839425     0.327483840379     1.007825032230
         H           -0.877238660881     2.145678160575     0.331753840379     1.007825032230
         H           -3.021377660881     0.867288160575    -1.356210159621     1.007825032230
         H           -4.355685660881    -0.029399839425    -0.608759159621     1.007825032230
         H           -3.005927660881    -0.898099839425    -1.362111159621     1.007825032230
         H            2.809158339119     0.046793160575    -0.339687159621     1.007825032230
         H            1.160786339119     3.122334160575    -0.033407159621     1.007825032230
         H            2.623251339119    -2.254356839425    -0.301055159621     1.007825032230

  Basis Set: AUG-CC-PVTZ
    Blend: AUG-CC-PVTZ
  Basis Set: (AUG-CC-PVTZ AUX)
    Blend: AUG-CC-PVTZ-JKFIT
	 Reference Energy          =    -458.6588423742132363 [Eh]
	 Singles Energy            =      -0.0000000000000000 [Eh]
	 Same-Spin Energy          =      -0.4817784356607687 [Eh]
	 Opposite-Spin Energy      =      -1.5053139931761637 [Eh]
	 Correlation Energy        =      -1.9870924288369323 [Eh]
	 Total Energy              =    -460.6459348030501815 [Eh]

	 ================> DF-SCS-MP2 Energies <==================
	-----------------------------------------------------------
	 SCS Same-Spin Scale       =       0.3333333333333333 [-]
	 SCS Opposite-Spin Scale   =       1.2000000000000000 [-]
	 SCS Same-Spin Energy      =      -0.1605928118869229 [Eh]
	 SCS Opposite-Spin Energy  =      -1.8063767918113962 [Eh]
	 SCS Correlation Energy    =      -1.9669696036983191 [Eh]
	 SCS Total Energy          =    -460.6258119779115532 [Eh]
	-----------------------------------------------------------

  Dipole Moment: [D]
     X:    -0.4866      Y:     1.2204      Z:    -0.0043     Total:     1.3139

*** Psi4 exiting successfully. Buy a developer a beer!
