                               Psi4 1.3.2 release

  ==> Input File <==

--------------------------------------------------------------------------
#psi4
#
memory 32 gb

molecule  {
0 1
  O        1.7627890     2.3683800    -0.1458810
  O        1.6754140    -2.4069960    -0.1279020
  C       -1.0622899    -0.0332434     0.3718242
  C       -2.5139530    -0.0194410     0.5634370
  C       -0.3230660    -1.2073880     0.2343750
  C       -0.3370590     1.2052280     0.2348720
  C       -3.2735700    -0.0197480    -0.7643280
  C        1.0346870     1.2106680    -0.0181020
  C        1.0480560    -1.1910380    -0.0190010
  C        1.7368580     0.0147850    -0.1457440
  H       -2.7927850    -0.9030380     1.1483340
  H       -2.8082890     0.8538600     1.1573130
  H       -0.8637274    -2.1449114     0.3369996
  H       -0.8789600     2.1456520     0.3351900
  H       -3.0230990     0.8672620    -1.3527740
  H       -4.3574070    -0.0294260    -0.6053230
  H       -3.0076490    -0.8981260    -1.3586750
  H        2.8074370     0.0467670    -0.3362510
  H        1.1590650     3.1223080    -0.0299710
  H        2.6215300    -2.2543830    -0.2976190
units angstrom
no_reorient  #important for SAPT in psi4, default
symmetry c1  #important for SAPT in psi4, default
}

set PROPERTIES_ORIGIN ["COM"]
properties('MP2/aug-cc-pvtz', properties = ['dipole'])
--------------------------------------------------------------------------

    Molecular point group: c1
  Charge       = 0
  Multiplicity = 1
  Basis Set: AUG-CC-PVTZ
    Blend: AUG-CC-PVTZ
  Basis Set: (AUG-CC-PVTZ AUX)
    Blend: AUG-CC-PVTZ-JKFIT

    Orbital Energies [Eh]
    ---------------------

    Doubly Occupied:

       1A    -20.594755     2A    -20.593653     3A    -11.310271
       4A    -11.309517     5A    -11.254229     6A    -11.231255
       7A    -11.224967     8A    -11.224314     9A    -11.221272
      10A    -11.217268    11A     -1.404705    12A     -1.401834
      13A     -1.147944    14A     -1.069791    15A     -0.999516
      16A     -0.985251    17A     -0.881806    18A     -0.836372
      19A     -0.807632    20A     -0.737250    21A     -0.687224
      22A     -0.676147    23A     -0.665288    24A     -0.615087
      25A     -0.602688    26A     -0.597200    27A     -0.587463
      28A     -0.576301    29A     -0.552169    30A     -0.549082
      31A     -0.524908    32A     -0.517200    33A     -0.494705
      34A     -0.482691    35A     -0.450556    36A     -0.323095
      37A     -0.310459

  @DF-RHF Final Energy:  -458.65575099845773

   => Energetics <=

    Nuclear Repulsion Energy =            507.1728909603671696
    One-Electron Energy =               -1630.3255554671761729
    Two-Electron Energy =                 664.4969135083513265
    Total Energy =                       -458.6557509984577337
  Basis Set: (AUG-CC-PVTZ AUX)
    Blend: AUG-CC-PVTZ-RI
    Molecular point group: c1

    Geometry (in Angstrom), charge = 0, multiplicity = 1:

       Center              X                  Y                   Z               Mass
    ------------   -----------------  -----------------  -----------------  -----------------
         O            1.766565144540     2.370462430095    -0.146592529655    15.994914619570
         O            1.679190144540    -2.404913569905    -0.128613529655    15.994914619570
         C           -1.058513755460    -0.031160969905     0.371112670345    12.000000000000
         C           -2.510176855460    -0.017358569905     0.562725470345    12.000000000000
         C           -0.319289855460    -1.205305569905     0.233663470345    12.000000000000
         C           -0.333282855460     1.207310430095     0.234160470345    12.000000000000
         C           -3.269793855460    -0.017665569905    -0.765039529655    12.000000000000
         C            1.038463144540     1.212750430095    -0.018813529655    12.000000000000
         C            1.051832144540    -1.188955569905    -0.019712529655    12.000000000000
         C            1.740634144540     0.016867430095    -0.146455529655    12.000000000000
         H           -2.789008855460    -0.900955569905     1.147622470345     1.007825032230
         H           -2.804512855460     0.855942430095     1.156601470345     1.007825032230
         H           -0.859951255460    -2.142828969905     0.336288070345     1.007825032230
         H           -0.875183855460     2.147734430095     0.334478470345     1.007825032230
         H           -3.019322855460     0.869344430095    -1.353485529655     1.007825032230
         H           -4.353630855460    -0.027343569905    -0.606034529655     1.007825032230
         H           -3.003872855460    -0.896043569905    -1.359386529655     1.007825032230
         H            2.811213144540     0.048849430095    -0.336962529655     1.007825032230
         H            1.162841144540     3.124390430095    -0.030682529655     1.007825032230
         H            2.625306144540    -2.252300569905    -0.298330529655     1.007825032230

  Basis Set: AUG-CC-PVTZ
    Blend: AUG-CC-PVTZ
  Basis Set: (AUG-CC-PVTZ AUX)
    Blend: AUG-CC-PVTZ-JKFIT
	 Reference Energy          =    -458.6557509984577337 [Eh]
	 Singles Energy            =      -0.0000000000000000 [Eh]
	 Same-Spin Energy          =      -0.4822347211236619 [Eh]
	 Opposite-Spin Energy      =      -1.5060954813329135 [Eh]
	 Correlation Energy        =      -1.9883302024565754 [Eh]
	 Total Energy              =    -460.6440812009142860 [Eh]

	 ================> DF-SCS-MP2 Energies <==================
	-----------------------------------------------------------
	 SCS Same-Spin Scale       =       0.3333333333333333 [-]
	 SCS Opposite-Spin Scale   =       1.2000000000000000 [-]
	 SCS Same-Spin Energy      =      -0.1607449070412206 [Eh]
	 SCS Opposite-Spin Energy  =      -1.8073145775994961 [Eh]
	 SCS Correlation Energy    =      -1.9680594846407167 [Eh]
	 SCS Total Energy          =    -460.6238104830984526 [Eh]
	-----------------------------------------------------------

  Dipole Moment: [D]
     X:    -0.5678      Y:     1.1968      Z:     0.0093     Total:     1.3247

*** Psi4 exiting successfully. Buy a developer a beer!
