                               Psi4 1.3.2 release

  ==> Input File <==

--------------------------------------------------------------------------
#psi4
#
memory 32 gb

molecule  {
0 1
  O        1.7627890     2.3683800    -0.1458810
  O        1.6754140    -2.4069960    -0.1279020
  C       -1.0215720    -0.0077180     0.3641480
  C       -2.5140516    -0.0063080     0.5630383
  C       -0.3230660    -1.2073880     0.2343750
  C       -0.3476071     1.2112490     0.2360892
  C       -3.2735700    -0.0197480    -0.7643280
  C        1.0346870     1.2106680    -0.0181020
  C        1.0480560    -1.1910380    -0.0190010
  C        1.7368580     0.0147850    -0.1457440
  H       -2.7927850    -0.9030380     1.1483340
  H       -2.8082890     0.8538600     1.1573130
  H       -0.8312370    -2.1635460     0.3309200
  H       -0.8789600     2.1456520     0.3351900
  H       -3.0230990     0.8672620    -1.3527740
  H       -4.3574070    -0.0294260    -0.6053230
  H       -3.0076490    -0.8981260    -1.3586750
  H        2.8074370     0.0467670    -0.3362510
  H        1.1590650     3.1223080    -0.0299710
  H        2.6215300    -2.2543830    -0.2976190
units angstrom
no_reorient  #important for SAPT in psi4, default
symmetry c1  #important for SAPT in psi4, default
}

set PROPERTIES_ORIGIN ["COM"]
properties('MP2/aug-cc-pvtz', properties = ['dipole'])
--------------------------------------------------------------------------

    Molecular point group: c1
  Charge       = 0
  Multiplicity = 1
  Basis Set: AUG-CC-PVTZ
    Blend: AUG-CC-PVTZ
  Basis Set: (AUG-CC-PVTZ AUX)
    Blend: AUG-CC-PVTZ-JKFIT

    Orbital Energies [Eh]
    ---------------------

    Doubly Occupied:

       1A    -20.595948     2A    -20.593606     3A    -11.311891
       4A    -11.309218     5A    -11.251360     6A    -11.231691
       7A    -11.224089     8A    -11.222673     9A    -11.219513
      10A    -11.215865    11A     -1.405549    12A     -1.402103
      13A     -1.149594    14A     -1.063865    15A     -1.000518
      16A     -0.987994    17A     -0.876061    18A     -0.837518
      19A     -0.807768    20A     -0.738738    21A     -0.688230
      22A     -0.675379    23A     -0.667423    24A     -0.610755
      25A     -0.602462    26A     -0.596125    27A     -0.587099
      28A     -0.576524    29A     -0.553479    30A     -0.549164
      31A     -0.525162    32A     -0.521043    33A     -0.488618
      34A     -0.480273    35A     -0.453386    36A     -0.326362
      37A     -0.310384

  @DF-RHF Final Energy:  -458.65976505906349

   => Energetics <=

    Nuclear Repulsion Energy =            507.3393169038176325
    One-Electron Energy =               -1630.6833034355240670
    Two-Electron Energy =                 664.6842214726428892
    Total Energy =                       -458.6597650590634885
  Basis Set: (AUG-CC-PVTZ AUX)
    Blend: AUG-CC-PVTZ-RI
    Molecular point group: c1

    Geometry (in Angstrom), charge = 0, multiplicity = 1:

       Center              X                  Y                   Z               Mass
    ------------   -----------------  -----------------  -----------------  -----------------
         O            1.763714383961     2.366715203471    -0.145952124043    15.994914619570
         O            1.676339383961    -2.408660796529    -0.127973124043    15.994914619570
         C           -1.020646616039    -0.009382796529     0.364076875957    12.000000000000
         C           -2.513126216039    -0.007972796529     0.562967175957    12.000000000000
         C           -0.322140616039    -1.209052796529     0.234303875957    12.000000000000
         C           -0.346681716039     1.209584203471     0.236018075957    12.000000000000
         C           -3.272644616039    -0.021412796529    -0.764399124043    12.000000000000
         C            1.035612383961     1.209003203471    -0.018173124043    12.000000000000
         C            1.048981383961    -1.192702796529    -0.019072124043    12.000000000000
         C            1.737783383961     0.013120203471    -0.145815124043    12.000000000000
         H           -2.791859616039    -0.904702796529     1.148262875957     1.007825032230
         H           -2.807363616039     0.852195203471     1.157241875957     1.007825032230
         H           -0.830311616039    -2.165210796529     0.330848875957     1.007825032230
         H           -0.878034616039     2.143987203471     0.335118875957     1.007825032230
         H           -3.022173616039     0.865597203471    -1.352845124043     1.007825032230
         H           -4.356481616039    -0.031090796529    -0.605394124043     1.007825032230
         H           -3.006723616039    -0.899790796529    -1.358746124043     1.007825032230
         H            2.808362383961     0.045102203471    -0.336322124043     1.007825032230
         H            1.159990383961     3.120643203471    -0.030042124043     1.007825032230
         H            2.622455383961    -2.256047796529    -0.297690124043     1.007825032230

  Basis Set: AUG-CC-PVTZ
    Blend: AUG-CC-PVTZ
  Basis Set: (AUG-CC-PVTZ AUX)
    Blend: AUG-CC-PVTZ-JKFIT
	 Reference Energy          =    -458.6597650590634885 [Eh]
	 Singles Energy            =      -0.0000000000000000 [Eh]
	 Same-Spin Energy          =      -0.4816996530399776 [Eh]
	 Opposite-Spin Energy      =      -1.5052316487184720 [Eh]
	 Correlation Energy        =      -1.9869313017584496 [Eh]
	 Total Energy              =    -460.6466963608219203 [Eh]

	 ================> DF-SCS-MP2 Energies <==================
	-----------------------------------------------------------
	 SCS Same-Spin Scale       =       0.3333333333333333 [-]
	 SCS Opposite-Spin Scale   =       1.2000000000000000 [-]
	 SCS Same-Spin Energy      =      -0.1605665510133258 [Eh]
	 SCS Opposite-Spin Energy  =      -1.8062779784621663 [Eh]
	 SCS Correlation Energy    =      -1.9668445294754922 [Eh]
	 SCS Total Energy          =    -460.6266095885389973 [Eh]
	-----------------------------------------------------------

  Dipole Moment: [D]
     X:    -0.4804      Y:     1.2395      Z:     0.0080     Total:     1.3294

*** Psi4 exiting successfully. Buy a developer a beer!
