                               Psi4 1.3.2 release

  ==> Input File <==

--------------------------------------------------------------------------
#psi4
#
memory 32 gb

molecule  {
0 1
  O        1.7627890     2.3683800    -0.1458810
  O        1.6858191    -2.4013936    -0.1298563
  C       -1.0215720    -0.0077180     0.3641480
  C       -2.5139530    -0.0194410     0.5634370
  C       -0.3231666    -1.1952198     0.2343236
  C       -0.3370590     1.2052280     0.2348720
  C       -3.2735700    -0.0197480    -0.7643280
  C        1.0346870     1.2106680    -0.0181020
  C        1.0480560    -1.1910380    -0.0190010
  C        1.7368580     0.0147850    -0.1457440
  H       -2.7927850    -0.9030380     1.1483340
  H       -2.8082890     0.8538600     1.1573130
  H       -0.8312370    -2.1635460     0.3309200
  H       -0.8789600     2.1456520     0.3351900
  H       -3.0230990     0.8672620    -1.3527740
  H       -4.3574070    -0.0294260    -0.6053230
  H       -3.0076490    -0.8981260    -1.3586750
  H        2.8074370     0.0467670    -0.3362510
  H        1.1590650     3.1223080    -0.0299710
  H        2.6215300    -2.2543830    -0.2976190
units angstrom
no_reorient  #important for SAPT in psi4, default
symmetry c1  #important for SAPT in psi4, default
}

set PROPERTIES_ORIGIN ["COM"]
properties('MP2/aug-cc-pvtz', properties = ['dipole'])
--------------------------------------------------------------------------

    Molecular point group: c1
  Charge       = 0
  Multiplicity = 1
  Basis Set: AUG-CC-PVTZ
    Blend: AUG-CC-PVTZ
  Basis Set: (AUG-CC-PVTZ AUX)
    Blend: AUG-CC-PVTZ-JKFIT

    Orbital Energies [Eh]
    ---------------------

    Doubly Occupied:

       1A    -20.595378     2A    -20.592511     3A    -11.310039
       4A    -11.309163     5A    -11.250151     6A    -11.232207
       7A    -11.223777     8A    -11.222543     9A    -11.219753
      10A    -11.216398    11A     -1.405909    12A     -1.403208
      13A     -1.151851    14A     -1.064290    15A     -1.001665
      16A     -0.988503    17A     -0.876794    18A     -0.837191
      19A     -0.809673    20A     -0.740860    21A     -0.687245
      22A     -0.676096    23A     -0.666846    24A     -0.612184
      25A     -0.602527    26A     -0.595685    27A     -0.586545
      28A     -0.576600    29A     -0.553389    30A     -0.549120
      31A     -0.523582    32A     -0.519365    33A     -0.488303
      34A     -0.482409    35A     -0.454799    36A     -0.326429
      37A     -0.311576

  @DF-RHF Final Energy:  -458.66068700311598

   => Energetics <=

    Nuclear Repulsion Energy =            507.7257166361504233
    One-Electron Energy =               -1631.4436859433728841
    Two-Electron Energy =                 665.0572823041065931
    Total Energy =                       -458.6606870031159815
  Basis Set: (AUG-CC-PVTZ AUX)
    Blend: AUG-CC-PVTZ-RI
    Molecular point group: c1

    Geometry (in Angstrom), charge = 0, multiplicity = 1:

       Center              X                  Y                   Z               Mass
    ------------   -----------------  -----------------  -----------------  -----------------
         O            1.761592373667     2.366673337822    -0.145650116064    15.994914619570
         O            1.684622473667    -2.403100262178    -0.129625416064    15.994914619570
         C           -1.022768626333    -0.009424662178     0.364378883936    12.000000000000
         C           -2.515149626333    -0.021147662178     0.563667883936    12.000000000000
         C           -0.324363226333    -1.196926462178     0.234554483936    12.000000000000
         C           -0.338255626333     1.203521337822     0.235102883936    12.000000000000
         C           -3.274766626333    -0.021454662178    -0.764097116064    12.000000000000
         C            1.033490373667     1.208961337822    -0.017871116064    12.000000000000
         C            1.046859373667    -1.192744662178    -0.018770116064    12.000000000000
         C            1.735661373667     0.013078337822    -0.145513116064    12.000000000000
         H           -2.793981626333    -0.904744662178     1.148564883936     1.007825032230
         H           -2.809485626333     0.852153337822     1.157543883936     1.007825032230
         H           -0.832433626333    -2.165252662178     0.331150883936     1.007825032230
         H           -0.880156626333     2.143945337822     0.335420883936     1.007825032230
         H           -3.024295626333     0.865555337822    -1.352543116064     1.007825032230
         H           -4.358603626333    -0.031132662178    -0.605092116064     1.007825032230
         H           -3.008845626333    -0.899832662178    -1.358444116064     1.007825032230
         H            2.806240373667     0.045060337822    -0.336020116064     1.007825032230
         H            1.157868373667     3.120601337822    -0.029740116064     1.007825032230
         H            2.620333373667    -2.256089662178    -0.297388116064     1.007825032230

  Basis Set: AUG-CC-PVTZ
    Blend: AUG-CC-PVTZ
  Basis Set: (AUG-CC-PVTZ AUX)
    Blend: AUG-CC-PVTZ-JKFIT
	 Reference Energy          =    -458.6606870031159815 [Eh]
	 Singles Energy            =      -0.0000000000000000 [Eh]
	 Same-Spin Energy          =      -0.4815951202857395 [Eh]
	 Opposite-Spin Energy      =      -1.5047940588827069 [Eh]
	 Correlation Energy        =      -1.9863891791684465 [Eh]
	 Total Energy              =    -460.6470761822844224 [Eh]

	 ================> DF-SCS-MP2 Energies <==================
	-----------------------------------------------------------
	 SCS Same-Spin Scale       =       0.3333333333333333 [-]
	 SCS Opposite-Spin Scale   =       1.2000000000000000 [-]
	 SCS Same-Spin Energy      =      -0.1605317067619132 [Eh]
	 SCS Opposite-Spin Energy  =      -1.8057528706592483 [Eh]
	 SCS Correlation Energy    =      -1.9662845774211615 [Eh]
	 SCS Total Energy          =    -460.6269715805371447 [Eh]
	-----------------------------------------------------------

  Dipole Moment: [D]
     X:    -0.5094      Y:     1.2135      Z:     0.0110     Total:     1.3161

*** Psi4 exiting successfully. Buy a developer a beer!
