                               Psi4 1.3.2 release

  ==> Input File <==

--------------------------------------------------------------------------
#psi4
#
memory 32 gb

molecule  {
0 1
  O        1.7627890     2.3683800    -0.1458810
  O        1.6754140    -2.4069960    -0.1279020
  C       -1.0215720    -0.0077180     0.3641480
  C       -2.5139530    -0.0194410     0.5634370
  C       -0.3230660    -1.2073880     0.2343750
  C       -0.3370590     1.2052280     0.2348720
  C       -3.2735700    -0.0197480    -0.7643280
  C        1.0346870     1.2106680    -0.0181020
  C        1.0377184    -1.1848805    -0.0171842
  C        1.7368580     0.0147850    -0.1457440
  H       -2.7927850    -0.9030380     1.1483340
  H       -2.8082890     0.8538600     1.1573130
  H       -0.8312370    -2.1635460     0.3309200
  H       -0.8789600     2.1456520     0.3351900
  H       -3.0230990     0.8672620    -1.3527740
  H       -4.3574070    -0.0294260    -0.6053230
  H       -3.0076490    -0.8981260    -1.3586750
  H        2.8071157     0.0562549    -0.3362273
  H        1.1590650     3.1223080    -0.0299710
  H        2.6215300    -2.2543830    -0.2976190
units angstrom
no_reorient  #important for SAPT in psi4, default
symmetry c1  #important for SAPT in psi4, default
}

set PROPERTIES_ORIGIN ["COM"]
properties('MP2/aug-cc-pvtz', properties = ['dipole'])
--------------------------------------------------------------------------

    Molecular point group: c1
  Charge       = 0
  Multiplicity = 1
  Basis Set: AUG-CC-PVTZ
    Blend: AUG-CC-PVTZ
  Basis Set: (AUG-CC-PVTZ AUX)
    Blend: AUG-CC-PVTZ-JKFIT

    Orbital Energies [Eh]
    ---------------------

    Doubly Occupied:

       1A    -20.595918     2A    -20.590889     3A    -11.310485
       4A    -11.307917     5A    -11.251968     6A    -11.232480
       7A    -11.224267     8A    -11.223354     9A    -11.220081
      10A    -11.215635    11A     -1.405238    12A     -1.396455
      13A     -1.151830    14A     -1.064460    15A     -1.003158
      16A     -0.988347    17A     -0.877201    18A     -0.836267
      19A     -0.807375    20A     -0.738995    21A     -0.687209
      22A     -0.675175    23A     -0.665812    24A     -0.611993
      25A     -0.602032    26A     -0.594916    27A     -0.586564
      28A     -0.574437    29A     -0.553832    30A     -0.549240
      31A     -0.523276    32A     -0.521661    33A     -0.488178
      34A     -0.483637    35A     -0.454699    36A     -0.325962
      37A     -0.313108

  @DF-RHF Final Energy:  -458.65989586142530

   => Energetics <=

    Nuclear Repulsion Energy =            507.5932242383118478
    One-Electron Energy =               -1631.1981346158727320
    Two-Electron Energy =                 664.9450145161355294
    Total Energy =                       -458.6598958614252979
  Basis Set: (AUG-CC-PVTZ AUX)
    Blend: AUG-CC-PVTZ-RI
    Molecular point group: c1

    Geometry (in Angstrom), charge = 0, multiplicity = 1:

       Center              X                  Y                   Z               Mass
    ------------   -----------------  -----------------  -----------------  -----------------
         O            1.763689864277     2.367775519927    -0.146039062932    15.994914619570
         O            1.676314864277    -2.407600480073    -0.128060062932    15.994914619570
         C           -1.020671135723    -0.008322480073     0.363989937068    12.000000000000
         C           -2.513052135723    -0.020045480073     0.563278937068    12.000000000000
         C           -0.322165135723    -1.207992480073     0.234216937068    12.000000000000
         C           -0.336158135723     1.204623519927     0.234713937068    12.000000000000
         C           -3.272669135723    -0.020352480073    -0.764486062932    12.000000000000
         C            1.035587864277     1.210063519927    -0.018260062932    12.000000000000
         C            1.038619264277    -1.185484980073    -0.017342262932    12.000000000000
         C            1.737758864277     0.014180519927    -0.145902062932    12.000000000000
         H           -2.791884135723    -0.903642480073     1.148175937068     1.007825032230
         H           -2.807388135723     0.853255519927     1.157154937068     1.007825032230
         H           -0.830336135723    -2.164150480073     0.330761937068     1.007825032230
         H           -0.878059135723     2.145047519927     0.335031937068     1.007825032230
         H           -3.022198135723     0.866657519927    -1.352932062932     1.007825032230
         H           -4.356506135723    -0.030030480073    -0.605481062932     1.007825032230
         H           -3.006748135723    -0.898730480073    -1.358833062932     1.007825032230
         H            2.808016564277     0.055650419927    -0.336385362932     1.007825032230
         H            1.159965864277     3.121703519927    -0.030129062932     1.007825032230
         H            2.622430864277    -2.254987480073    -0.297777062932     1.007825032230

  Basis Set: AUG-CC-PVTZ
    Blend: AUG-CC-PVTZ
  Basis Set: (AUG-CC-PVTZ AUX)
    Blend: AUG-CC-PVTZ-JKFIT
	 Reference Energy          =    -458.6598958614252979 [Eh]
	 Singles Energy            =      -0.0000000000000000 [Eh]
	 Same-Spin Energy          =      -0.4817515737832146 [Eh]
	 Opposite-Spin Energy      =      -1.5052975340972696 [Eh]
	 Correlation Energy        =      -1.9870491078804842 [Eh]
	 Total Energy              =    -460.6469449693057641 [Eh]

	 ================> DF-SCS-MP2 Energies <==================
	-----------------------------------------------------------
	 SCS Same-Spin Scale       =       0.3333333333333333 [-]
	 SCS Opposite-Spin Scale   =       1.2000000000000000 [-]
	 SCS Same-Spin Energy      =      -0.1605838579277382 [Eh]
	 SCS Opposite-Spin Energy  =      -1.8063570409167236 [Eh]
	 SCS Correlation Energy    =      -1.9669408988444617 [Eh]
	 SCS Total Energy          =    -460.6268367602697822 [Eh]
	-----------------------------------------------------------

  Dipole Moment: [D]
     X:    -0.5466      Y:     1.2888      Z:     0.0166     Total:     1.4000

*** Psi4 exiting successfully. Buy a developer a beer!
