                               Psi4 1.3.2 release

  ==> Input File <==

--------------------------------------------------------------------------
#psi4
#
memory 32 gb

molecule  {
0 1
  O        1.7627890     2.3683800    -0.1458810
  O        1.6119283    -2.4386534    -0.1164448
  C       -1.0215720    -0.0077180     0.3641480
  C       -2.5139530    -0.0194410     0.5634370
  C       -0.3230660    -1.2073880     0.2343750
  C       -0.3370590     1.2052280     0.2348720
  C       -3.2735700    -0.0197480    -0.7643280
  C        1.0346870     1.2106680    -0.0181020
  C        1.0480560    -1.1910380    -0.0190010
  C        1.6737759     0.0497862    -0.1345473
  H       -2.7927850    -0.9030380     1.1483340
  H       -2.8082890     0.8538600     1.1573130
  H       -0.8312370    -2.1635460     0.3309200
  H       -0.8789600     2.1456520     0.3351900
  H       -3.0230990     0.8672620    -1.3527740
  H       -4.3574070    -0.0294260    -0.6053230
  H       -3.0076490    -0.8981260    -1.3586750
  H        2.8074370     0.0467670    -0.3362510
  H        1.1590650     3.1223080    -0.0299710
  H        2.6215300    -2.2543830    -0.2976190
units angstrom
no_reorient  #important for SAPT in psi4, default
symmetry c1  #important for SAPT in psi4, default
}

set PROPERTIES_ORIGIN ["COM"]
properties('MP2/aug-cc-pvtz', properties = ['dipole'])
--------------------------------------------------------------------------

    Molecular point group: c1
  Charge       = 0
  Multiplicity = 1
  Basis Set: AUG-CC-PVTZ
    Blend: AUG-CC-PVTZ
  Basis Set: (AUG-CC-PVTZ AUX)
    Blend: AUG-CC-PVTZ-JKFIT

    Orbital Energies [Eh]
    ---------------------

    Doubly Occupied:

       1A    -20.605327     2A    -20.594635     3A    -11.308231
       4A    -11.302308     5A    -11.248503     6A    -11.230856
       7A    -11.225882     8A    -11.222158     9A    -11.218809
      10A    -11.214101    11A     -1.404574    12A     -1.395041
      13A     -1.155036    14A     -1.067565    15A     -1.002288
      16A     -0.987278    17A     -0.874101    18A     -0.838855
      19A     -0.801737    20A     -0.734982    21A     -0.693091
      22A     -0.668097    23A     -0.657670    24A     -0.611135
      25A     -0.603832    26A     -0.594594    27A     -0.586967
      28A     -0.577780    29A     -0.553455    30A     -0.541627
      31A     -0.528045    32A     -0.517031    33A     -0.486428
      34A     -0.476987    35A     -0.457243    36A     -0.330612
      37A     -0.310416

  @DF-RHF Final Energy:  -458.64196875005746

   => Energetics <=

    Nuclear Repulsion Energy =            508.5215030817635693
    One-Electron Energy =               -1633.0723828571110516
    Two-Electron Energy =                 665.9089110252900809
    Total Energy =                       -458.6419687500574582
  Basis Set: (AUG-CC-PVTZ AUX)
    Blend: AUG-CC-PVTZ-RI
    Molecular point group: c1

    Geometry (in Angstrom), charge = 0, multiplicity = 1:

       Center              X                  Y                   Z               Mass
    ------------   -----------------  -----------------  -----------------  -----------------
         O            1.775626428775     2.369005312894    -0.148181425245    15.994914619570
         O            1.624765728775    -2.438028087106    -0.118745225245    15.994914619570
         C           -1.008734571225    -0.007092687106     0.361847574755    12.000000000000
         C           -2.501115571225    -0.018815687106     0.561136574755    12.000000000000
         C           -0.310228571225    -1.206762687106     0.232074574755    12.000000000000
         C           -0.324221571225     1.205853312894     0.232571574755    12.000000000000
         C           -3.260732571225    -0.019122687106    -0.766628425245    12.000000000000
         C            1.047524428775     1.211293312894    -0.020402425245    12.000000000000
         C            1.060893428775    -1.190412687106    -0.021301425245    12.000000000000
         C            1.686613328775     0.050411512894    -0.136847725245    12.000000000000
         H           -2.779947571225    -0.902412687106     1.146033574755     1.007825032230
         H           -2.795451571225     0.854485312894     1.155012574755     1.007825032230
         H           -0.818399571225    -2.162920687106     0.328619574755     1.007825032230
         H           -0.866122571225     2.146277312894     0.332889574755     1.007825032230
         H           -3.010261571225     0.867887312894    -1.355074425245     1.007825032230
         H           -4.344569571225    -0.028800687106    -0.607623425245     1.007825032230
         H           -2.994811571225    -0.897500687106    -1.360975425245     1.007825032230
         H            2.820274428775     0.047392312894    -0.338551425245     1.007825032230
         H            1.171902428775     3.122933312894    -0.032271425245     1.007825032230
         H            2.634367428775    -2.253757687106    -0.299919425245     1.007825032230

  Basis Set: AUG-CC-PVTZ
    Blend: AUG-CC-PVTZ
  Basis Set: (AUG-CC-PVTZ AUX)
    Blend: AUG-CC-PVTZ-JKFIT
	 Reference Energy          =    -458.6419687500574582 [Eh]
	 Singles Energy            =      -0.0000000000000000 [Eh]
	 Same-Spin Energy          =      -0.4834233697886664 [Eh]
	 Opposite-Spin Energy      =      -1.5086614688507773 [Eh]
	 Correlation Energy        =      -1.9920848386394439 [Eh]
	 Total Energy              =    -460.6340535886969292 [Eh]

	 ================> DF-SCS-MP2 Energies <==================
	-----------------------------------------------------------
	 SCS Same-Spin Scale       =       0.3333333333333333 [-]
	 SCS Opposite-Spin Scale   =       1.2000000000000000 [-]
	 SCS Same-Spin Energy      =      -0.1611411232628888 [Eh]
	 SCS Opposite-Spin Energy  =      -1.8103937626209328 [Eh]
	 SCS Correlation Energy    =      -1.9715348858838215 [Eh]
	 SCS Total Energy          =    -460.6135036359412993 [Eh]
	-----------------------------------------------------------

  Dipole Moment: [D]
     X:    -0.4130      Y:     1.1265      Z:    -0.0012     Total:     1.1998

*** Psi4 exiting successfully. Buy a developer a beer!
