                               Psi4 1.3.2 release

  ==> Input File <==

--------------------------------------------------------------------------
#psi4
#
memory 32 gb

molecule  {
0 1
  O        1.7627890     2.3683800    -0.1458810
  O        1.6754140    -2.4069960    -0.1279020
  C       -1.0215720    -0.0077180     0.3641480
  C       -2.5139530    -0.0194410     0.5634370
  C       -0.3128036    -1.2011425     0.2324474
  C       -0.3266802     1.1991028     0.2329335
  C       -3.2735700    -0.0197480    -0.7643280
  C        1.0346870     1.2106680    -0.0181020
  C        1.0480560    -1.1910380    -0.0190010
  C        1.7368580     0.0147850    -0.1457440
  H       -2.7927850    -0.9030380     1.1483340
  H       -2.8082890     0.8538600     1.1573130
  H       -0.8312370    -2.1635460     0.3309200
  H       -0.8789600     2.1456520     0.3351900
  H       -3.0230990     0.8672620    -1.3527740
  H       -4.3574070    -0.0294260    -0.6053230
  H       -3.0076490    -0.8981260    -1.3586750
  H        2.8074370     0.0467670    -0.3362510
  H        1.1590650     3.1223080    -0.0299710
  H        2.6215300    -2.2543830    -0.2976190
units angstrom
no_reorient  #important for SAPT in psi4, default
symmetry c1  #important for SAPT in psi4, default
}

set PROPERTIES_ORIGIN ["COM"]
properties('MP2/aug-cc-pvtz', properties = ['dipole'])
--------------------------------------------------------------------------

    Molecular point group: c1
  Charge       = 0
  Multiplicity = 1
  Basis Set: AUG-CC-PVTZ
    Blend: AUG-CC-PVTZ
  Basis Set: (AUG-CC-PVTZ AUX)
    Blend: AUG-CC-PVTZ-JKFIT

    Orbital Energies [Eh]
    ---------------------

    Doubly Occupied:

       1A    -20.595201     2A    -20.592773     3A    -11.308685
       4A    -11.306984     5A    -11.251548     6A    -11.233019
       7A    -11.223768     8A    -11.222863     9A    -11.220179
      10A    -11.215964    11A     -1.405031    12A     -1.401458
      13A     -1.152151    14A     -1.064418    15A     -1.003243
      16A     -0.988136    17A     -0.877605    18A     -0.835290
      19A     -0.809248    20A     -0.740493    21A     -0.686822
      22A     -0.675520    23A     -0.664502    24A     -0.612524
      25A     -0.602493    26A     -0.595472    27A     -0.586841
      28A     -0.576424    29A     -0.552332    30A     -0.549254
      31A     -0.523192    32A     -0.518196    33A     -0.488210
      34A     -0.484650    35A     -0.455073    36A     -0.325153
      37A     -0.313206

  @DF-RHF Final Energy:  -458.65979749074813

   => Energetics <=

    Nuclear Repulsion Energy =            507.8511026640975956
    One-Electron Energy =               -1631.7059577173738489
    Two-Electron Energy =                 665.1950575625280635
    Total Energy =                       -458.6597974907481330
  Basis Set: (AUG-CC-PVTZ AUX)
    Blend: AUG-CC-PVTZ-RI
    Molecular point group: c1

    Geometry (in Angstrom), charge = 0, multiplicity = 1:

       Center              X                  Y                   Z               Mass
    ------------   -----------------  -----------------  -----------------  -----------------
         O            1.760995038540     2.368369491708    -0.145544968383    15.994914619570
         O            1.673620038540    -2.407006508292    -0.127565968383    15.994914619570
         C           -1.023365961460    -0.007728508292     0.364484031617    12.000000000000
         C           -2.515746961460    -0.019451508292     0.563773031617    12.000000000000
         C           -0.314597561460    -1.201153008292     0.232783431617    12.000000000000
         C           -0.328474161460     1.199092291708     0.233269531617    12.000000000000
         C           -3.275363961460    -0.019758508292    -0.763991968383    12.000000000000
         C            1.032893038540     1.210657491708    -0.017765968383    12.000000000000
         C            1.046262038540    -1.191048508292    -0.018664968383    12.000000000000
         C            1.735064038540     0.014774491708    -0.145407968383    12.000000000000
         H           -2.794578961460    -0.903048508292     1.148670031617     1.007825032230
         H           -2.810082961460     0.853849491708     1.157649031617     1.007825032230
         H           -0.833030961460    -2.163556508292     0.331256031617     1.007825032230
         H           -0.880753961460     2.145641491708     0.335526031617     1.007825032230
         H           -3.024892961460     0.867251491708    -1.352437968383     1.007825032230
         H           -4.359200961460    -0.029436508292    -0.604986968383     1.007825032230
         H           -3.009442961460    -0.898136508292    -1.358338968383     1.007825032230
         H            2.805643038540     0.046756491708    -0.335914968383     1.007825032230
         H            1.157271038540     3.122297491708    -0.029634968383     1.007825032230
         H            2.619736038540    -2.254393508292    -0.297282968383     1.007825032230

  Basis Set: AUG-CC-PVTZ
    Blend: AUG-CC-PVTZ
  Basis Set: (AUG-CC-PVTZ AUX)
    Blend: AUG-CC-PVTZ-JKFIT
	 Reference Energy          =    -458.6597974907481330 [Eh]
	 Singles Energy            =      -0.0000000000000000 [Eh]
	 Same-Spin Energy          =      -0.4818403539267437 [Eh]
	 Opposite-Spin Energy      =      -1.5052403100836163 [Eh]
	 Correlation Energy        =      -1.9870806640103600 [Eh]
	 Total Energy              =    -460.6468781547584967 [Eh]

	 ================> DF-SCS-MP2 Energies <==================
	-----------------------------------------------------------
	 SCS Same-Spin Scale       =       0.3333333333333333 [-]
	 SCS Opposite-Spin Scale   =       1.2000000000000000 [-]
	 SCS Same-Spin Energy      =      -0.1606134513089146 [Eh]
	 SCS Opposite-Spin Energy  =      -1.8062883721003393 [Eh]
	 SCS Correlation Energy    =      -1.9669018234092539 [Eh]
	 SCS Total Energy          =    -460.6266993141574062 [Eh]
	-----------------------------------------------------------

  Dipole Moment: [D]
     X:    -0.5312      Y:     1.2201      Z:     0.0122     Total:     1.3308

*** Psi4 exiting successfully. Buy a developer a beer!
