                               Psi4 1.4a3.dev225

  ==> Input File <==

--------------------------------------------------------------------------
#psi4
#
memory 32 gb

molecule  {
0 1
  O       -1.8116000     2.3801270     0.1363720
  O       -1.7799440    -2.3994320     0.1189850
  C        0.9489570    -0.0306590    -0.3689570
  C        2.4429910    -0.0568610    -0.5708560
  C        0.2354480    -1.2220220    -0.2373930
  C        0.2798030     1.1938580    -0.2383990
  C        3.1984060    -0.0265600     0.7613490
  C       -1.0921630     1.2139390     0.0079710
  C       -1.1396310    -1.1871160     0.0102260
  C       -1.8132500     0.0254130     0.1385790
  H        2.7180680    -0.9584190    -1.1301260
  H        2.7446220     0.7994920    -1.1857830
  H        0.7258350    -2.1872220    -0.3369480
  H        0.8410388     2.1456420    -0.3471826
  H        2.9508560     0.8787730     1.3230630
  H        4.2811760    -0.0477390     0.6027570
  H        2.9230980    -0.8883860     1.3756490
  H       -2.8837580     0.0741080     0.3259950
  H       -1.1979550     3.1274200     0.0245130
  H       -2.7238770    -2.2320380     0.2881370
units angstrom
no_reorient  #important for SAPT in psi4, default
symmetry c1  #important for SAPT in psi4, default
}

set PROPERTIES_ORIGIN ["COM"]
properties('MP2/aug-cc-pvtz', properties = ['dipole'])
--------------------------------------------------------------------------

    Molecular point group: c1
  Charge       = 0
  Multiplicity = 1
  Basis Set: AUG-CC-PVTZ
    Blend: AUG-CC-PVTZ
  Basis Set: (AUG-CC-PVTZ AUX)
    Blend: AUG-CC-PVTZ-JKFIT

    Orbital Energies [Eh]
    ---------------------

    Doubly Occupied:

       1A    -20.595644     2A    -20.593476     3A    -11.311395
       4A    -11.309379     5A    -11.252602     6A    -11.232647
       7A    -11.225788     8A    -11.224757     9A    -11.219884
      10A    -11.217073    11A     -1.404258    12A     -1.400914
      13A     -1.149787    14A     -1.063626    15A     -1.000623
      16A     -0.987640    17A     -0.876209    18A     -0.835612
      19A     -0.807613    20A     -0.739162    21A     -0.686094
      22A     -0.674358    23A     -0.664146    24A     -0.611726
      25A     -0.601898    26A     -0.595000    27A     -0.587282
      28A     -0.575836    29A     -0.552925    30A     -0.548573
      31A     -0.522600    32A     -0.521364    33A     -0.488339
      34A     -0.482774    35A     -0.453868    36A     -0.326115
      37A     -0.311682

  @DF-RHF Final Energy:  -458.65901670999500

   => Energetics <=

    Nuclear Repulsion Energy =            506.9831618395615465
    One-Electron Energy =               -1629.9790183971724673
    Two-Electron Energy =                 664.3368398476159200
    Total Energy =                       -458.6590167099950577
  Basis Set: (AUG-CC-PVTZ AUX)
    Blend: AUG-CC-PVTZ-RI
    Molecular point group: c1

    Geometry (in Angstrom), charge = 0, multiplicity = 1:

       Center              X                  Y                   Z               Mass
    ------------   -----------------  -----------------  -----------------  -----------------
         O           -1.737293273614     2.384991834025     0.143165142035    15.994914619570
         O           -1.705637273614    -2.394567165975     0.125778142035    15.994914619570
         C            1.023263726386    -0.025794165975    -0.362163857965    12.000000000000
         C            2.517297726386    -0.051996165975    -0.564062857965    12.000000000000
         C            0.309754726386    -1.217157165975    -0.230599857965    12.000000000000
         C            0.354109726386     1.198722834025    -0.231605857965    12.000000000000
         C            3.272712726386    -0.021695165975     0.768142142035    12.000000000000
         C           -1.017856273614     1.218803834025     0.014764142035    12.000000000000
         C           -1.065324273614    -1.182251165975     0.017019142035    12.000000000000
         C           -1.738943273614     0.030277834025     0.145372142035    12.000000000000
         H            2.792374726386    -0.953554165975    -1.123332857965     1.007825032230
         H            2.818928726386     0.804356834025    -1.178989857965     1.007825032230
         H            0.800141726386    -2.182357165975    -0.330154857965     1.007825032230
         H            0.915345526386     2.150506834025    -0.340389457965     1.007825032230
         H            3.025162726386     0.883637834025     1.329856142035     1.007825032230
         H            4.355482726386    -0.042874165975     0.609550142035     1.007825032230
         H            2.997404726386    -0.883521165975     1.382442142035     1.007825032230
         H           -2.809451273614     0.078972834025     0.332788142035     1.007825032230
         H           -1.123648273614     3.132284834025     0.031306142035     1.007825032230
         H           -2.649570273614    -2.227173165975     0.294930142035     1.007825032230

  Basis Set: AUG-CC-PVTZ
    Blend: AUG-CC-PVTZ
  Basis Set: (AUG-CC-PVTZ AUX)
    Blend: AUG-CC-PVTZ-JKFIT
	 Reference Energy          =    -458.6590167099950008 [Eh]
	 Singles Energy            =      -0.0000000000000000 [Eh]
	 Same-Spin Energy          =      -0.4817831959866851 [Eh]
	 Opposite-Spin Energy      =      -1.5056373380502301 [Eh]
	 Correlation Energy        =      -1.9874205340369153 [Eh]
	 Total Energy              =    -460.6464372440319153 [Eh]

	 ================> DF-SCS-MP2 Energies <==================
	-----------------------------------------------------------
	 SCS Same-Spin Scale       =       0.3333333333333333 [-]
	 SCS Opposite-Spin Scale   =       1.2000000000000000 [-]
	 SCS Same-Spin Energy      =      -0.1605943986622284 [Eh]
	 SCS Opposite-Spin Energy  =      -1.8067648056602761 [Eh]
	 SCS Correlation Energy    =      -1.9673592043225043 [Eh]
	 SCS Total Energy          =    -460.6263759143175207 [Eh]
	-----------------------------------------------------------

  Dipole Moment: [D]
     X:     0.5263      Y:     1.2140      Z:    -0.0170     Total:     1.3233

*** Psi4 exiting successfully. Buy a developer a beer!
