                               Psi4 1.3.2 release

  ==> Input File <==

--------------------------------------------------------------------------
#psi4
#
memory 32 gb

molecule  {
0 1
  O        1.7627890     2.3683800    -0.1458810
  O        1.6754140    -2.4069960    -0.1279020
  C       -1.0215720    -0.0077180     0.3641480
  C       -2.5139530    -0.0194410     0.5634370
  C       -0.3230660    -1.2073880     0.2343750
  C       -0.3370590     1.2052280     0.2348720
  C       -3.2735700    -0.0197480    -0.7643280
  C        1.0346870     1.2106680    -0.0181020
  C        1.0480560    -1.1910380    -0.0190010
  C        1.6360184     0.1865271    -0.1274132
  H       -2.7927850    -0.9030380     1.1483340
  H       -2.8082890     0.8538600     1.1573130
  H       -0.8312370    -2.1635460     0.3309200
  H       -0.8789600     2.1456520     0.3351900
  H       -3.0230990     0.8672620    -1.3527740
  H       -4.3574070    -0.0294260    -0.6053230
  H       -3.0076490    -0.8981260    -1.3586750
  H        2.8074370     0.0467670    -0.3362510
  H        1.1590650     3.1223080    -0.0299710
  H        2.6215300    -2.2543830    -0.2976190
units angstrom
no_reorient  #important for SAPT in psi4, default
symmetry c1  #important for SAPT in psi4, default
}

set PROPERTIES_ORIGIN ["COM"]
properties('MP2/aug-cc-pvtz', properties = ['dipole'])
--------------------------------------------------------------------------

    Molecular point group: c1
  Charge       = 0
  Multiplicity = 1
  Basis Set: AUG-CC-PVTZ
    Blend: AUG-CC-PVTZ
  Basis Set: (AUG-CC-PVTZ AUX)
    Blend: AUG-CC-PVTZ-JKFIT

    Orbital Energies [Eh]
    ---------------------

    Doubly Occupied:

       1A    -20.607484     2A    -20.585162     3A    -11.321212
       4A    -11.276047     5A    -11.249268     6A    -11.231277
       7A    -11.222124     8A    -11.221539     9A    -11.219035
      10A    -11.216896    11A     -1.410626    12A     -1.399909
      13A     -1.163075    14A     -1.077041    15A     -1.012723
      16A     -0.982870    17A     -0.879105    18A     -0.832771
      19A     -0.803273    20A     -0.742541    21A     -0.700651
      22A     -0.670067    23A     -0.657618    24A     -0.611949
      25A     -0.604666    26A     -0.596970    27A     -0.589235
      28A     -0.580671    29A     -0.556686    30A     -0.537448
      31A     -0.529284    32A     -0.505894    33A     -0.487084
      34A     -0.467150    35A     -0.460724    36A     -0.346307
      37A     -0.303905

  @DF-RHF Final Energy:  -458.59301313739934

   => Energetics <=

    Nuclear Repulsion Energy =            509.7535658047858078
    One-Electron Energy =               -1635.3725902487356052
    Two-Electron Energy =                 667.0260113065505720
    Total Energy =                       -458.5930131373993390
  Basis Set: (AUG-CC-PVTZ AUX)
    Blend: AUG-CC-PVTZ-RI
    Molecular point group: c1

    Geometry (in Angstrom), charge = 0, multiplicity = 1:

       Center              X                  Y                   Z               Mass
    ------------   -----------------  -----------------  -----------------  -----------------
         O            1.771553377619     2.353453215574    -0.147474181861    15.994914619570
         O            1.684178377619    -2.421922784426    -0.129495181861    15.994914619570
         C           -1.012807622381    -0.022644784426     0.362554818139    12.000000000000
         C           -2.505188622381    -0.034367784426     0.561843818139    12.000000000000
         C           -0.314301622381    -1.222314784426     0.232781818139    12.000000000000
         C           -0.328294622381     1.190301215574     0.233278818139    12.000000000000
         C           -3.264805622381    -0.034674784426    -0.765921181861    12.000000000000
         C            1.043451377619     1.195741215574    -0.019695181861    12.000000000000
         C            1.056820377619    -1.205964784426    -0.020594181861    12.000000000000
         C            1.644782777619     0.171600315574    -0.129006381861    12.000000000000
         H           -2.784020622381    -0.917964784426     1.146740818139     1.007825032230
         H           -2.799524622381     0.838933215574     1.155719818139     1.007825032230
         H           -0.822472622381    -2.178472784426     0.329326818139     1.007825032230
         H           -0.870195622381     2.130725215574     0.333596818139     1.007825032230
         H           -3.014334622381     0.852335215574    -1.354367181861     1.007825032230
         H           -4.348642622381    -0.044352784426    -0.606916181861     1.007825032230
         H           -2.998884622381    -0.913052784426    -1.360268181861     1.007825032230
         H            2.816201377619     0.031840215574    -0.337844181861     1.007825032230
         H            1.167829377619     3.107381215574    -0.031564181861     1.007825032230
         H            2.630294377619    -2.269309784426    -0.299212181861     1.007825032230

  Basis Set: AUG-CC-PVTZ
    Blend: AUG-CC-PVTZ
  Basis Set: (AUG-CC-PVTZ AUX)
    Blend: AUG-CC-PVTZ-JKFIT
	 Reference Energy          =    -458.5930131373993390 [Eh]
	 Singles Energy            =      -0.0000000000000000 [Eh]
	 Same-Spin Energy          =      -0.4821941043510371 [Eh]
	 Opposite-Spin Energy      =      -1.5076365432758363 [Eh]
	 Correlation Energy        =      -1.9898306476268734 [Eh]
	 Total Energy              =    -460.5828437850262276 [Eh]

	 ================> DF-SCS-MP2 Energies <==================
	-----------------------------------------------------------
	 SCS Same-Spin Scale       =       0.3333333333333333 [-]
	 SCS Opposite-Spin Scale   =       1.2000000000000000 [-]
	 SCS Same-Spin Energy      =      -0.1607313681170124 [Eh]
	 SCS Opposite-Spin Energy  =      -1.8091638519310034 [Eh]
	 SCS Correlation Energy    =      -1.9698952200480158 [Eh]
	 SCS Total Energy          =    -460.5629083574473270 [Eh]
	-----------------------------------------------------------

  Dipole Moment: [D]
     X:    -0.5051      Y:     0.7849      Z:     0.0133     Total:     0.9335

*** Psi4 exiting successfully. Buy a developer a beer!
