                               Psi4 1.4a3.dev225

  ==> Input File <==

--------------------------------------------------------------------------
#psi4
#
memory 32 gb

molecule  {
0 1
  O       -1.8116000     2.3801270     0.1363720
  O       -1.7799440    -2.3994320     0.1189850
  C        0.9489570    -0.0306590    -0.3689570
  C        2.4429910    -0.0568610    -0.5708560
  C        0.2354480    -1.2220220    -0.2373930
  C        0.2798030     1.1938580    -0.2383990
  C        3.1984060    -0.0265600     0.7613490
  C       -1.0921630     1.2139390     0.0079710
  C       -1.1396310    -1.1871160     0.0102260
  C       -1.8035786     0.0080042     0.1367362
  H        2.7180680    -0.9584190    -1.1301260
  H        2.7446220     0.7994920    -1.1857830
  H        0.7258350    -2.1872220    -0.3369480
  H        0.8309290     2.1284970    -0.3452230
  H        2.9508560     0.8787730     1.3230630
  H        4.2811760    -0.0477390     0.6027570
  H        2.9230980    -0.8883860     1.3756490
  H       -2.8837580     0.0741080     0.3259950
  H       -1.1979550     3.1274200     0.0245130
  H       -2.7238770    -2.2320380     0.2881370
units angstrom
no_reorient  #important for SAPT in psi4, default
symmetry c1  #important for SAPT in psi4, default
}

set PROPERTIES_ORIGIN ["COM"]
properties('MP2/aug-cc-pvtz', properties = ['dipole'])
--------------------------------------------------------------------------

    Molecular point group: c1
  Charge       = 0
  Multiplicity = 1
  Basis Set: AUG-CC-PVTZ
    Blend: AUG-CC-PVTZ
  Basis Set: (AUG-CC-PVTZ AUX)
    Blend: AUG-CC-PVTZ-JKFIT

    Orbital Energies [Eh]
    ---------------------

    Doubly Occupied:

       1A    -20.596967     2A    -20.592303     3A    -11.312622
       4A    -11.306522     5A    -11.251939     6A    -11.232495
       7A    -11.224646     8A    -11.223572     9A    -11.219782
      10A    -11.216832    11A     -1.404784    12A     -1.400490
      13A     -1.150553    14A     -1.064114    15A     -1.001373
      16A     -0.987792    17A     -0.875779    18A     -0.837626
      19A     -0.807455    20A     -0.739106    21A     -0.686840
      22A     -0.675054    23A     -0.665181    24A     -0.611790
      25A     -0.602410    26A     -0.595450    27A     -0.586143
      28A     -0.575953    29A     -0.554375    30A     -0.546696
      31A     -0.523314    32A     -0.521668    33A     -0.488217
      34A     -0.482242    35A     -0.454270    36A     -0.327236
      37A     -0.311262

  @DF-RHF Final Energy:  -458.65921647111014

   => Energetics <=

    Nuclear Repulsion Energy =            507.2715331252130682
    One-Electron Energy =               -1630.5517918726206972
    Two-Electron Energy =                 664.6210422762973167
    Total Energy =                       -458.6592164711101987
  Basis Set: (AUG-CC-PVTZ AUX)
    Blend: AUG-CC-PVTZ-RI
    Molecular point group: c1

    Geometry (in Angstrom), charge = 0, multiplicity = 1:

       Center              X                  Y                   Z               Mass
    ------------   -----------------  -----------------  -----------------  -----------------
         O           -1.738060053964     2.386630045847     0.143311002441    15.994914619570
         O           -1.706404053964    -2.392928954153     0.125924002441    15.994914619570
         C            1.022496946036    -0.024155954153    -0.362017997559    12.000000000000
         C            2.516530946036    -0.050357954153    -0.563916997559    12.000000000000
         C            0.308987946036    -1.215518954153    -0.230453997559    12.000000000000
         C            0.353342946036     1.200361045847    -0.231459997559    12.000000000000
         C            3.271945946036    -0.020056954153     0.768288002441    12.000000000000
         C           -1.018623053964     1.220442045847     0.014910002441    12.000000000000
         C           -1.066091053964    -1.180612954153     0.017165002441    12.000000000000
         C           -1.730038653964     0.014507245847     0.143675202441    12.000000000000
         H            2.791607946036    -0.951915954153    -1.123186997559     1.007825032230
         H            2.818161946036     0.805995045847    -1.178843997559     1.007825032230
         H            0.799374946036    -2.180718954153    -0.330008997559     1.007825032230
         H            0.904468946036     2.135000045847    -0.338283997559     1.007825032230
         H            3.024395946036     0.885276045847     1.330002002441     1.007825032230
         H            4.354715946036    -0.041235954153     0.609696002441     1.007825032230
         H            2.996637946036    -0.881882954153     1.382588002441     1.007825032230
         H           -2.810218053964     0.080611045847     0.332934002441     1.007825032230
         H           -1.124415053964     3.133923045847     0.031452002441     1.007825032230
         H           -2.650337053964    -2.225534954153     0.295076002441     1.007825032230

  Basis Set: AUG-CC-PVTZ
    Blend: AUG-CC-PVTZ
  Basis Set: (AUG-CC-PVTZ AUX)
    Blend: AUG-CC-PVTZ-JKFIT
	 Reference Energy          =    -458.6592164711101418 [Eh]
	 Singles Energy            =      -0.0000000000000000 [Eh]
	 Same-Spin Energy          =      -0.4817417280227128 [Eh]
	 Opposite-Spin Energy      =      -1.5054838241821016 [Eh]
	 Correlation Energy        =      -1.9872255522048143 [Eh]
	 Total Energy              =    -460.6464420233149326 [Eh]

	 ================> DF-SCS-MP2 Energies <==================
	-----------------------------------------------------------
	 SCS Same-Spin Scale       =       0.3333333333333333 [-]
	 SCS Opposite-Spin Scale   =       1.2000000000000000 [-]
	 SCS Same-Spin Energy      =      -0.1605805760075709 [Eh]
	 SCS Opposite-Spin Energy  =      -1.8065805890185218 [Eh]
	 SCS Correlation Energy    =      -1.9671611650260927 [Eh]
	 SCS Total Energy          =    -460.6263776361362261 [Eh]
	-----------------------------------------------------------

  Dipole Moment: [D]
     X:     0.5306      Y:     1.2637      Z:    -0.0182     Total:     1.3707

*** Psi4 exiting successfully. Buy a developer a beer!
