                               Psi4 1.3.2 release

  ==> Input File <==

--------------------------------------------------------------------------
#psi4
#
memory 32 gb

molecule  {
0 1
  O        1.7627890     2.3683800    -0.1458810
  O        1.6754140    -2.4069960    -0.1279020
  C       -1.0215720    -0.0077180     0.3641480
  C       -2.6130701    -0.0202196     0.5766729
  C       -0.3230660    -1.2073880     0.2343750
  C       -0.3370590     1.2052280     0.2348720
  C       -3.2735700    -0.0197480    -0.7643280
  C        1.0346870     1.2106680    -0.0181020
  C        1.0480560    -1.1910380    -0.0190010
  C        1.7368580     0.0147850    -0.1457440
  H       -2.7927850    -0.9030380     1.1483340
  H       -2.8082890     0.8538600     1.1573130
  H       -0.8312370    -2.1635460     0.3309200
  H       -0.8789600     2.1456520     0.3351900
  H       -3.0230990     0.8672620    -1.3527740
  H       -4.3574070    -0.0294260    -0.6053230
  H       -3.0076490    -0.8981260    -1.3586750
  H        2.8074370     0.0467670    -0.3362510
  H        1.1590650     3.1223080    -0.0299710
  H        2.6215300    -2.2543830    -0.2976190
units angstrom
no_reorient  #important for SAPT in psi4, default
symmetry c1  #important for SAPT in psi4, default
}

set PROPERTIES_ORIGIN ["COM"]
properties('MP2/aug-cc-pvtz', properties = ['dipole'])
--------------------------------------------------------------------------

    Molecular point group: c1
  Charge       = 0
  Multiplicity = 1
  Basis Set: AUG-CC-PVTZ
    Blend: AUG-CC-PVTZ
  Basis Set: (AUG-CC-PVTZ AUX)
    Blend: AUG-CC-PVTZ-JKFIT

    Orbital Energies [Eh]
    ---------------------

    Doubly Occupied:

       1A    -20.595065     2A    -20.592683     3A    -11.309762
       4A    -11.308053     5A    -11.253594     6A    -11.232932
       7A    -11.223039     8A    -11.221974     9A    -11.218322
      10A    -11.215118    11A     -1.404746    12A     -1.401226
      13A     -1.145863    14A     -1.061054    15A     -1.000184
      16A     -0.992083    17A     -0.870317    18A     -0.835186
      19A     -0.811181    20A     -0.738759    21A     -0.686561
      22A     -0.674347    23A     -0.664028    24A     -0.614040
      25A     -0.603124    26A     -0.593999    27A     -0.587311
      28A     -0.575849    29A     -0.552461    30A     -0.549032
      31A     -0.532726    32A     -0.520900    33A     -0.498685
      34A     -0.459044    35A     -0.454924    36A     -0.326314
      37A     -0.310446

  @DF-RHF Final Energy:  -458.65268217411005

   => Energetics <=

    Nuclear Repulsion Energy =            506.1079629593114646
    One-Electron Energy =               -1628.2514275086555244
    Two-Electron Energy =                 663.4907823752340619
    Total Energy =                       -458.6526821741100548
  Basis Set: (AUG-CC-PVTZ AUX)
    Blend: AUG-CC-PVTZ-RI
    Molecular point group: c1

    Geometry (in Angstrom), charge = 0, multiplicity = 1:

       Center              X                  Y                   Z               Mass
    ------------   -----------------  -----------------  -----------------  -----------------
         O            1.771403668866     2.368447618383    -0.147031365533    15.994914619570
         O            1.684028668866    -2.406928381617    -0.129052365533    15.994914619570
         C           -1.012957331134    -0.007650381617     0.362997634467    12.000000000000
         C           -2.604455431134    -0.020151981617     0.575522534467    12.000000000000
         C           -0.314451331134    -1.207320381617     0.233224634467    12.000000000000
         C           -0.328444331134     1.205295618383     0.233721634467    12.000000000000
         C           -3.264955331134    -0.019680381617    -0.765478365533    12.000000000000
         C            1.043301668866     1.210735618383    -0.019252365533    12.000000000000
         C            1.056670668866    -1.190970381617    -0.020151365533    12.000000000000
         C            1.745472668866     0.014852618383    -0.146894365533    12.000000000000
         H           -2.784170331134    -0.902970381617     1.147183634467     1.007825032230
         H           -2.799674331134     0.853927618383     1.156162634467     1.007825032230
         H           -0.822622331134    -2.163478381617     0.329769634467     1.007825032230
         H           -0.870345331134     2.145719618383     0.334039634467     1.007825032230
         H           -3.014484331134     0.867329618383    -1.353924365533     1.007825032230
         H           -4.348792331134    -0.029358381617    -0.606473365533     1.007825032230
         H           -2.999034331134    -0.898058381617    -1.359825365533     1.007825032230
         H            2.816051668866     0.046834618383    -0.337401365533     1.007825032230
         H            1.167679668866     3.122375618383    -0.031121365533     1.007825032230
         H            2.630144668866    -2.254315381617    -0.298769365533     1.007825032230

  Basis Set: AUG-CC-PVTZ
    Blend: AUG-CC-PVTZ
  Basis Set: (AUG-CC-PVTZ AUX)
    Blend: AUG-CC-PVTZ-JKFIT
	 Reference Energy          =    -458.6526821741100548 [Eh]
	 Singles Energy            =      -0.0000000000000000 [Eh]
	 Same-Spin Energy          =      -0.4814998931265937 [Eh]
	 Opposite-Spin Energy      =      -1.5052162366618902 [Eh]
	 Correlation Energy        =      -1.9867161297884839 [Eh]
	 Total Energy              =    -460.6393983038985311 [Eh]

	 ================> DF-SCS-MP2 Energies <==================
	-----------------------------------------------------------
	 SCS Same-Spin Scale       =       0.3333333333333333 [-]
	 SCS Opposite-Spin Scale   =       1.2000000000000000 [-]
	 SCS Same-Spin Energy      =      -0.1604999643755312 [Eh]
	 SCS Opposite-Spin Energy  =      -1.8062594839942681 [Eh]
	 SCS Correlation Energy    =      -1.9667594483697992 [Eh]
	 SCS Total Energy          =    -460.6194416224798260 [Eh]
	-----------------------------------------------------------

  Dipole Moment: [D]
     X:    -0.5470      Y:     1.2215      Z:     0.0066     Total:     1.3384

*** Psi4 exiting successfully. Buy a developer a beer!
