                               Psi4 1.3.2 release

  ==> Input File <==

--------------------------------------------------------------------------
#psi4
#
memory 32 gb

molecule  {
0 1
  O        1.7627890     2.3683800    -0.1458810
  O        1.6754140    -2.4069960    -0.1279020
  C       -1.0215720    -0.0077180     0.3641480
  C       -2.5132405     0.0330882     0.5649324
  C       -0.2818761    -1.1819056     0.2296365
  C       -0.3370590     1.2052280     0.2348720
  C       -3.2735700    -0.0197480    -0.7643280
  C        1.0346870     1.2106680    -0.0181020
  C        1.0480560    -1.1910380    -0.0190010
  C        1.7368580     0.0147850    -0.1457440
  H       -2.7927850    -0.9030380     1.1483340
  H       -2.8082890     0.8538600     1.1573130
  H       -0.8312370    -2.1635460     0.3309200
  H       -0.8789600     2.1456520     0.3351900
  H       -3.0230990     0.8672620    -1.3527740
  H       -4.3574070    -0.0294260    -0.6053230
  H       -3.0076490    -0.8981260    -1.3586750
  H        2.8074370     0.0467670    -0.3362510
  H        1.1590650     3.1223080    -0.0299710
  H        2.6215300    -2.2543830    -0.2976190
units angstrom
no_reorient  #important for SAPT in psi4, default
symmetry c1  #important for SAPT in psi4, default
}

set PROPERTIES_ORIGIN ["COM"]
properties('MP2/aug-cc-pvtz', properties = ['dipole'])
--------------------------------------------------------------------------

    Molecular point group: c1
  Charge       = 0
  Multiplicity = 1
  Basis Set: AUG-CC-PVTZ
    Blend: AUG-CC-PVTZ
  Basis Set: (AUG-CC-PVTZ AUX)
    Blend: AUG-CC-PVTZ-JKFIT

    Orbital Energies [Eh]
    ---------------------

    Doubly Occupied:

       1A    -20.594724     2A    -20.592271     3A    -11.308887
       4A    -11.303151     5A    -11.252223     6A    -11.234330
       7A    -11.223633     8A    -11.223049     9A    -11.220995
      10A    -11.215864    11A     -1.404619    12A     -1.401168
      13A     -1.154154    14A     -1.065119    15A     -1.005445
      16A     -0.988212    17A     -0.878327    18A     -0.834714
      19A     -0.811242    20A     -0.738766    21A     -0.686993
      22A     -0.677935    23A     -0.664267    24A     -0.611405
      25A     -0.602513    26A     -0.599188    27A     -0.583312
      28A     -0.576473    29A     -0.553386    30A     -0.549695
      31A     -0.525925    32A     -0.511962    33A     -0.495863
      34A     -0.476501    35A     -0.455408    36A     -0.324657
      37A     -0.314924

  @DF-RHF Final Energy:  -458.65358806141984

   => Energetics <=

    Nuclear Repulsion Energy =            508.2003309599157888
    One-Electron Energy =               -1632.3852380433966118
    Two-Electron Energy =                 665.5313190220608703
    Total Energy =                       -458.6535880614198959
  Basis Set: (AUG-CC-PVTZ AUX)
    Blend: AUG-CC-PVTZ-RI
    Molecular point group: c1

    Geometry (in Angstrom), charge = 0, multiplicity = 1:

       Center              X                  Y                   Z               Mass
    ------------   -----------------  -----------------  -----------------  -----------------
         O            1.759147150159     2.361599674941    -0.145599115584    15.994914619570
         O            1.671772150159    -2.413776325059    -0.127620115584    15.994914619570
         C           -1.025213849841    -0.014498325059     0.364429884416    12.000000000000
         C           -2.516882349841     0.026307874941     0.565214284416    12.000000000000
         C           -0.285517949841    -1.188685925059     0.229918384416    12.000000000000
         C           -0.340700849841     1.198447674941     0.235153884416    12.000000000000
         C           -3.277211849841    -0.026528325059    -0.764046115584    12.000000000000
         C            1.031045150159     1.203887674941    -0.017820115584    12.000000000000
         C            1.044414150159    -1.197818325059    -0.018719115584    12.000000000000
         C            1.733216150159     0.008004674941    -0.145462115584    12.000000000000
         H           -2.796426849841    -0.909818325059     1.148615884416     1.007825032230
         H           -2.811930849841     0.847079674941     1.157594884416     1.007825032230
         H           -0.834878849841    -2.170326325059     0.331201884416     1.007825032230
         H           -0.882601849841     2.138871674941     0.335471884416     1.007825032230
         H           -3.026740849841     0.860481674941    -1.352492115584     1.007825032230
         H           -4.361048849841    -0.036206325059    -0.605041115584     1.007825032230
         H           -3.011290849841    -0.904906325059    -1.358393115584     1.007825032230
         H            2.803795150159     0.039986674941    -0.335969115584     1.007825032230
         H            1.155423150159     3.115527674941    -0.029689115584     1.007825032230
         H            2.617888150159    -2.261163325059    -0.297337115584     1.007825032230

  Basis Set: AUG-CC-PVTZ
    Blend: AUG-CC-PVTZ
  Basis Set: (AUG-CC-PVTZ AUX)
    Blend: AUG-CC-PVTZ-JKFIT
	 Reference Energy          =    -458.6535880614198391 [Eh]
	 Singles Energy            =      -0.0000000000000000 [Eh]
	 Same-Spin Energy          =      -0.4820589816467041 [Eh]
	 Opposite-Spin Energy      =      -1.5055973161521001 [Eh]
	 Correlation Energy        =      -1.9876562977988042 [Eh]
	 Total Energy              =    -460.6412443592186605 [Eh]

	 ================> DF-SCS-MP2 Energies <==================
	-----------------------------------------------------------
	 SCS Same-Spin Scale       =       0.3333333333333333 [-]
	 SCS Opposite-Spin Scale   =       1.2000000000000000 [-]
	 SCS Same-Spin Energy      =      -0.1606863272155680 [Eh]
	 SCS Opposite-Spin Energy  =      -1.8067167793825201 [Eh]
	 SCS Correlation Energy    =      -1.9674031065980881 [Eh]
	 SCS Total Energy          =    -460.6209911680179516 [Eh]
	-----------------------------------------------------------

  Dipole Moment: [D]
     X:    -0.5604      Y:     1.2966      Z:     0.0096     Total:     1.4125

*** Psi4 exiting successfully. Buy a developer a beer!
