                               Psi4 1.3.2 release

  ==> Input File <==

--------------------------------------------------------------------------
#psi4
#
memory 32 gb

molecule  {
0 1
  O        1.7627890     2.3683800    -0.1458810
  O        1.6754140    -2.4069960    -0.1279020
  C       -1.0215720    -0.0077180     0.3641480
  C       -2.5139530    -0.0194410     0.5634370
  C       -0.3230660    -1.2073880     0.2343750
  C       -0.3370590     1.2052280     0.2348720
  C       -3.2735700    -0.0197480    -0.7643280
  C        1.0244488     1.2043945    -0.0162256
  C        1.0377305    -1.1848803    -0.0171167
  C        1.7368580     0.0147850    -0.1457440
  H       -2.7927850    -0.9030380     1.1483340
  H       -2.8082890     0.8538600     1.1573130
  H       -0.8312370    -2.1635460     0.3309200
  H       -0.8789600     2.1456520     0.3351900
  H       -3.0230990     0.8672620    -1.3527740
  H       -4.3574070    -0.0294260    -0.6053230
  H       -3.0076490    -0.8981260    -1.3586750
  H        2.8074370     0.0467670    -0.3362510
  H        1.1590650     3.1223080    -0.0299710
  H        2.6215300    -2.2543830    -0.2976190
units angstrom
no_reorient  #important for SAPT in psi4, default
symmetry c1  #important for SAPT in psi4, default
}

set PROPERTIES_ORIGIN ["COM"]
properties('MP2/aug-cc-pvtz', properties = ['dipole'])
--------------------------------------------------------------------------

    Molecular point group: c1
  Charge       = 0
  Multiplicity = 1
  Basis Set: AUG-CC-PVTZ
    Blend: AUG-CC-PVTZ
  Basis Set: (AUG-CC-PVTZ AUX)
    Blend: AUG-CC-PVTZ-JKFIT

    Orbital Energies [Eh]
    ---------------------

    Doubly Occupied:

       1A    -20.593896     2A    -20.591078     3A    -11.309552
       4A    -11.307936     5A    -11.252433     6A    -11.232813
       7A    -11.224744     8A    -11.223072     9A    -11.220399
      10A    -11.216291    11A     -1.400095    12A     -1.396276
      13A     -1.153249    14A     -1.064864    15A     -1.004734
      16A     -0.988846    17A     -0.878002    18A     -0.834889
      19A     -0.807526    20A     -0.738170    21A     -0.687967
      22A     -0.672536    23A     -0.665853    24A     -0.611898
      25A     -0.601138    26A     -0.594523    27A     -0.586079
      28A     -0.573001    29A     -0.553973    30A     -0.550510
      31A     -0.524362    32A     -0.521412    33A     -0.488516
      34A     -0.484454    35A     -0.455527    36A     -0.326031
      37A     -0.314916

  @DF-RHF Final Energy:  -458.65959986568777

   => Energetics <=

    Nuclear Repulsion Energy =            507.6760312092752088
    One-Electron Energy =               -1631.3681420786817853
    Two-Electron Energy =                 665.0325110037188097
    Total Energy =                       -458.6595998656878237
  Basis Set: (AUG-CC-PVTZ AUX)
    Blend: AUG-CC-PVTZ-RI
    Molecular point group: c1

    Geometry (in Angstrom), charge = 0, multiplicity = 1:

       Center              X                  Y                   Z               Mass
    ------------   -----------------  -----------------  -----------------  -----------------
         O            1.764576306575     2.368390012020    -0.146207841368    15.994914619570
         O            1.677201306575    -2.406985987980    -0.128228841368    15.994914619570
         C           -1.019784693425    -0.007707987980     0.363821158632    12.000000000000
         C           -2.512165693425    -0.019430987980     0.563110158632    12.000000000000
         C           -0.321278693425    -1.207377987980     0.234048158632    12.000000000000
         C           -0.335271693425     1.205238012020     0.234545158632    12.000000000000
         C           -3.271782693425    -0.019737987980    -0.764654841368    12.000000000000
         C            1.026236106575     1.204404512020    -0.016552441368    12.000000000000
         C            1.039517806575    -1.184870287980    -0.017443541368    12.000000000000
         C            1.738645306575     0.014795012020    -0.146070841368    12.000000000000
         H           -2.790997693425    -0.903027987980     1.148007158632     1.007825032230
         H           -2.806501693425     0.853870012020     1.156986158632     1.007825032230
         H           -0.829449693425    -2.163535987980     0.330593158632     1.007825032230
         H           -0.877172693425     2.145662012020     0.334863158632     1.007825032230
         H           -3.021311693425     0.867272012020    -1.353100841368     1.007825032230
         H           -4.355619693425    -0.029415987980    -0.605649841368     1.007825032230
         H           -3.005861693425    -0.898115987980    -1.359001841368     1.007825032230
         H            2.809224306575     0.046777012020    -0.336577841368     1.007825032230
         H            1.160852306575     3.122318012020    -0.030297841368     1.007825032230
         H            2.623317306575    -2.254372987980    -0.297945841368     1.007825032230

  Basis Set: AUG-CC-PVTZ
    Blend: AUG-CC-PVTZ
  Basis Set: (AUG-CC-PVTZ AUX)
    Blend: AUG-CC-PVTZ-JKFIT
	 Reference Energy          =    -458.6595998656877669 [Eh]
	 Singles Energy            =      -0.0000000000000000 [Eh]
	 Same-Spin Energy          =      -0.4817745272051143 [Eh]
	 Opposite-Spin Energy      =      -1.5054499261186853 [Eh]
	 Correlation Energy        =      -1.9872244533237997 [Eh]
	 Total Energy              =    -460.6468243190115572 [Eh]

	 ================> DF-SCS-MP2 Energies <==================
	-----------------------------------------------------------
	 SCS Same-Spin Scale       =       0.3333333333333333 [-]
	 SCS Opposite-Spin Scale   =       1.2000000000000000 [-]
	 SCS Same-Spin Energy      =      -0.1605915090683714 [Eh]
	 SCS Opposite-Spin Energy  =      -1.8065399113424223 [Eh]
	 SCS Correlation Energy    =      -1.9671314204107937 [Eh]
	 SCS Total Energy          =    -460.6267312860985612 [Eh]
	-----------------------------------------------------------

  Dipole Moment: [D]
     X:    -0.5910      Y:     1.2218      Z:     0.0232     Total:     1.3575

*** Psi4 exiting successfully. Buy a developer a beer!
