                               Psi4 1.4a3.dev225

  ==> Input File <==

--------------------------------------------------------------------------
#psi4
#
memory 32 gb

molecule  {
0 1
  O       -1.8116000     2.3801270     0.1363720
  O       -1.7799440    -2.3994320     0.1189850
  C        0.9489570    -0.0306590    -0.3689570
  C        2.4429910    -0.0568610    -0.5708560
  C        0.2354480    -1.2220220    -0.2373930
  C        0.2798030     1.1938580    -0.2383990
  C        3.1984060    -0.0265600     0.7613490
  C       -1.0921630     1.2139390     0.0079710
  C       -1.1396310    -1.1871160     0.0102260
  C       -1.8132500     0.0254130     0.1385790
  H        2.7180680    -0.9584190    -1.1301260
  H        2.7446220     0.7994920    -1.1857830
  H        0.7258350    -2.1872220    -0.3369480
  H        0.8309290     2.1284970    -0.3452230
  H        2.9508560     0.8787730     1.3230630
  H        4.2811760    -0.0477390     0.6027570
  H        2.9230980    -0.8883860     1.3756490
  H       -2.9329596     0.0763461     0.3346088
  H       -1.1979550     3.1274200     0.0245130
  H       -2.7238770    -2.2320380     0.2881370
units angstrom
no_reorient  #important for SAPT in psi4, default
symmetry c1  #important for SAPT in psi4, default
}

set PROPERTIES_ORIGIN ["COM"]
properties('MP2/aug-cc-pvtz', properties = ['dipole'])
--------------------------------------------------------------------------

    Molecular point group: c1
  Charge       = 0
  Multiplicity = 1
  Basis Set: AUG-CC-PVTZ
    Blend: AUG-CC-PVTZ
  Basis Set: (AUG-CC-PVTZ AUX)
    Blend: AUG-CC-PVTZ-JKFIT

    Orbital Energies [Eh]
    ---------------------

    Doubly Occupied:

       1A    -20.595741     2A    -20.593235     3A    -11.311693
       4A    -11.309750     5A    -11.252547     6A    -11.232772
       7A    -11.230247     8A    -11.223775     9A    -11.220006
      10A    -11.217262    11A     -1.404265    12A     -1.400760
      13A     -1.149936    14A     -1.063159    15A     -1.001353
      16A     -0.986657    17A     -0.875363    18A     -0.836285
      19A     -0.807119    20A     -0.738770    21A     -0.685619
      22A     -0.671616    23A     -0.664268    24A     -0.611619
      25A     -0.601944    26A     -0.594664    27A     -0.585562
      28A     -0.575771    29A     -0.552870    30A     -0.546355
      31A     -0.523560    32A     -0.521192    33A     -0.488474
      34A     -0.482404    35A     -0.453965    36A     -0.326219
      37A     -0.311831

  @DF-RHF Final Energy:  -458.65720638329776

   => Energetics <=

    Nuclear Repulsion Energy =            506.8251616107452833
    One-Electron Energy =               -1629.6674804586868959
    Two-Electron Energy =                 664.1851124646439075
    Total Energy =                       -458.6572063832977619
  Basis Set: (AUG-CC-PVTZ AUX)
    Blend: AUG-CC-PVTZ-RI
    Molecular point group: c1

    Geometry (in Angstrom), charge = 0, multiplicity = 1:

       Center              X                  Y                   Z               Mass
    ------------   -----------------  -----------------  -----------------  -----------------
         O           -1.736860331301     2.385100646627     0.143087961725    15.994914619570
         O           -1.705204331301    -2.394458353373     0.125700961725    15.994914619570
         C            1.023696668699    -0.025685353373    -0.362241038275    12.000000000000
         C            2.517730668699    -0.051887353373    -0.564140038275    12.000000000000
         C            0.310187668699    -1.217048353373    -0.230677038275    12.000000000000
         C            0.354542668699     1.198831646627    -0.231683038275    12.000000000000
         C            3.273145668699    -0.021586353373     0.768064961725    12.000000000000
         C           -1.017423331301     1.218912646627     0.014686961725    12.000000000000
         C           -1.064891331301    -1.182142353373     0.016941961725    12.000000000000
         C           -1.738510331301     0.030386646627     0.145294961725    12.000000000000
         H            2.792807668699    -0.953445353373    -1.123410038275     1.007825032230
         H            2.819361668699     0.804465646627    -1.179067038275     1.007825032230
         H            0.800574668699    -2.182248353373    -0.330232038275     1.007825032230
         H            0.905668668699     2.133470646627    -0.338507038275     1.007825032230
         H            3.025595668699     0.883746646627     1.329778961725     1.007825032230
         H            4.355915668699    -0.042765353373     0.609472961725     1.007825032230
         H            2.997837668699    -0.883412353373     1.382364961725     1.007825032230
         H           -2.858219931301     0.081319746627     0.341324761725     1.007825032230
         H           -1.123215331301     3.132393646627     0.031228961725     1.007825032230
         H           -2.649137331301    -2.227064353373     0.294852961725     1.007825032230

  Basis Set: AUG-CC-PVTZ
    Blend: AUG-CC-PVTZ
  Basis Set: (AUG-CC-PVTZ AUX)
    Blend: AUG-CC-PVTZ-JKFIT
	 Reference Energy          =    -458.6572063832977619 [Eh]
	 Singles Energy            =      -0.0000000000000000 [Eh]
	 Same-Spin Energy          =      -0.4818566150701185 [Eh]
	 Opposite-Spin Energy      =      -1.5058766703226825 [Eh]
	 Correlation Energy        =      -1.9877332853928009 [Eh]
	 Total Energy              =    -460.6449396686905402 [Eh]

	 ================> DF-SCS-MP2 Energies <==================
	-----------------------------------------------------------
	 SCS Same-Spin Scale       =       0.3333333333333333 [-]
	 SCS Opposite-Spin Scale   =       1.2000000000000000 [-]
	 SCS Same-Spin Energy      =      -0.1606188716900395 [Eh]
	 SCS Opposite-Spin Energy  =      -1.8070520043872189 [Eh]
	 SCS Correlation Energy    =      -1.9676708760772583 [Eh]
	 SCS Total Energy          =    -460.6248772593750118 [Eh]
	-----------------------------------------------------------

  Dipole Moment: [D]
     X:     0.5406      Y:     1.2294      Z:    -0.0194     Total:     1.3432

*** Psi4 exiting successfully. Buy a developer a beer!
