                               Psi4 1.3.2 release

  ==> Input File <==

--------------------------------------------------------------------------
#psi4
#
memory 32 gb

molecule  {
0 1
  O        1.7627890     2.3683800    -0.1458810
  O        1.6754140    -2.4069960    -0.1279020
  C       -1.0215720    -0.0077180     0.3641480
  C       -2.5139530    -0.0194410     0.5634370
  C       -0.3230660    -1.2073880     0.2343750
  C       -0.3370590     1.2052280     0.2348720
  C       -3.2735700    -0.0197480    -0.7643280
  C        1.0346870     1.2106680    -0.0181020
  C        1.0480560    -1.1910380    -0.0190010
  C        1.7368580     0.0147850    -0.1457440
  H       -2.7927850    -0.9030380     1.1483340
  H       -2.8082890     0.8538600     1.1573130
  H       -0.8312370    -2.1635460     0.3309200
  H       -0.8789600     2.1456520     0.3351900
  H       -3.0230990     0.8672620    -1.3527740
  H       -4.3574070    -0.0294260    -0.6053230
  H       -3.0076490    -0.8981260    -1.3586750
  H        2.8074370     0.0467670    -0.3362510
  H        1.0970041     3.1998094    -0.0180558
  H        2.6215300    -2.2543830    -0.2976190
units angstrom
no_reorient  #important for SAPT in psi4, default
symmetry c1  #important for SAPT in psi4, default
}

set PROPERTIES_ORIGIN ["COM"]
properties('MP2/aug-cc-pvtz', properties = ['dipole'])
--------------------------------------------------------------------------

    Molecular point group: c1
  Charge       = 0
  Multiplicity = 1
  Basis Set: AUG-CC-PVTZ
    Blend: AUG-CC-PVTZ
  Basis Set: (AUG-CC-PVTZ AUX)
    Blend: AUG-CC-PVTZ-JKFIT

    Orbital Energies [Eh]
    ---------------------

    Doubly Occupied:

       1A    -20.602826     2A    -20.592993     3A    -11.309712
       4A    -11.308449     5A    -11.250879     6A    -11.231846
       7A    -11.223502     8A    -11.221971     9A    -11.219549
      10A    -11.215268    11A     -1.402294    12A     -1.386518
      13A     -1.148915    14A     -1.062726    15A     -0.999097
      16A     -0.987053    17A     -0.876144    18A     -0.829779
      19A     -0.805448    20A     -0.732827    21A     -0.686313
      22A     -0.666552    23A     -0.665040    24A     -0.609748
      25A     -0.599969    26A     -0.594331    27A     -0.585853
      28A     -0.574646    29A     -0.551240    30A     -0.546109
      31A     -0.522736    32A     -0.520720    33A     -0.487505
      34A     -0.481857    35A     -0.452917    36A     -0.325434
      37A     -0.310411

  @DF-RHF Final Energy:  -458.64671640326577

   => Energetics <=

    Nuclear Repulsion Energy =            506.9563804414519268
    One-Electron Energy =               -1630.0278363162710775
    Two-Electron Energy =                 664.4247394715532664
    Total Energy =                       -458.6467164032658275
  Basis Set: (AUG-CC-PVTZ AUX)
    Blend: AUG-CC-PVTZ-RI
    Molecular point group: c1

    Geometry (in Angstrom), charge = 0, multiplicity = 1:

       Center              X                  Y                   Z               Mass
    ------------   -----------------  -----------------  -----------------  -----------------
         O            1.763242052691     2.367814227586    -0.145967959976    15.994914619570
         O            1.675867052691    -2.407561772414    -0.127988959976    15.994914619570
         C           -1.021118947309    -0.008283772414     0.364061040024    12.000000000000
         C           -2.513499947309    -0.020006772414     0.563350040024    12.000000000000
         C           -0.322612947309    -1.207953772414     0.234288040024    12.000000000000
         C           -0.336605947309     1.204662227586     0.234785040024    12.000000000000
         C           -3.273116947309    -0.020313772414    -0.764414959976    12.000000000000
         C            1.035140052691     1.210102227586    -0.018188959976    12.000000000000
         C            1.048509052691    -1.191603772414    -0.019087959976    12.000000000000
         C            1.737311052691     0.014219227586    -0.145830959976    12.000000000000
         H           -2.792331947309    -0.903603772414     1.148247040024     1.007825032230
         H           -2.807835947309     0.853294227586     1.157226040024     1.007825032230
         H           -0.830783947309    -2.164111772414     0.330833040024     1.007825032230
         H           -0.878506947309     2.145086227586     0.335103040024     1.007825032230
         H           -3.022645947309     0.866696227586    -1.352860959976     1.007825032230
         H           -4.356953947309    -0.029991772414    -0.605409959976     1.007825032230
         H           -3.007195947309    -0.898691772414    -1.358761959976     1.007825032230
         H            2.807890052691     0.046201227586    -0.336337959976     1.007825032230
         H            1.097457152691     3.199243627586    -0.018142759976     1.007825032230
         H            2.621983052691    -2.254948772414    -0.297705959976     1.007825032230

  Basis Set: AUG-CC-PVTZ
    Blend: AUG-CC-PVTZ
  Basis Set: (AUG-CC-PVTZ AUX)
    Blend: AUG-CC-PVTZ-JKFIT
	 Reference Energy          =    -458.6467164032657706 [Eh]
	 Singles Energy            =      -0.0000000000000000 [Eh]
	 Same-Spin Energy          =      -0.4829614786168290 [Eh]
	 Opposite-Spin Energy      =      -1.5084850562761123 [Eh]
	 Correlation Energy        =      -1.9914465348929413 [Eh]
	 Total Energy              =    -460.6381629381587004 [Eh]

	 ================> DF-SCS-MP2 Energies <==================
	-----------------------------------------------------------
	 SCS Same-Spin Scale       =       0.3333333333333333 [-]
	 SCS Opposite-Spin Scale   =       1.2000000000000000 [-]
	 SCS Same-Spin Energy      =      -0.1609871595389430 [Eh]
	 SCS Opposite-Spin Energy  =      -1.8101820675313347 [Eh]
	 SCS Correlation Energy    =      -1.9711692270702776 [Eh]
	 SCS Total Energy          =    -460.6178856303360476 [Eh]
	-----------------------------------------------------------

  Dipole Moment: [D]
     X:    -0.5235      Y:     1.3213      Z:     0.0158     Total:     1.4213

*** Psi4 exiting successfully. Buy a developer a beer!
