                               Psi4 1.4a3.dev225

  ==> Input File <==

--------------------------------------------------------------------------
#psi4
#
memory 32 gb

molecule  {
0 1
  O       -1.8116000     2.3801270     0.1363720
  O       -1.7799440    -2.3994320     0.1189850
  C        0.9489570    -0.0306590    -0.3689570
  C        2.4429910    -0.0568610    -0.5708560
  C        0.2354480    -1.2220220    -0.2373930
  C        0.2798030     1.1938580    -0.2383990
  C        3.1984060    -0.0265600     0.7613490
  C       -1.0724799     1.2136509     0.0044364
  C       -1.1396310    -1.1871160     0.0102260
  C       -1.8132500     0.0254130     0.1385790
  H        2.7180680    -0.9584190    -1.1301260
  H        2.7446220     0.7994920    -1.1857830
  H        0.7258350    -2.1872220    -0.3369480
  H        0.8309290     2.1284970    -0.3452230
  H        2.9508560     0.8787730     1.3230630
  H        4.2811760    -0.0477390     0.6027570
  H        2.9230980    -0.8883860     1.3756490
  H       -2.8837580     0.0741080     0.3259950
  H       -1.1979550     3.1274200     0.0245130
  H       -2.7238770    -2.2320380     0.2881370
units angstrom
no_reorient  #important for SAPT in psi4, default
symmetry c1  #important for SAPT in psi4, default
}

set PROPERTIES_ORIGIN ["COM"]
properties('MP2/aug-cc-pvtz', properties = ['dipole'])
--------------------------------------------------------------------------

    Molecular point group: c1
  Charge       = 0
  Multiplicity = 1
  Basis Set: AUG-CC-PVTZ
    Blend: AUG-CC-PVTZ
  Basis Set: (AUG-CC-PVTZ AUX)
    Blend: AUG-CC-PVTZ-JKFIT

    Orbital Energies [Eh]
    ---------------------

    Doubly Occupied:

       1A    -20.594067     2A    -20.593201     3A    -11.309890
       4A    -11.309005     5A    -11.253065     6A    -11.233128
       7A    -11.225483     8A    -11.222414     9A    -11.220334
      10A    -11.217841    11A     -1.401954    12A     -1.397928
      13A     -1.151316    14A     -1.063147    15A     -1.004202
      16A     -0.987387    17A     -0.877560    18A     -0.833845
      19A     -0.808038    20A     -0.738795    21A     -0.687333
      22A     -0.670935    23A     -0.665522    24A     -0.611878
      25A     -0.601338    26A     -0.594954    27A     -0.586860
      28A     -0.574241    29A     -0.553416    30A     -0.550176
      31A     -0.523818    32A     -0.521097    33A     -0.488807
      34A     -0.484366    35A     -0.454667    36A     -0.324883
      37A     -0.314476

  @DF-RHF Final Energy:  -458.65889350785562

   => Energetics <=

    Nuclear Repulsion Energy =            507.1692463580574213
    One-Electron Energy =               -1630.3535494317668508
    Two-Electron Energy =                 664.5254095658539200
    Total Energy =                       -458.6588935078556233
  Basis Set: (AUG-CC-PVTZ AUX)
    Blend: AUG-CC-PVTZ-RI
    Molecular point group: c1

    Geometry (in Angstrom), charge = 0, multiplicity = 1:

       Center              X                  Y                   Z               Mass
    ------------   -----------------  -----------------  -----------------  -----------------
         O           -1.738930207300     2.385142023412     0.143458042945    15.994914619570
         O           -1.707274207300    -2.394416976588     0.126071042945    15.994914619570
         C            1.021626792700    -0.025643976588    -0.361870957055    12.000000000000
         C            2.515660792700    -0.051845976588    -0.563769957055    12.000000000000
         C            0.308117792700    -1.217006976588    -0.230306957055    12.000000000000
         C            0.352472792700     1.198873023412    -0.231312957055    12.000000000000
         C            3.271075792700    -0.021544976588     0.768435042945    12.000000000000
         C           -0.999810107300     1.218665923412     0.011522442945    12.000000000000
         C           -1.066961207300    -1.182100976588     0.017312042945    12.000000000000
         C           -1.740580207300     0.030428023412     0.145665042945    12.000000000000
         H            2.790737792700    -0.953403976588    -1.123039957055     1.007825032230
         H            2.817291792700     0.804507023412    -1.178696957055     1.007825032230
         H            0.798504792700    -2.182206976588    -0.329861957055     1.007825032230
         H            0.903598792700     2.133512023412    -0.338136957055     1.007825032230
         H            3.023525792700     0.883788023412     1.330149042945     1.007825032230
         H            4.353845792700    -0.042723976588     0.609843042945     1.007825032230
         H            2.995767792700    -0.883370976588     1.382735042945     1.007825032230
         H           -2.811088207300     0.079123023412     0.333081042945     1.007825032230
         H           -1.125285207300     3.132435023412     0.031599042945     1.007825032230
         H           -2.651207207300    -2.227022976588     0.295223042945     1.007825032230

  Basis Set: AUG-CC-PVTZ
    Blend: AUG-CC-PVTZ
  Basis Set: (AUG-CC-PVTZ AUX)
    Blend: AUG-CC-PVTZ-JKFIT
	 Reference Energy          =    -458.6588935078556233 [Eh]
	 Singles Energy            =      -0.0000000000000000 [Eh]
	 Same-Spin Energy          =      -0.4817503756758300 [Eh]
	 Opposite-Spin Energy      =      -1.5057337901250702 [Eh]
	 Correlation Energy        =      -1.9874841658009004 [Eh]
	 Total Energy              =    -460.6463776736565023 [Eh]

	 ================> DF-SCS-MP2 Energies <==================
	-----------------------------------------------------------
	 SCS Same-Spin Scale       =       0.3333333333333333 [-]
	 SCS Opposite-Spin Scale   =       1.2000000000000000 [-]
	 SCS Same-Spin Energy      =      -0.1605834585586100 [Eh]
	 SCS Opposite-Spin Energy  =      -1.8068805481500843 [Eh]
	 SCS Correlation Energy    =      -1.9674640067086941 [Eh]
	 SCS Total Energy          =    -460.6263575145642903 [Eh]
	-----------------------------------------------------------

  Dipole Moment: [D]
     X:     0.5839      Y:     1.1670      Z:    -0.0260     Total:     1.3052

*** Psi4 exiting successfully. Buy a developer a beer!
