                               Psi4 1.3.2 release

  ==> Input File <==

--------------------------------------------------------------------------
#psi4
#
memory 32 gb

molecule  {
0 1
  O        1.7627890     2.3683800    -0.1458810
  O        1.6754140    -2.4069960    -0.1279020
  C       -1.0215720    -0.0077180     0.3641480
  C       -2.5139530    -0.0194410     0.5634370
  C       -0.3230660    -1.2073880     0.2343750
  C       -0.3370590     1.2052280     0.2348720
  C       -3.2735700    -0.0197480    -0.7643280
  C        1.0748357     1.1855760    -0.0256647
  C        1.0480560    -1.1910380    -0.0190010
  C        1.7368580     0.0147850    -0.1457440
  H       -2.7927850    -0.9030380     1.1483340
  H       -2.8082890     0.8538600     1.1573130
  H       -0.8312370    -2.1635460     0.3309200
  H       -0.8789600     2.1456520     0.3351900
  H       -3.0230990     0.8672620    -1.3527740
  H       -4.3574070    -0.0294260    -0.6053230
  H       -3.0076490    -0.8981260    -1.3586750
  H        2.8074370     0.0467670    -0.3362510
  H        1.1853294     3.1433023    -0.0347010
  H        2.6215300    -2.2543830    -0.2976190
units angstrom
no_reorient  #important for SAPT in psi4, default
symmetry c1  #important for SAPT in psi4, default
}

set PROPERTIES_ORIGIN ["COM"]
properties('MP2/aug-cc-pvtz', properties = ['dipole'])
--------------------------------------------------------------------------

    Molecular point group: c1
  Charge       = 0
  Multiplicity = 1
  Basis Set: AUG-CC-PVTZ
    Blend: AUG-CC-PVTZ
  Basis Set: (AUG-CC-PVTZ AUX)
    Blend: AUG-CC-PVTZ-JKFIT

    Orbital Energies [Eh]
    ---------------------

    Doubly Occupied:

       1A    -20.594493     2A    -20.593170     3A    -11.310750
       4A    -11.310173     5A    -11.249773     6A    -11.231130
       7A    -11.224756     8A    -11.221631     9A    -11.219011
      10A    -11.214847    11A     -1.404262    12A     -1.400751
      13A     -1.150144    14A     -1.067692    15A     -0.998985
      16A     -0.987542    17A     -0.874340    18A     -0.840381
      19A     -0.807066    20A     -0.737564    21A     -0.691721
      22A     -0.678675    23A     -0.665517    24A     -0.610225
      25A     -0.601508    26A     -0.595324    27A     -0.586243
      28A     -0.575842    29A     -0.552536    30A     -0.546154
      31A     -0.526446    32A     -0.520027    33A     -0.486994
      34A     -0.477796    35A     -0.453541    36A     -0.331729
      37A     -0.306062

  @DF-RHF Final Energy:  -458.65713520836516

   => Energetics <=

    Nuclear Repulsion Energy =            507.4431859475016608
    One-Electron Energy =               -1630.9110348172594058
    Two-Electron Energy =                 664.8107136613925832
    Total Energy =                       -458.6571352083651618
  Basis Set: (AUG-CC-PVTZ AUX)
    Blend: AUG-CC-PVTZ-RI
    Molecular point group: c1

    Geometry (in Angstrom), charge = 0, multiplicity = 1:

       Center              X                  Y                   Z               Mass
    ------------   -----------------  -----------------  -----------------  -----------------
         O            1.759107854184     2.370407537141    -0.145189156869    15.994914619570
         O            1.671732854184    -2.404968462859    -0.127210156869    15.994914619570
         C           -1.025253145816    -0.005690462859     0.364839843131    12.000000000000
         C           -2.517634145816    -0.017413462859     0.564128843131    12.000000000000
         C           -0.326747145816    -1.205360462859     0.235066843131    12.000000000000
         C           -0.340740145816     1.207255537141     0.235563843131    12.000000000000
         C           -3.277251145816    -0.017720462859    -0.763636156869    12.000000000000
         C            1.071154554184     1.187603537141    -0.024972856869    12.000000000000
         C            1.044374854184    -1.189010462859    -0.018309156869    12.000000000000
         C            1.733176854184     0.016812537141    -0.145052156869    12.000000000000
         H           -2.796466145816    -0.901010462859     1.149025843131     1.007825032230
         H           -2.811970145816     0.855887537141     1.158004843131     1.007825032230
         H           -0.834918145816    -2.161518462859     0.331611843131     1.007825032230
         H           -0.882641145816     2.147679537141     0.335881843131     1.007825032230
         H           -3.026780145816     0.869289537141    -1.352082156869     1.007825032230
         H           -4.361088145816    -0.027398462859    -0.604631156869     1.007825032230
         H           -3.011330145816    -0.896098462859    -1.357983156869     1.007825032230
         H            2.803755854184     0.048794537141    -0.335559156869     1.007825032230
         H            1.181648254184     3.145329837141    -0.034009156869     1.007825032230
         H            2.617848854184    -2.252355462859    -0.296927156869     1.007825032230

  Basis Set: AUG-CC-PVTZ
    Blend: AUG-CC-PVTZ
  Basis Set: (AUG-CC-PVTZ AUX)
    Blend: AUG-CC-PVTZ-JKFIT
	 Reference Energy          =    -458.6571352083651618 [Eh]
	 Singles Energy            =      -0.0000000000000000 [Eh]
	 Same-Spin Energy          =      -0.4815417872112758 [Eh]
	 Opposite-Spin Energy      =      -1.5049100947016116 [Eh]
	 Correlation Energy        =      -1.9864518819128874 [Eh]
	 Total Energy              =    -460.6435870902780607 [Eh]

	 ================> DF-SCS-MP2 Energies <==================
	-----------------------------------------------------------
	 SCS Same-Spin Scale       =       0.3333333333333333 [-]
	 SCS Opposite-Spin Scale   =       1.2000000000000000 [-]
	 SCS Same-Spin Energy      =      -0.1605139290704253 [Eh]
	 SCS Opposite-Spin Energy  =      -1.8058921136419339 [Eh]
	 SCS Correlation Energy    =      -1.9664060427123591 [Eh]
	 SCS Total Energy          =    -460.6235412510775404 [Eh]
	-----------------------------------------------------------

  Dipole Moment: [D]
     X:    -0.4181      Y:     1.2365      Z:    -0.0037     Total:     1.3052

*** Psi4 exiting successfully. Buy a developer a beer!
