                               Psi4 1.4a3.dev225

  ==> Input File <==

--------------------------------------------------------------------------
#psi4
#
memory 32 gb

molecule  {
0 1
  O       -1.8116000     2.3801270     0.1363720
  O       -1.7799440    -2.3994320     0.1189850
  C        0.9489570    -0.0306590    -0.3689570
  C        2.4429910    -0.0568610    -0.5708560
  C        0.2354480    -1.2220220    -0.2373930
  C        0.2893520     1.1763839    -0.2402621
  C        3.1984060    -0.0265600     0.7613490
  C       -1.0921630     1.2139390     0.0079710
  C       -1.1396310    -1.1871160     0.0102260
  C       -1.8132500     0.0254130     0.1385790
  H        2.7180680    -0.9584190    -1.1301260
  H        2.7446220     0.7994920    -1.1857830
  H        0.7258350    -2.1872220    -0.3369480
  H        0.8309290     2.1284970    -0.3452230
  H        2.9508560     0.8787730     1.3230630
  H        4.2811760    -0.0477390     0.6027570
  H        2.9230980    -0.8883860     1.3756490
  H       -2.8837580     0.0741080     0.3259950
  H       -1.1979550     3.1274200     0.0245130
  H       -2.7238770    -2.2320380     0.2881370
units angstrom
no_reorient  #important for SAPT in psi4, default
symmetry c1  #important for SAPT in psi4, default
}

set PROPERTIES_ORIGIN ["COM"]
properties('MP2/aug-cc-pvtz', properties = ['dipole'])
--------------------------------------------------------------------------

    Molecular point group: c1
  Charge       = 0
  Multiplicity = 1
  Basis Set: AUG-CC-PVTZ
    Blend: AUG-CC-PVTZ
  Basis Set: (AUG-CC-PVTZ AUX)
    Blend: AUG-CC-PVTZ-JKFIT

    Orbital Energies [Eh]
    ---------------------

    Doubly Occupied:

       1A    -20.597323     2A    -20.593035     3A    -11.312558
       4A    -11.308736     5A    -11.249718     6A    -11.232238
       7A    -11.224780     8A    -11.223873     9A    -11.219633
      10A    -11.216181    11A     -1.404987    12A     -1.400701
      13A     -1.151315    14A     -1.063769    15A     -0.999773
      16A     -0.988792    17A     -0.875420    18A     -0.836634
      19A     -0.807806    20A     -0.740514    21A     -0.686686
      22A     -0.674555    23A     -0.664028    24A     -0.612040
      25A     -0.602199    26A     -0.595314    27A     -0.587024
      28A     -0.575960    29A     -0.554339    30A     -0.548462
      31A     -0.521886    32A     -0.521819    33A     -0.488466
      34A     -0.481793    35A     -0.454693    36A     -0.327793
      37A     -0.310102

  @DF-RHF Final Energy:  -458.65904812885475

   => Energetics <=

    Nuclear Repulsion Energy =            507.2726765889389640
    One-Electron Energy =               -1630.5535587265555932
    Two-Electron Energy =                 664.6218340087618799
    Total Energy =                       -458.6590481288546925
  Basis Set: (AUG-CC-PVTZ AUX)
    Blend: AUG-CC-PVTZ-RI
    Molecular point group: c1

    Geometry (in Angstrom), charge = 0, multiplicity = 1:

       Center              X                  Y                   Z               Mass
    ------------   -----------------  -----------------  -----------------  -----------------
         O           -1.738049415734     2.386635721308     0.143312766788    15.994914619570
         O           -1.706393415734    -2.392923278692     0.125925766788    15.994914619570
         C            1.022507584266    -0.024150278692    -0.362016233212    12.000000000000
         C            2.516541584266    -0.050352278692    -0.563915233212    12.000000000000
         C            0.308998584266    -1.215513278692    -0.230452233212    12.000000000000
         C            0.362902584266     1.182892621308    -0.233321333212    12.000000000000
         C            3.271956584266    -0.020051278692     0.768289766788    12.000000000000
         C           -1.018612415734     1.220447721308     0.014911766788    12.000000000000
         C           -1.066080415734    -1.180607278692     0.017166766788    12.000000000000
         C           -1.739699415734     0.031921721308     0.145519766788    12.000000000000
         H            2.791618584266    -0.951910278692    -1.123185233212     1.007825032230
         H            2.818172584266     0.806000721308    -1.178842233212     1.007825032230
         H            0.799385584266    -2.180713278692    -0.330007233212     1.007825032230
         H            0.904479584266     2.135005721308    -0.338282233212     1.007825032230
         H            3.024406584266     0.885281721308     1.330003766788     1.007825032230
         H            4.354726584266    -0.041230278692     0.609697766788     1.007825032230
         H            2.996648584266    -0.881877278692     1.382589766788     1.007825032230
         H           -2.810207415734     0.080616721308     0.332935766788     1.007825032230
         H           -1.124404415734     3.133928721308     0.031453766788     1.007825032230
         H           -2.650326415734    -2.225529278692     0.295077766788     1.007825032230

  Basis Set: AUG-CC-PVTZ
    Blend: AUG-CC-PVTZ
  Basis Set: (AUG-CC-PVTZ AUX)
    Blend: AUG-CC-PVTZ-JKFIT
	 Reference Energy          =    -458.6590481288547494 [Eh]
	 Singles Energy            =      -0.0000000000000000 [Eh]
	 Same-Spin Energy          =      -0.4818461751004749 [Eh]
	 Opposite-Spin Energy      =      -1.5056106156692610 [Eh]
	 Correlation Energy        =      -1.9874567907697358 [Eh]
	 Total Energy              =    -460.6465049196244763 [Eh]

	 ================> DF-SCS-MP2 Energies <==================
	-----------------------------------------------------------
	 SCS Same-Spin Scale       =       0.3333333333333333 [-]
	 SCS Opposite-Spin Scale   =       1.2000000000000000 [-]
	 SCS Same-Spin Energy      =      -0.1606153917001583 [Eh]
	 SCS Opposite-Spin Energy  =      -1.8067327388031131 [Eh]
	 SCS Correlation Energy    =      -1.9673481305032714 [Eh]
	 SCS Total Energy          =    -460.6263962593580459 [Eh]
	-----------------------------------------------------------

  Dipole Moment: [D]
     X:     0.5096      Y:     1.2547      Z:    -0.0148     Total:     1.3543

*** Psi4 exiting successfully. Buy a developer a beer!
