                               Psi4 1.3.2 release

  ==> Input File <==

--------------------------------------------------------------------------
#psi4
#
memory 32 gb

molecule  {
0 1
  O        1.7627890     2.3683800    -0.1458810
  O        1.6754140    -2.4069960    -0.1279020
  C       -1.0215720    -0.0077180     0.3641480
  C       -2.5136653     0.0330864     0.5617515
  C       -0.3230660    -1.2073880     0.2343750
  C       -0.3795560     1.2287532     0.2397988
  C       -3.2735700    -0.0197480    -0.7643280
  C        1.0346870     1.2106680    -0.0181020
  C        1.0480560    -1.1910380    -0.0190010
  C        1.7368580     0.0147850    -0.1457440
  H       -2.7927850    -0.9030380     1.1483340
  H       -2.8082890     0.8538600     1.1573130
  H       -0.8312370    -2.1635460     0.3309200
  H       -0.8789600     2.1456520     0.3351900
  H       -3.0230990     0.8672620    -1.3527740
  H       -4.3574070    -0.0294260    -0.6053230
  H       -3.0076490    -0.8981260    -1.3586750
  H        2.8074370     0.0467670    -0.3362510
  H        1.1590650     3.1223080    -0.0299710
  H        2.6215300    -2.2543830    -0.2976190
units angstrom
no_reorient  #important for SAPT in psi4, default
symmetry c1  #important for SAPT in psi4, default
}

set PROPERTIES_ORIGIN ["COM"]
properties('MP2/aug-cc-pvtz', properties = ['dipole'])
--------------------------------------------------------------------------

    Molecular point group: c1
  Charge       = 0
  Multiplicity = 1
  Basis Set: AUG-CC-PVTZ
    Blend: AUG-CC-PVTZ
  Basis Set: (AUG-CC-PVTZ AUX)
    Blend: AUG-CC-PVTZ-JKFIT

    Orbital Energies [Eh]
    ---------------------

    Doubly Occupied:

       1A    -20.596732     2A    -20.594537     3A    -11.315937
       4A    -11.310593     5A    -11.251592     6A    -11.230816
       7A    -11.224513     8A    -11.222667     9A    -11.219057
      10A    -11.215746    11A     -1.406063    12A     -1.402867
      13A     -1.147435    14A     -1.063745    15A     -0.998246
      16A     -0.987902    17A     -0.874502    18A     -0.840182
      19A     -0.807179    20A     -0.735776    21A     -0.690747
      22A     -0.675879    23A     -0.671161    24A     -0.608391
      25A     -0.603191    26A     -0.597712    27A     -0.586081
      28A     -0.576718    29A     -0.556186    30A     -0.549477
      31A     -0.529358    32A     -0.521422    33A     -0.490699
      34A     -0.470909    35A     -0.451192    36A     -0.327718
      37A     -0.307704

  @DF-RHF Final Energy:  -458.65349761332789

   => Energetics <=

    Nuclear Repulsion Energy =            506.8588190557566691
    One-Electron Energy =               -1629.7033726388622199
    Two-Electron Energy =                 664.1910559697777217
    Total Energy =                       -458.6534976133278860
  Basis Set: (AUG-CC-PVTZ AUX)
    Blend: AUG-CC-PVTZ-RI
    Molecular point group: c1

    Geometry (in Angstrom), charge = 0, multiplicity = 1:

       Center              X                  Y                   Z               Mass
    ------------   -----------------  -----------------  -----------------  -----------------
         O            1.766457604561     2.361769938771    -0.146162698421    15.994914619570
         O            1.679082604561    -2.413606061229    -0.128183698421    15.994914619570
         C           -1.017903395439    -0.014328061229     0.363866301579    12.000000000000
         C           -2.509996695439     0.026476338771     0.561469801579    12.000000000000
         C           -0.319397395439    -1.213998061229     0.234093301579    12.000000000000
         C           -0.375887395439     1.222143138771     0.239517101579    12.000000000000
         C           -3.269901395439    -0.026358061229    -0.764609698421    12.000000000000
         C            1.038355604561     1.204057938771    -0.018383698421    12.000000000000
         C            1.051724604561    -1.197648061229    -0.019282698421    12.000000000000
         C            1.740526604561     0.008174938771    -0.146025698421    12.000000000000
         H           -2.789116395439    -0.909648061229     1.148052301579     1.007825032230
         H           -2.804620395439     0.847249938771     1.157031301579     1.007825032230
         H           -0.827568395439    -2.170156061229     0.330638301579     1.007825032230
         H           -0.875291395439     2.139041938771     0.334908301579     1.007825032230
         H           -3.019430395439     0.860651938771    -1.353055698421     1.007825032230
         H           -4.353738395439    -0.036036061229    -0.605604698421     1.007825032230
         H           -3.003980395439    -0.904736061229    -1.358956698421     1.007825032230
         H            2.811105604561     0.040156938771    -0.336532698421     1.007825032230
         H            1.162733604561     3.115697938771    -0.030252698421     1.007825032230
         H            2.625198604561    -2.260993061229    -0.297900698421     1.007825032230

  Basis Set: AUG-CC-PVTZ
    Blend: AUG-CC-PVTZ
  Basis Set: (AUG-CC-PVTZ AUX)
    Blend: AUG-CC-PVTZ-JKFIT
	 Reference Energy          =    -458.6534976133278860 [Eh]
	 Singles Energy            =      -0.0000000000000000 [Eh]
	 Same-Spin Energy          =      -0.4816808374727172 [Eh]
	 Opposite-Spin Energy      =      -1.5055736543832228 [Eh]
	 Correlation Energy        =      -1.9872544918559401 [Eh]
	 Total Energy              =    -460.6407521051838216 [Eh]

	 ================> DF-SCS-MP2 Energies <==================
	-----------------------------------------------------------
	 SCS Same-Spin Scale       =       0.3333333333333333 [-]
	 SCS Opposite-Spin Scale   =       1.2000000000000000 [-]
	 SCS Same-Spin Energy      =      -0.1605602791575724 [Eh]
	 SCS Opposite-Spin Energy  =      -1.8066883852598672 [Eh]
	 SCS Correlation Energy    =      -1.9672486644174396 [Eh]
	 SCS Total Energy          =    -460.6207462777452974 [Eh]
	-----------------------------------------------------------

  Dipole Moment: [D]
     X:    -0.4235      Y:     1.2915      Z:    -0.0005     Total:     1.3592

*** Psi4 exiting successfully. Buy a developer a beer!
