                               Psi4 1.3.2 release

  ==> Input File <==

--------------------------------------------------------------------------
#psi4
#
memory 32 gb

molecule  {
0 1
  O        1.7627890     2.3683800    -0.1458810
  O        1.6754140    -2.4069960    -0.1279020
  C       -1.0215720    -0.0077180     0.3641480
  C       -2.5124225    -0.0719542     0.5648797
  C       -0.3230660    -1.2073880     0.2343750
  C       -0.2953960     1.1802250     0.2301027
  C       -3.2735700    -0.0197480    -0.7643280
  C        1.0346870     1.2106680    -0.0181020
  C        1.0480560    -1.1910380    -0.0190010
  C        1.7368580     0.0147850    -0.1457440
  H       -2.7927850    -0.9030380     1.1483340
  H       -2.8082890     0.8538600     1.1573130
  H       -0.8312370    -2.1635460     0.3309200
  H       -0.8789600     2.1456520     0.3351900
  H       -3.0230990     0.8672620    -1.3527740
  H       -4.3574070    -0.0294260    -0.6053230
  H       -3.0076490    -0.8981260    -1.3586750
  H        2.8074370     0.0467670    -0.3362510
  H        1.1590650     3.1223080    -0.0299710
  H        2.6215300    -2.2543830    -0.2976190
units angstrom
no_reorient  #important for SAPT in psi4, default
symmetry c1  #important for SAPT in psi4, default
}

set PROPERTIES_ORIGIN ["COM"]
properties('MP2/aug-cc-pvtz', properties = ['dipole'])
--------------------------------------------------------------------------

    Molecular point group: c1
  Charge       = 0
  Multiplicity = 1
  Basis Set: AUG-CC-PVTZ
    Blend: AUG-CC-PVTZ
  Basis Set: (AUG-CC-PVTZ AUX)
    Blend: AUG-CC-PVTZ-JKFIT

    Orbital Energies [Eh]
    ---------------------

    Doubly Occupied:

       1A    -20.594791     2A    -20.592290     3A    -11.307216
       4A    -11.304859     5A    -11.251900     6A    -11.234362
       7A    -11.223575     8A    -11.223235     9A    -11.220938
      10A    -11.216407    11A     -1.404819    12A     -1.401009
      13A     -1.154258    14A     -1.065139    15A     -1.004984
      16A     -0.988079    17A     -0.879230    18A     -0.833699
      19A     -0.810772    20A     -0.744290    21A     -0.686059
      22A     -0.674832    23A     -0.660430    24A     -0.617729
      25A     -0.602771    26A     -0.591509    27A     -0.588939
      28A     -0.576347    29A     -0.551479    30A     -0.548992
      31A     -0.525349    32A     -0.513719    33A     -0.494518
      34A     -0.478659    35A     -0.455572    36A     -0.324319
      37A     -0.315398

  @DF-RHF Final Energy:  -458.65365560492364

   => Energetics <=

    Nuclear Repulsion Energy =            508.1974887757098713
    One-Electron Energy =               -1632.3773396917833907
    Two-Electron Energy =                 665.5261953111498769
    Total Energy =                       -458.6536556049236424
  Basis Set: (AUG-CC-PVTZ AUX)
    Blend: AUG-CC-PVTZ-RI
    Molecular point group: c1

    Geometry (in Angstrom), charge = 0, multiplicity = 1:

       Center              X                  Y                   Z               Mass
    ------------   -----------------  -----------------  -----------------  -----------------
         O            1.759034935953     2.375117162878    -0.145591858294    15.994914619570
         O            1.671659935953    -2.400258837122    -0.127612858294    15.994914619570
         C           -1.025326064047    -0.000980837122     0.364437141706    12.000000000000
         C           -2.516176564047    -0.065217037122     0.565168841706    12.000000000000
         C           -0.326820064047    -1.200650837122     0.234664141706    12.000000000000
         C           -0.299150064047     1.186962162878     0.230391841706    12.000000000000
         C           -3.277324064047    -0.013010837122    -0.764038858294    12.000000000000
         C            1.030932935953     1.217405162878    -0.017812858294    12.000000000000
         C            1.044301935953    -1.184300837122    -0.018711858294    12.000000000000
         C            1.733103935953     0.021522162878    -0.145454858294    12.000000000000
         H           -2.796539064047    -0.896300837122     1.148623141706     1.007825032230
         H           -2.812043064047     0.860597162878     1.157602141706     1.007825032230
         H           -0.834991064047    -2.156808837122     0.331209141706     1.007825032230
         H           -0.882714064047     2.152389162878     0.335479141706     1.007825032230
         H           -3.026853064047     0.873999162878    -1.352484858294     1.007825032230
         H           -4.361161064047    -0.022688837122    -0.605033858294     1.007825032230
         H           -3.011403064047    -0.891388837122    -1.358385858294     1.007825032230
         H            2.803682935953     0.053504162878    -0.335961858294     1.007825032230
         H            1.155310935953     3.129045162878    -0.029681858294     1.007825032230
         H            2.617775935953    -2.247645837122    -0.297329858294     1.007825032230

  Basis Set: AUG-CC-PVTZ
    Blend: AUG-CC-PVTZ
  Basis Set: (AUG-CC-PVTZ AUX)
    Blend: AUG-CC-PVTZ-JKFIT
	 Reference Energy          =    -458.6536556049236424 [Eh]
	 Singles Energy            =      -0.0000000000000000 [Eh]
	 Same-Spin Energy          =      -0.4819850240647835 [Eh]
	 Opposite-Spin Energy      =      -1.5055471192578818 [Eh]
	 Correlation Energy        =      -1.9875321433226651 [Eh]
	 Total Energy              =    -460.6411877482462955 [Eh]

	 ================> DF-SCS-MP2 Energies <==================
	-----------------------------------------------------------
	 SCS Same-Spin Scale       =       0.3333333333333333 [-]
	 SCS Opposite-Spin Scale   =       1.2000000000000000 [-]
	 SCS Same-Spin Energy      =      -0.1606616746882611 [Eh]
	 SCS Opposite-Spin Energy  =      -1.8066565431094581 [Eh]
	 SCS Correlation Energy    =      -1.9673182177977193 [Eh]
	 SCS Total Energy          =    -460.6209738227213393 [Eh]
	-----------------------------------------------------------

  Dipole Moment: [D]
     X:    -0.5613      Y:     1.1412      Z:     0.0079     Total:     1.2718

*** Psi4 exiting successfully. Buy a developer a beer!
