                               Psi4 1.3.2 release

  ==> Input File <==

--------------------------------------------------------------------------
#psi4
#
memory 32 gb

molecule  {
0 1
  O        1.7627890     2.3683800    -0.1458810
  O        1.6754140    -2.4069960    -0.1279020
  C       -1.0215720    -0.0077180     0.3641480
  C       -2.5139530    -0.0194410     0.5634370
  C       -0.3230660    -1.2073880     0.2343750
  C       -0.2881216     1.2919443     0.2256298
  C       -3.2735700    -0.0197480    -0.7643280
  C        1.0346870     1.2106680    -0.0181020
  C        1.0480560    -1.1910380    -0.0190010
  C        1.7368580     0.0147850    -0.1457440
  H       -2.7927850    -0.9030380     1.1483340
  H       -2.8082890     0.8538600     1.1573130
  H       -0.8312370    -2.1635460     0.3309200
  H       -0.8789600     2.1456520     0.3351900
  H       -3.0230990     0.8672620    -1.3527740
  H       -4.3574070    -0.0294260    -0.6053230
  H       -3.0076490    -0.8981260    -1.3586750
  H        2.8074370     0.0467670    -0.3362510
  H        1.1590650     3.1223080    -0.0299710
  H        2.6215300    -2.2543830    -0.2976190
units angstrom
no_reorient  #important for SAPT in psi4, default
symmetry c1  #important for SAPT in psi4, default
}

set PROPERTIES_ORIGIN ["COM"]
properties('MP2/aug-cc-pvtz', properties = ['dipole'])
--------------------------------------------------------------------------

    Molecular point group: c1
  Charge       = 0
  Multiplicity = 1
  Basis Set: AUG-CC-PVTZ
    Blend: AUG-CC-PVTZ
  Basis Set: (AUG-CC-PVTZ AUX)
    Blend: AUG-CC-PVTZ-JKFIT

    Orbital Energies [Eh]
    ---------------------

    Doubly Occupied:

       1A    -20.595207     2A    -20.587387     3A    -11.311592
       4A    -11.303685     5A    -11.262591     6A    -11.234041
       7A    -11.223034     8A    -11.221040     9A    -11.220442
      10A    -11.219308    11A     -1.404731    12A     -1.400070
      13A     -1.144128    14A     -1.063535    15A     -1.007613
      16A     -0.983920    17A     -0.881044    18A     -0.835271
      19A     -0.806402    20A     -0.734245    21A     -0.689548
      22A     -0.675136    23A     -0.673160    24A     -0.610646
      25A     -0.602721    26A     -0.596119    27A     -0.588094
      28A     -0.575678    29A     -0.553166    30A     -0.546104
      31A     -0.530591    32A     -0.519177    33A     -0.489580
      34A     -0.478009    35A     -0.449818    36A     -0.322365
      37A     -0.314664

  @DF-RHF Final Energy:  -458.64942222263232

   => Energetics <=

    Nuclear Repulsion Energy =            506.6645628776374224
    One-Electron Energy =               -1629.3202411757031314
    Two-Electron Energy =                 664.0062560754332708
    Total Energy =                       -458.6494222226323245
  Basis Set: (AUG-CC-PVTZ AUX)
    Blend: AUG-CC-PVTZ-RI
    Molecular point group: c1

    Geometry (in Angstrom), charge = 0, multiplicity = 1:

       Center              X                  Y                   Z               Mass
    ------------   -----------------  -----------------  -----------------  -----------------
         O            1.758535712669     2.360843117739    -0.145077711938    15.994914619570
         O            1.671160712669    -2.414532882261    -0.127098711938    15.994914619570
         C           -1.025825287331    -0.015254882261     0.364951288062    12.000000000000
         C           -2.518206287331    -0.026977882261     0.564240288062    12.000000000000
         C           -0.327319287331    -1.214924882261     0.235178288062    12.000000000000
         C           -0.292374887331     1.284407417739     0.226433088062    12.000000000000
         C           -3.277823287331    -0.027284882261    -0.763524711938    12.000000000000
         C            1.030433712669     1.203131117739    -0.017298711938    12.000000000000
         C            1.043802712669    -1.198574882261    -0.018197711938    12.000000000000
         C            1.732604712669     0.007248117739    -0.144940711938    12.000000000000
         H           -2.797038287331    -0.910574882261     1.149137288062     1.007825032230
         H           -2.812542287331     0.846323117739     1.158116288062     1.007825032230
         H           -0.835490287331    -2.171082882261     0.331723288062     1.007825032230
         H           -0.883213287331     2.138115117739     0.335993288062     1.007825032230
         H           -3.027352287331     0.859725117739    -1.351970711938     1.007825032230
         H           -4.361660287331    -0.036962882261    -0.604519711938     1.007825032230
         H           -3.011902287331    -0.905662882261    -1.357871711938     1.007825032230
         H            2.803183712669     0.039230117739    -0.335447711938     1.007825032230
         H            1.154811712669     3.114771117739    -0.029167711938     1.007825032230
         H            2.617276712669    -2.261919882261    -0.296815711938     1.007825032230

  Basis Set: AUG-CC-PVTZ
    Blend: AUG-CC-PVTZ
  Basis Set: (AUG-CC-PVTZ AUX)
    Blend: AUG-CC-PVTZ-JKFIT
	 Reference Energy          =    -458.6494222226323245 [Eh]
	 Singles Energy            =      -0.0000000000000000 [Eh]
	 Same-Spin Energy          =      -0.4811899136947713 [Eh]
	 Opposite-Spin Energy      =      -1.5052605880730687 [Eh]
	 Correlation Energy        =      -1.9864505017678400 [Eh]
	 Total Energy              =    -460.6358727244001443 [Eh]

	 ================> DF-SCS-MP2 Energies <==================
	-----------------------------------------------------------
	 SCS Same-Spin Scale       =       0.3333333333333333 [-]
	 SCS Opposite-Spin Scale   =       1.2000000000000000 [-]
	 SCS Same-Spin Energy      =      -0.1603966378982571 [Eh]
	 SCS Opposite-Spin Energy  =      -1.8063127056876824 [Eh]
	 SCS Correlation Energy    =      -1.9667093435859395 [Eh]
	 SCS Total Energy          =    -460.6161315662182574 [Eh]
	-----------------------------------------------------------

  Dipole Moment: [D]
     X:    -0.5975      Y:     1.0479      Z:     0.0225     Total:     1.2065

*** Psi4 exiting successfully. Buy a developer a beer!
