                               Psi4 1.3.2 release

  ==> Input File <==

--------------------------------------------------------------------------
#psi4
#
memory 32 gb

molecule  {
0 1
  O        1.7627890     2.3683800    -0.1458810
  O        1.6754140    -2.4069960    -0.1279020
  C       -1.0215720    -0.0077180     0.3641480
  C       -2.5139530    -0.0194410     0.5634370
  C       -0.3230660    -1.2073880     0.2343750
  C       -0.3370590     1.2052280     0.2348720
  C       -3.2735700    -0.0197480    -0.7643280
  C        1.2313689     1.2114480    -0.0543736
  C        1.0480560    -1.1910380    -0.0190010
  C        1.7368580     0.0147850    -0.1457440
  H       -2.7927850    -0.9030380     1.1483340
  H       -2.8082890     0.8538600     1.1573130
  H       -0.8312370    -2.1635460     0.3309200
  H       -0.8789600     2.1456520     0.3351900
  H       -3.0230990     0.8672620    -1.3527740
  H       -4.3574070    -0.0294260    -0.6053230
  H       -3.0076490    -0.8981260    -1.3586750
  H        2.8074370     0.0467670    -0.3362510
  H        1.1590650     3.1223080    -0.0299710
  H        2.6215300    -2.2543830    -0.2976190
units angstrom
no_reorient  #important for SAPT in psi4, default
symmetry c1  #important for SAPT in psi4, default
}

set PROPERTIES_ORIGIN ["COM"]
properties('MP2/aug-cc-pvtz', properties = ['dipole'])
--------------------------------------------------------------------------

    Molecular point group: c1
  Charge       = 0
  Multiplicity = 1
  Basis Set: AUG-CC-PVTZ
    Blend: AUG-CC-PVTZ
  Basis Set: (AUG-CC-PVTZ AUX)
    Blend: AUG-CC-PVTZ-JKFIT

    Orbital Energies [Eh]
    ---------------------

    Doubly Occupied:

       1A    -20.610856     2A    -20.594327     3A    -11.319538
       4A    -11.310404     5A    -11.243767     6A    -11.227360
       7A    -11.227240     8A    -11.215546     9A    -11.215279
      10A    -11.208194    11A     -1.455412    12A     -1.402679
      13A     -1.140334    14A     -1.070277    15A     -1.001481
      16A     -0.968335    17A     -0.865972    18A     -0.858194
      19A     -0.807540    20A     -0.746822    21A     -0.720714
      22A     -0.676416    23A     -0.662577    24A     -0.626074
      25A     -0.609143    26A     -0.596749    27A     -0.586782
      28A     -0.583442    29A     -0.552217    30A     -0.534746
      31A     -0.523951    32A     -0.509290    33A     -0.483186
      34A     -0.450018    35A     -0.446794    36A     -0.339463
      37A     -0.287015

  @DF-RHF Final Energy:  -458.61761502491197

   => Energetics <=

    Nuclear Repulsion Energy =            506.8750106841058027
    One-Electron Energy =               -1629.6289869571464806
    Two-Electron Energy =                 664.1363612481287646
    Total Energy =                       -458.6176150249119701
  Basis Set: (AUG-CC-PVTZ AUX)
    Blend: AUG-CC-PVTZ-RI
    Molecular point group: c1

    Geometry (in Angstrom), charge = 0, multiplicity = 1:

       Center              X                  Y                   Z               Mass
    ------------   -----------------  -----------------  -----------------  -----------------
         O            1.745694699702     2.368312154777    -0.142728488273    15.994914619570
         O            1.658319699702    -2.407063845223    -0.124749488273    15.994914619570
         C           -1.038666300298    -0.007785845223     0.367300511727    12.000000000000
         C           -2.531047300298    -0.019508845223     0.566589511727    12.000000000000
         C           -0.340160300298    -1.207455845223     0.237527511727    12.000000000000
         C           -0.354153300298     1.205160154777     0.238024511727    12.000000000000
         C           -3.290664300298    -0.019815845223    -0.761175488273    12.000000000000
         C            1.214274599702     1.211380154777    -0.051221088273    12.000000000000
         C            1.030961699702    -1.191105845223    -0.015848488273    12.000000000000
         C            1.719763699702     0.014717154777    -0.142591488273    12.000000000000
         H           -2.809879300298    -0.903105845223     1.151486511727     1.007825032230
         H           -2.825383300298     0.853792154777     1.160465511727     1.007825032230
         H           -0.848331300298    -2.163613845223     0.334072511727     1.007825032230
         H           -0.896054300298     2.145584154777     0.338342511727     1.007825032230
         H           -3.040193300298     0.867194154777    -1.349621488273     1.007825032230
         H           -4.374501300298    -0.029493845223    -0.602170488273     1.007825032230
         H           -3.024743300298    -0.898193845223    -1.355522488273     1.007825032230
         H            2.790342699702     0.046699154777    -0.333098488273     1.007825032230
         H            1.141970699702     3.122240154777    -0.026818488273     1.007825032230
         H            2.604435699702    -2.254450845223    -0.294466488273     1.007825032230

  Basis Set: AUG-CC-PVTZ
    Blend: AUG-CC-PVTZ
  Basis Set: (AUG-CC-PVTZ AUX)
    Blend: AUG-CC-PVTZ-JKFIT
	 Reference Energy          =    -458.6176150249119701 [Eh]
	 Singles Energy            =      -0.0000000000000000 [Eh]
	 Same-Spin Energy          =      -0.4813147344983426 [Eh]
	 Opposite-Spin Energy      =      -1.5056558310481507 [Eh]
	 Correlation Energy        =      -1.9869705655464933 [Eh]
	 Total Energy              =    -460.6045855904584414 [Eh]

	 ================> DF-SCS-MP2 Energies <==================
	-----------------------------------------------------------
	 SCS Same-Spin Scale       =       0.3333333333333333 [-]
	 SCS Opposite-Spin Scale   =       1.2000000000000000 [-]
	 SCS Same-Spin Energy      =      -0.1604382448327809 [Eh]
	 SCS Opposite-Spin Energy  =      -1.8067869972577808 [Eh]
	 SCS Correlation Energy    =      -1.9672252420905616 [Eh]
	 SCS Total Energy          =    -460.5848402670025052 [Eh]
	-----------------------------------------------------------

  Dipole Moment: [D]
     X:     0.0333      Y:     1.8079      Z:    -0.0720     Total:     1.8096

*** Psi4 exiting successfully. Buy a developer a beer!
