                               Psi4 1.4a3.dev225

  ==> Input File <==

--------------------------------------------------------------------------
#psi4
#
memory 32 gb

molecule  {
0 1
  O       -1.8116000     2.3801270     0.1363720
  O       -1.7799440    -2.3994320     0.1189850
  C        0.9489570    -0.0306590    -0.3689570
  C        2.4429910    -0.0568610    -0.5708560
  C        0.2354480    -1.2220220    -0.2373930
  C        0.2798030     1.1938580    -0.2383990
  C        3.1984060    -0.0265600     0.7613490
  C       -1.0921630     1.2139390     0.0079710
  C       -1.1888242    -1.1858672     0.0190845
  C       -1.8132500     0.0254130     0.1385790
  H        2.7180680    -0.9584190    -1.1301260
  H        2.7446220     0.7994920    -1.1857830
  H        0.7258350    -2.1872220    -0.3369480
  H        0.8309290     2.1284970    -0.3452230
  H        2.9508560     0.8787730     1.3230630
  H        4.2811760    -0.0477390     0.6027570
  H        2.9230980    -0.8883860     1.3756490
  H       -2.8837580     0.0741080     0.3259950
  H       -1.1979550     3.1274200     0.0245130
  H       -2.7238770    -2.2320380     0.2881370
units angstrom
no_reorient  #important for SAPT in psi4, default
symmetry c1  #important for SAPT in psi4, default
}

set PROPERTIES_ORIGIN ["COM"]
properties('MP2/aug-cc-pvtz', properties = ['dipole'])
--------------------------------------------------------------------------

    Molecular point group: c1
  Charge       = 0
  Multiplicity = 1
  Basis Set: AUG-CC-PVTZ
    Blend: AUG-CC-PVTZ
  Basis Set: (AUG-CC-PVTZ AUX)
    Blend: AUG-CC-PVTZ-JKFIT

    Orbital Energies [Eh]
    ---------------------

    Doubly Occupied:

       1A    -20.599897     2A    -20.595843     3A    -11.311722
       4A    -11.311291     5A    -11.249679     6A    -11.231167
       7A    -11.222550     8A    -11.221525     9A    -11.219368
      10A    -11.218633    11A     -1.415755    12A     -1.403499
      13A     -1.146408    14A     -1.064490    15A     -0.994793
      16A     -0.987221    17A     -0.873865    18A     -0.839878
      19A     -0.808387    20A     -0.740815    21A     -0.690137
      22A     -0.673123    23A     -0.663056    24A     -0.611983
      25A     -0.604053    26A     -0.597385    27A     -0.589790
      28A     -0.579904    29A     -0.551575    30A     -0.546796
      31A     -0.526360    32A     -0.519509    33A     -0.486699
      34A     -0.477964    35A     -0.452065    36A     -0.329805
      37A     -0.304638

  @DF-RHF Final Energy:  -458.65647597880093

   => Energetics <=

    Nuclear Repulsion Energy =            506.8746479231105582
    One-Electron Energy =               -1629.7389866838616399
    Two-Electron Energy =                 664.2078627819500980
    Total Energy =                       -458.6564759788009269
  Basis Set: (AUG-CC-PVTZ AUX)
    Blend: AUG-CC-PVTZ-RI
    Molecular point group: c1

    Geometry (in Angstrom), charge = 0, multiplicity = 1:

       Center              X                  Y                   Z               Mass
    ------------   -----------------  -----------------  -----------------  -----------------
         O           -1.732943917039     2.385008445831     0.142380913456    15.994914619570
         O           -1.701287917039    -2.394550554169     0.124993913456    15.994914619570
         C            1.027613082961    -0.025777554169    -0.362948086544    12.000000000000
         C            2.521647082961    -0.051979554169    -0.564847086544    12.000000000000
         C            0.314104082961    -1.217140554169    -0.231384086544    12.000000000000
         C            0.358459082961     1.198739445831    -0.232390086544    12.000000000000
         C            3.277062082961    -0.021678554169     0.767357913456    12.000000000000
         C           -1.013506917039     1.218820445831     0.013979913456    12.000000000000
         C           -1.110168117039    -1.180985754169     0.025093413456    12.000000000000
         C           -1.734593917039     0.030294445831     0.144587913456    12.000000000000
         H            2.796724082961    -0.953537554169    -1.124117086544     1.007825032230
         H            2.823278082961     0.804373445831    -1.179774086544     1.007825032230
         H            0.804491082961    -2.182340554169    -0.330939086544     1.007825032230
         H            0.909585082961     2.133378445831    -0.339214086544     1.007825032230
         H            3.029512082961     0.883654445831     1.329071913456     1.007825032230
         H            4.359832082961    -0.042857554169     0.608765913456     1.007825032230
         H            3.001754082961    -0.883504554169     1.381657913456     1.007825032230
         H           -2.805101917039     0.078989445831     0.332003913456     1.007825032230
         H           -1.119298917039     3.132301445831     0.030521913456     1.007825032230
         H           -2.645220917039    -2.227156554169     0.294145913456     1.007825032230

  Basis Set: AUG-CC-PVTZ
    Blend: AUG-CC-PVTZ
  Basis Set: (AUG-CC-PVTZ AUX)
    Blend: AUG-CC-PVTZ-JKFIT
	 Reference Energy          =    -458.6564759788009269 [Eh]
	 Singles Energy            =      -0.0000000000000000 [Eh]
	 Same-Spin Energy          =      -0.4816580362897900 [Eh]
	 Opposite-Spin Energy      =      -1.5056077994972816 [Eh]
	 Correlation Energy        =      -1.9872658357870716 [Eh]
	 Total Energy              =    -460.6437418145879974 [Eh]

	 ================> DF-SCS-MP2 Energies <==================
	-----------------------------------------------------------
	 SCS Same-Spin Scale       =       0.3333333333333333 [-]
	 SCS Opposite-Spin Scale   =       1.2000000000000000 [-]
	 SCS Same-Spin Energy      =      -0.1605526787632633 [Eh]
	 SCS Opposite-Spin Energy  =      -1.8067293593967380 [Eh]
	 SCS Correlation Energy    =      -1.9672820381600014 [Eh]
	 SCS Total Energy          =    -460.6237580169609487 [Eh]
	-----------------------------------------------------------

  Dipole Moment: [D]
     X:     0.3783      Y:     1.0817      Z:     0.0045     Total:     1.1460

*** Psi4 exiting successfully. Buy a developer a beer!
