                               Psi4 1.3.2 release

  ==> Input File <==

--------------------------------------------------------------------------
#psi4
#
memory 32 gb

molecule  {
0 1
  O        1.7627890     2.3683800    -0.1458810
  O        1.6754140    -2.4069960    -0.1279020
  C       -1.0215720    -0.0077180     0.3641480
  C       -2.5139530    -0.0194410     0.5634370
  C       -0.3230660    -1.2073880     0.2343750
  C       -0.3370590     1.2052280     0.2348720
  C       -3.2735700    -0.0197480    -0.7643280
  C        1.0346870     1.2106680    -0.0181020
  C        1.0480560    -1.1910380    -0.0190010
  C        1.7368580     0.0147850    -0.1457440
  H       -2.7418901    -0.7417560     1.0415734
  H       -2.8082890     0.8538600     1.1573130
  H       -0.8312370    -2.1635460     0.3309200
  H       -0.8789600     2.1456520     0.3351900
  H       -3.0230990     0.8672620    -1.3527740
  H       -4.3574070    -0.0294260    -0.6053230
  H       -3.0076490    -0.8981260    -1.3586750
  H        2.8074370     0.0467670    -0.3362510
  H        1.1590650     3.1223080    -0.0299710
  H        2.6215300    -2.2543830    -0.2976190
units angstrom
no_reorient  #important for SAPT in psi4, default
symmetry c1  #important for SAPT in psi4, default
}

set PROPERTIES_ORIGIN ["COM"]
properties('MP2/aug-cc-pvtz', properties = ['dipole'])
--------------------------------------------------------------------------

    Molecular point group: c1
  Charge       = 0
  Multiplicity = 1
  Basis Set: AUG-CC-PVTZ
    Blend: AUG-CC-PVTZ
  Basis Set: (AUG-CC-PVTZ AUX)
    Blend: AUG-CC-PVTZ-JKFIT

    Orbital Energies [Eh]
    ---------------------

    Doubly Occupied:

       1A    -20.595267     2A    -20.593190     3A    -11.309955
       4A    -11.308703     5A    -11.250105     6A    -11.223569
       7A    -11.221630     8A    -11.218413     9A    -11.215935
      10A    -11.207149    11A     -1.405015    12A     -1.401682
      13A     -1.151324    14A     -1.072481    15A     -1.000959
      16A     -0.990874    17A     -0.884271    18A     -0.836312
      19A     -0.818495    20A     -0.746683    21A     -0.687252
      22A     -0.674941    23A     -0.665993    24A     -0.627024
      25A     -0.603289    26A     -0.594800    27A     -0.588656
      28A     -0.576214    29A     -0.552462    30A     -0.548047
      31A     -0.526779    32A     -0.522522    33A     -0.498420
      34A     -0.482501    35A     -0.453854    36A     -0.325653
      37A     -0.311069

  @DF-RHF Final Energy:  -458.62709261365268

   => Energetics <=

    Nuclear Repulsion Energy =            508.5835791452875014
    One-Electron Energy =               -1633.0383643347506677
    Two-Electron Energy =                 665.8276925758103744
    Total Energy =                       -458.6270926136527351
  Basis Set: (AUG-CC-PVTZ AUX)
    Blend: AUG-CC-PVTZ-RI
    Molecular point group: c1

    Geometry (in Angstrom), charge = 0, multiplicity = 1:

       Center              X                  Y                   Z               Mass
    ------------   -----------------  -----------------  -----------------  -----------------
         O            1.762417534213     2.367202672865    -0.145101688479    15.994914619570
         O            1.675042534213    -2.408173327135    -0.127122688479    15.994914619570
         C           -1.021943465787    -0.008895327135     0.364927311521    12.000000000000
         C           -2.514324465787    -0.020618327135     0.564216311521    12.000000000000
         C           -0.323437465787    -1.208565327135     0.235154311521    12.000000000000
         C           -0.337430465787     1.204050672865     0.235651311521    12.000000000000
         C           -3.273941465787    -0.020925327135    -0.763548688479    12.000000000000
         C            1.034315534213     1.209490672865    -0.017322688479    12.000000000000
         C            1.047684534213    -1.192215327135    -0.018221688479    12.000000000000
         C            1.736486534213     0.013607672865    -0.144964688479    12.000000000000
         H           -2.742261565787    -0.742933327135     1.042352711521     1.007825032230
         H           -2.808660465787     0.852682672865     1.158092311521     1.007825032230
         H           -0.831608465787    -2.164723327135     0.331699311521     1.007825032230
         H           -0.879331465787     2.144474672865     0.335969311521     1.007825032230
         H           -3.023470465787     0.866084672865    -1.351994688479     1.007825032230
         H           -4.357778465787    -0.030603327135    -0.604543688479     1.007825032230
         H           -3.008020465787    -0.899303327135    -1.357895688479     1.007825032230
         H            2.807065534213     0.045589672865    -0.335471688479     1.007825032230
         H            1.158693534213     3.121130672865    -0.029191688479     1.007825032230
         H            2.621158534213    -2.255560327135    -0.296839688479     1.007825032230

  Basis Set: AUG-CC-PVTZ
    Blend: AUG-CC-PVTZ
  Basis Set: (AUG-CC-PVTZ AUX)
    Blend: AUG-CC-PVTZ-JKFIT
	 Reference Energy          =    -458.6270926136526782 [Eh]
	 Singles Energy            =      -0.0000000000000000 [Eh]
	 Same-Spin Energy          =      -0.4816856144586240 [Eh]
	 Opposite-Spin Energy      =      -1.5043875509556017 [Eh]
	 Correlation Energy        =      -1.9860731654142256 [Eh]
	 Total Energy              =    -460.6131657790668896 [Eh]

	 ================> DF-SCS-MP2 Energies <==================
	-----------------------------------------------------------
	 SCS Same-Spin Scale       =       0.3333333333333333 [-]
	 SCS Opposite-Spin Scale   =       1.2000000000000000 [-]
	 SCS Same-Spin Energy      =      -0.1605618714862080 [Eh]
	 SCS Opposite-Spin Energy  =      -1.8052650611467220 [Eh]
	 SCS Correlation Energy    =      -1.9658269326329301 [Eh]
	 SCS Total Energy          =    -460.5929195462856001 [Eh]
	-----------------------------------------------------------

  Dipole Moment: [D]
     X:    -0.5423      Y:     1.1705      Z:     0.0693     Total:     1.2919

*** Psi4 exiting successfully. Buy a developer a beer!
