                               Psi4 1.3.2 release

  ==> Input File <==

--------------------------------------------------------------------------
#psi4
#
memory 32 gb

molecule  {
0 1
  O        1.7627890     2.3683800    -0.1458810
  O        1.6754140    -2.4069960    -0.1279020
  C       -1.0420404    -0.0202999     0.3680065
  C       -2.5139530    -0.0194410     0.5634370
  C       -0.3230660    -1.2073880     0.2343750
  C       -0.3370590     1.2052280     0.2348720
  C       -3.2735700    -0.0197480    -0.7643280
  C        1.0346870     1.2106680    -0.0181020
  C        1.0480560    -1.1910380    -0.0190010
  C        1.7368580     0.0147850    -0.1457440
  H       -2.7927850    -0.9030380     1.1483340
  H       -2.8082890     0.8538600     1.1573130
  H       -0.8475621    -2.1543730     0.3339750
  H       -0.8789600     2.1456520     0.3351900
  H       -3.0230990     0.8672620    -1.3527740
  H       -4.3574070    -0.0294260    -0.6053230
  H       -3.0076490    -0.8981260    -1.3586750
  H        2.8074370     0.0467670    -0.3362510
  H        1.1590650     3.1223080    -0.0299710
  H        2.6215300    -2.2543830    -0.2976190
units angstrom
no_reorient  #important for SAPT in psi4, default
symmetry c1  #important for SAPT in psi4, default
}

set PROPERTIES_ORIGIN ["COM"]
properties('MP2/aug-cc-pvtz', properties = ['dipole'])
--------------------------------------------------------------------------

    Molecular point group: c1
  Charge       = 0
  Multiplicity = 1
  Basis Set: AUG-CC-PVTZ
    Blend: AUG-CC-PVTZ
  Basis Set: (AUG-CC-PVTZ AUX)
    Blend: AUG-CC-PVTZ-JKFIT

    Orbital Energies [Eh]
    ---------------------

    Doubly Occupied:

       1A    -20.595233     2A    -20.593487     3A    -11.310019
       4A    -11.309528     5A    -11.252800     6A    -11.231687
       7A    -11.224147     8A    -11.223896     9A    -11.220481
      10A    -11.216578    11A     -1.405029    12A     -1.401872
      13A     -1.149036    14A     -1.066853    15A     -1.000255
      16A     -0.986774    17A     -0.879212    18A     -0.836460
      19A     -0.807939    20A     -0.738536    21A     -0.687327
      22A     -0.675673    23A     -0.665740    24A     -0.613427
      25A     -0.602445    26A     -0.596324    27A     -0.587497
      28A     -0.576394    29A     -0.552032    30A     -0.549308
      31A     -0.523955    32A     -0.519398    33A     -0.490104
      34A     -0.484480    35A     -0.452215    36A     -0.324353
      37A     -0.311044

  @DF-RHF Final Energy:  -458.65879597371332

   => Energetics <=

    Nuclear Repulsion Energy =            507.3334193208478382
    One-Electron Energy =               -1630.6613536223792380
    Two-Electron Energy =                 664.6691383278182457
    Total Energy =                       -458.6587959737132678
  Basis Set: (AUG-CC-PVTZ AUX)
    Blend: AUG-CC-PVTZ-RI
    Molecular point group: c1

    Geometry (in Angstrom), charge = 0, multiplicity = 1:

       Center              X                  Y                   Z               Mass
    ------------   -----------------  -----------------  -----------------  -----------------
         O            1.764687188428     2.369406528085    -0.146238641430    15.994914619570
         O            1.677312188428    -2.405969471915    -0.128259641430    15.994914619570
         C           -1.040142211572    -0.019273371915     0.367648858570    12.000000000000
         C           -2.512054811572    -0.018414471915     0.563079358570    12.000000000000
         C           -0.321167811572    -1.206361471915     0.234017358570    12.000000000000
         C           -0.335160811572     1.206254528085     0.234514358570    12.000000000000
         C           -3.271671811572    -0.018721471915    -0.764685641430    12.000000000000
         C            1.036585188428     1.211694528085    -0.018459641430    12.000000000000
         C            1.049954188428    -1.190011471915    -0.019358641430    12.000000000000
         C            1.738756188428     0.015811528085    -0.146101641430    12.000000000000
         H           -2.790886811572    -0.902011471915     1.147976358570     1.007825032230
         H           -2.806390811572     0.854886528085     1.156955358570     1.007825032230
         H           -0.845663911572    -2.153346471915     0.333617358570     1.007825032230
         H           -0.877061811572     2.146678528085     0.334832358570     1.007825032230
         H           -3.021200811572     0.868288528085    -1.353131641430     1.007825032230
         H           -4.355508811572    -0.028399471915    -0.605680641430     1.007825032230
         H           -3.005750811572    -0.897099471915    -1.359032641430     1.007825032230
         H            2.809335188428     0.047793528085    -0.336608641430     1.007825032230
         H            1.160963188428     3.123334528085    -0.030328641430     1.007825032230
         H            2.623428188428    -2.253356471915    -0.297976641430     1.007825032230

  Basis Set: AUG-CC-PVTZ
    Blend: AUG-CC-PVTZ
  Basis Set: (AUG-CC-PVTZ AUX)
    Blend: AUG-CC-PVTZ-JKFIT
	 Reference Energy          =    -458.6587959737133247 [Eh]
	 Singles Energy            =      -0.0000000000000000 [Eh]
	 Same-Spin Energy          =      -0.4819585874630992 [Eh]
	 Opposite-Spin Energy      =      -1.5055932445297913 [Eh]
	 Correlation Energy        =      -1.9875518319928904 [Eh]
	 Total Energy              =    -460.6463478057062275 [Eh]

	 ================> DF-SCS-MP2 Energies <==================
	-----------------------------------------------------------
	 SCS Same-Spin Scale       =       0.3333333333333333 [-]
	 SCS Opposite-Spin Scale   =       1.2000000000000000 [-]
	 SCS Same-Spin Energy      =      -0.1606528624876997 [Eh]
	 SCS Opposite-Spin Energy  =      -1.8067118934357493 [Eh]
	 SCS Correlation Energy    =      -1.9673647559234491 [Eh]
	 SCS Total Energy          =    -460.6261607296367515 [Eh]
	-----------------------------------------------------------

  Dipole Moment: [D]
     X:    -0.5323      Y:     1.2088      Z:     0.0094     Total:     1.3209

*** Psi4 exiting successfully. Buy a developer a beer!
