                               Psi4 1.3.2 release

  ==> Input File <==

--------------------------------------------------------------------------
#psi4
#
memory 32 gb

molecule  {
0 1
  O        1.7627890     2.3683800    -0.1458810
  O        1.6754140    -2.4069960    -0.1279020
  C       -1.0319516    -0.0015928     0.3660822
  C       -2.5139530    -0.0194410     0.5634370
  C       -0.3230660    -1.2073880     0.2343750
  C       -0.3370590     1.2052280     0.2348720
  C       -3.2735700    -0.0197480    -0.7643280
  C        1.0346870     1.2106680    -0.0181020
  C        1.0480560    -1.1910380    -0.0190010
  C        1.7368580     0.0147850    -0.1457440
  H       -2.7927850    -0.9030380     1.1483340
  H       -2.8082890     0.8538600     1.1573130
  H       -0.8312370    -2.1635460     0.3309200
  H       -0.8870053     2.1408069     0.3366994
  H       -3.0230990     0.8672620    -1.3527740
  H       -4.3574070    -0.0294260    -0.6053230
  H       -3.0076490    -0.8981260    -1.3586750
  H        2.8074370     0.0467670    -0.3362510
  H        1.1590650     3.1223080    -0.0299710
  H        2.6215300    -2.2543830    -0.2976190
units angstrom
no_reorient  #important for SAPT in psi4, default
symmetry c1  #important for SAPT in psi4, default
}

set PROPERTIES_ORIGIN ["COM"]
properties('MP2/aug-cc-pvtz', properties = ['dipole'])
--------------------------------------------------------------------------

    Molecular point group: c1
  Charge       = 0
  Multiplicity = 1
  Basis Set: AUG-CC-PVTZ
    Blend: AUG-CC-PVTZ
  Basis Set: (AUG-CC-PVTZ AUX)
    Blend: AUG-CC-PVTZ-JKFIT

    Orbital Energies [Eh]
    ---------------------

    Doubly Occupied:

       1A    -20.595775     2A    -20.593057     3A    -11.310788
       4A    -11.308478     5A    -11.252142     6A    -11.231923
       7A    -11.224060     8A    -11.223014     9A    -11.220113
      10A    -11.216602    11A     -1.405383    12A     -1.401655
      13A     -1.149710    14A     -1.065424    15A     -1.000539
      16A     -0.987742    17A     -0.877826    18A     -0.836225
      19A     -0.807718    20A     -0.740371    21A     -0.686910
      22A     -0.675065    23A     -0.666323    24A     -0.613184
      25A     -0.602340    26A     -0.595528    27A     -0.587241
      28A     -0.576380    29A     -0.552024    30A     -0.549465
      31A     -0.523465    32A     -0.520405    33A     -0.487308
      34A     -0.485551    35A     -0.453118    36A     -0.325306
      37A     -0.310856

  @DF-RHF Final Energy:  -458.65963643358566

   => Energetics <=

    Nuclear Repulsion Energy =            507.4175491731719490
    One-Electron Energy =               -1630.8363420148107252
    Two-Electron Energy =                 664.7591564080531725
    Total Energy =                       -458.6596364335856606
  Basis Set: (AUG-CC-PVTZ AUX)
    Blend: AUG-CC-PVTZ-RI
    Molecular point group: c1

    Geometry (in Angstrom), charge = 0, multiplicity = 1:

       Center              X                  Y                   Z               Mass
    ------------   -----------------  -----------------  -----------------  -----------------
         O            1.763749895825     2.367882950669    -0.146060111429    15.994914619570
         O            1.676374895825    -2.407493049331    -0.128081111429    15.994914619570
         C           -1.030990704175    -0.002089849331     0.365903088571    12.000000000000
         C           -2.512992104175    -0.019938049331     0.563257888571    12.000000000000
         C           -0.322105104175    -1.207885049331     0.234195888571    12.000000000000
         C           -0.336098104175     1.204730950669     0.234692888571    12.000000000000
         C           -3.272609104175    -0.020245049331    -0.764507111429    12.000000000000
         C            1.035647895825     1.210170950669    -0.018281111429    12.000000000000
         C            1.049016895825    -1.191535049331    -0.019180111429    12.000000000000
         C            1.737818895825     0.014287950669    -0.145923111429    12.000000000000
         H           -2.791824104175    -0.903535049331     1.148154888571     1.007825032230
         H           -2.807328104175     0.853362950669     1.157133888571     1.007825032230
         H           -0.830276104175    -2.164043049331     0.330740888571     1.007825032230
         H           -0.886044404175     2.140309850669     0.336520288571     1.007825032230
         H           -3.022138104175     0.866764950669    -1.352953111429     1.007825032230
         H           -4.356446104175    -0.029923049331    -0.605502111429     1.007825032230
         H           -3.006688104175    -0.898623049331    -1.358854111429     1.007825032230
         H            2.808397895825     0.046269950669    -0.336430111429     1.007825032230
         H            1.160025895825     3.121810950669    -0.030150111429     1.007825032230
         H            2.622490895825    -2.254880049331    -0.297798111429     1.007825032230

  Basis Set: AUG-CC-PVTZ
    Blend: AUG-CC-PVTZ
  Basis Set: (AUG-CC-PVTZ AUX)
    Blend: AUG-CC-PVTZ-JKFIT
	 Reference Energy          =    -458.6596364335856606 [Eh]
	 Singles Energy            =      -0.0000000000000000 [Eh]
	 Same-Spin Energy          =      -0.4818703842326427 [Eh]
	 Opposite-Spin Energy      =      -1.5054105019160053 [Eh]
	 Correlation Energy        =      -1.9872808861486480 [Eh]
	 Total Energy              =    -460.6469173197343139 [Eh]

	 ================> DF-SCS-MP2 Energies <==================
	-----------------------------------------------------------
	 SCS Same-Spin Scale       =       0.3333333333333333 [-]
	 SCS Opposite-Spin Scale   =       1.2000000000000000 [-]
	 SCS Same-Spin Energy      =      -0.1606234614108809 [Eh]
	 SCS Opposite-Spin Energy  =      -1.8064926022992063 [Eh]
	 SCS Correlation Energy    =      -1.9671160637100873 [Eh]
	 SCS Total Energy          =    -460.6267524972957403 [Eh]
	-----------------------------------------------------------

  Dipole Moment: [D]
     X:    -0.5161      Y:     1.2274      Z:     0.0096     Total:     1.3315

*** Psi4 exiting successfully. Buy a developer a beer!
