                               Psi4 1.4a3.dev225

  ==> Input File <==

--------------------------------------------------------------------------
#psi4
#
memory 32 gb

molecule  {
0 1
  O       -1.8116000     2.3801270     0.1363720
  O       -1.7799440    -2.3994320     0.1189850
  C        0.9489570    -0.0306590    -0.3689570
  C        2.4429910    -0.0568610    -0.5708560
  C        0.2354480    -1.2220220    -0.2373930
  C        0.2798030     1.1938580    -0.2383990
  C        3.1984060    -0.0265600     0.7613490
  C       -1.0921630     1.2139390     0.0079710
  C       -1.1396310    -1.1871160     0.0102260
  C       -1.8132500     0.0254130     0.1385790
  H        2.7180680    -0.9584190    -1.1301260
  H        2.7446220     0.7994920    -1.1857830
  H        0.7258350    -2.1872220    -0.3369480
  H        0.8309290     2.1284970    -0.3452230
  H        2.9508560     0.8787730     1.3230630
  H        4.2811760    -0.0477390     0.6027570
  H        2.9230980    -0.8883860     1.3756490
  H       -2.8345564     0.0718699     0.3173812
  H       -1.1979550     3.1274200     0.0245130
  H       -2.7238770    -2.2320380     0.2881370
units angstrom
no_reorient  #important for SAPT in psi4, default
symmetry c1  #important for SAPT in psi4, default
}

set PROPERTIES_ORIGIN ["COM"]
properties('MP2/aug-cc-pvtz', properties = ['dipole'])
--------------------------------------------------------------------------

    Molecular point group: c1
  Charge       = 0
  Multiplicity = 1
  Basis Set: AUG-CC-PVTZ
    Blend: AUG-CC-PVTZ
  Basis Set: (AUG-CC-PVTZ AUX)
    Blend: AUG-CC-PVTZ-JKFIT

    Orbital Energies [Eh]
    ---------------------

    Doubly Occupied:

       1A    -20.595659     2A    -20.593552     3A    -11.310682
       4A    -11.308854     5A    -11.252201     6A    -11.232507
       7A    -11.223042     8A    -11.219804     9A    -11.218707
      10A    -11.216539    11A     -1.404295    12A     -1.400951
      13A     -1.149651    14A     -1.064151    15A     -1.000740
      16A     -0.989210    17A     -0.877576    18A     -0.835932
      19A     -0.808238    20A     -0.739627    21A     -0.690245
      22A     -0.676960    23A     -0.666225    24A     -0.611852
      25A     -0.602426    26A     -0.596247    27A     -0.588591
      28A     -0.575834    29A     -0.554331    30A     -0.549799
      31A     -0.523569    32A     -0.521579    33A     -0.488241
      34A     -0.482965    35A     -0.453551    36A     -0.325787
      37A     -0.311293

  @DF-RHF Final Energy:  -458.65889446416804

   => Energetics <=

    Nuclear Repulsion Energy =            507.3640174516959291
    One-Electron Energy =               -1630.7230021545838099
    Two-Electron Energy =                 664.7000902387198948
    Total Energy =                       -458.6588944641680428
  Basis Set: (AUG-CC-PVTZ AUX)
    Blend: AUG-CC-PVTZ-RI
    Molecular point group: c1

    Geometry (in Angstrom), charge = 0, multiplicity = 1:

       Center              X                  Y                   Z               Mass
    ------------   -----------------  -----------------  -----------------  -----------------
         O           -1.737578623382     2.385133320554     0.143213714228    15.994914619570
         O           -1.705922623382    -2.394425679446     0.125826714228    15.994914619570
         C            1.022978376618    -0.025652679446    -0.362115285772    12.000000000000
         C            2.517012376618    -0.051854679446    -0.564014285772    12.000000000000
         C            0.309469376618    -1.217015679446    -0.230551285772    12.000000000000
         C            0.353824376618     1.198864320554    -0.231557285772    12.000000000000
         C            3.272427376618    -0.021553679446     0.768190714228    12.000000000000
         C           -1.018141623382     1.218945320554     0.014812714228    12.000000000000
         C           -1.065609623382    -1.182109679446     0.017067714228    12.000000000000
         C           -1.739228623382     0.030419320554     0.145420714228    12.000000000000
         H            2.792089376618    -0.953412679446    -1.123284285772     1.007825032230
         H            2.818643376618     0.804498320554    -1.178941285772     1.007825032230
         H            0.799856376618    -2.182215679446    -0.330106285772     1.007825032230
         H            0.904950376618     2.133503320554    -0.338381285772     1.007825032230
         H            3.024877376618     0.883779320554     1.329904714228     1.007825032230
         H            4.355197376618    -0.042732679446     0.609598714228     1.007825032230
         H            2.997119376618    -0.883379679446     1.382490714228     1.007825032230
         H           -2.760535023382     0.076876220554     0.324222914228     1.007825032230
         H           -1.123933623382     3.132426320554     0.031354714228     1.007825032230
         H           -2.649855623382    -2.227031679446     0.294978714228     1.007825032230

  Basis Set: AUG-CC-PVTZ
    Blend: AUG-CC-PVTZ
  Basis Set: (AUG-CC-PVTZ AUX)
    Blend: AUG-CC-PVTZ-JKFIT
	 Reference Energy          =    -458.6588944641680428 [Eh]
	 Singles Energy            =      -0.0000000000000000 [Eh]
	 Same-Spin Energy          =      -0.4816277591415573 [Eh]
	 Opposite-Spin Energy      =      -1.5052037884196563 [Eh]
	 Correlation Energy        =      -1.9868315475612137 [Eh]
	 Total Energy              =    -460.6457260117292662 [Eh]

	 ================> DF-SCS-MP2 Energies <==================
	-----------------------------------------------------------
	 SCS Same-Spin Scale       =       0.3333333333333333 [-]
	 SCS Opposite-Spin Scale   =       1.2000000000000000 [-]
	 SCS Same-Spin Energy      =      -0.1605425863805191 [Eh]
	 SCS Opposite-Spin Energy  =      -1.8062445461035874 [Eh]
	 SCS Correlation Energy    =      -1.9667871324841064 [Eh]
	 SCS Total Energy          =    -460.6256815966521572 [Eh]
	-----------------------------------------------------------

  Dipole Moment: [D]
     X:     0.5196      Y:     1.2167      Z:    -0.0162     Total:     1.3231

*** Psi4 exiting successfully. Buy a developer a beer!
