                               Psi4 1.3.2 release

  ==> Input File <==

--------------------------------------------------------------------------
#psi4
#
memory 32 gb

molecule  {
0 1
  O        1.7627890     2.3683800    -0.1458810
  O        1.6754140    -2.4069960    -0.1279020
  C       -1.0215720    -0.0077180     0.3641480
  C       -2.5139530    -0.0194410     0.5634370
  C       -0.3230660    -1.2073880     0.2343750
  C       -0.3370590     1.2052280     0.2348720
  C       -3.2735700    -0.0197480    -0.7643280
  C        0.9761422     1.2509407    -0.0070527
  C        1.0480560    -1.1910380    -0.0190010
  C        1.7368580     0.0147850    -0.1457440
  H       -2.7927850    -0.9030380     1.1483340
  H       -2.8082890     0.8538600     1.1573130
  H       -0.8312370    -2.1635460     0.3309200
  H       -0.8789600     2.1456520     0.3351900
  H       -3.0230990     0.8672620    -1.3527740
  H       -4.3574070    -0.0294260    -0.6053230
  H       -3.0076490    -0.8981260    -1.3586750
  H        2.8074370     0.0467670    -0.3362510
  H        1.1210573     3.0891025    -0.0231426
  H        2.6215300    -2.2543830    -0.2976190
units angstrom
no_reorient  #important for SAPT in psi4, default
symmetry c1  #important for SAPT in psi4, default
}

set PROPERTIES_ORIGIN ["COM"]
properties('MP2/aug-cc-pvtz', properties = ['dipole'])
--------------------------------------------------------------------------

    Molecular point group: c1
  Charge       = 0
  Multiplicity = 1
  Basis Set: AUG-CC-PVTZ
    Blend: AUG-CC-PVTZ
  Basis Set: (AUG-CC-PVTZ AUX)
    Blend: AUG-CC-PVTZ-JKFIT

    Orbital Energies [Eh]
    ---------------------

    Doubly Occupied:

       1A    -20.599216     2A    -20.591477     3A    -11.309265
       4A    -11.306469     5A    -11.253483     6A    -11.233490
       7A    -11.226776     8A    -11.220736     9A    -11.219417
      10A    -11.218101    11A     -1.409898    12A     -1.400672
      13A     -1.152129    14A     -1.059814    15A     -1.011738
      16A     -0.982390    17A     -0.879714    18A     -0.830441
      19A     -0.810068    20A     -0.742915    21A     -0.687718
      22A     -0.669878    23A     -0.662026    24A     -0.616055
      25A     -0.603903    26A     -0.595319    27A     -0.590555
      28A     -0.577288    29A     -0.554600    30A     -0.549746
      31A     -0.524175    32A     -0.513489    33A     -0.489442
      34A     -0.487482    35A     -0.455187    36A     -0.324026
      37A     -0.314310

  @DF-RHF Final Energy:  -458.65185200914289

   => Energetics <=

    Nuclear Repulsion Energy =            507.6166561814939655
    One-Electron Energy =               -1631.1901994514576018
    Two-Electron Energy =                 664.9216912608208077
    Total Energy =                       -458.6518520091428854
  Basis Set: (AUG-CC-PVTZ AUX)
    Blend: AUG-CC-PVTZ-RI
    Molecular point group: c1

    Geometry (in Angstrom), charge = 0, multiplicity = 1:

       Center              X                  Y                   Z               Mass
    ------------   -----------------  -----------------  -----------------  -----------------
         O            1.768154818807     2.365122083130    -0.146891163920    15.994914619570
         O            1.680779818807    -2.410253916870    -0.128912163920    15.994914619570
         C           -1.016206181193    -0.010975916870     0.363137836080    12.000000000000
         C           -2.508587181193    -0.022698916870     0.562426836080    12.000000000000
         C           -0.317700181193    -1.210645916870     0.233364836080    12.000000000000
         C           -0.331693181193     1.201970083130     0.233861836080    12.000000000000
         C           -3.268204181193    -0.023005916870    -0.765338163920    12.000000000000
         C            0.981508018807     1.247682783130    -0.008062863920    12.000000000000
         C            1.053421818807    -1.194295916870    -0.020011163920    12.000000000000
         C            1.742223818807     0.011527083130    -0.146754163920    12.000000000000
         H           -2.787419181193    -0.906295916870     1.147323836080     1.007825032230
         H           -2.802923181193     0.850602083130     1.156302836080     1.007825032230
         H           -0.825871181193    -2.166803916870     0.329909836080     1.007825032230
         H           -0.873594181193     2.142394083130     0.334179836080     1.007825032230
         H           -3.017733181193     0.864004083130    -1.353784163920     1.007825032230
         H           -4.352041181193    -0.032683916870    -0.606333163920     1.007825032230
         H           -3.002283181193    -0.901383916870    -1.359685163920     1.007825032230
         H            2.812802818807     0.043509083130    -0.337261163920     1.007825032230
         H            1.126423118807     3.085844583130    -0.024152763920     1.007825032230
         H            2.626895818807    -2.257640916870    -0.298629163920     1.007825032230

  Basis Set: AUG-CC-PVTZ
    Blend: AUG-CC-PVTZ
  Basis Set: (AUG-CC-PVTZ AUX)
    Blend: AUG-CC-PVTZ-JKFIT
	 Reference Energy          =    -458.6518520091428854 [Eh]
	 Singles Energy            =      -0.0000000000000000 [Eh]
	 Same-Spin Energy          =      -0.4818796192706616 [Eh]
	 Opposite-Spin Energy      =      -1.5063044045685614 [Eh]
	 Correlation Energy        =      -1.9881840238392230 [Eh]
	 Total Energy              =    -460.6400360329820955 [Eh]

	 ================> DF-SCS-MP2 Energies <==================
	-----------------------------------------------------------
	 SCS Same-Spin Scale       =       0.3333333333333333 [-]
	 SCS Opposite-Spin Scale   =       1.2000000000000000 [-]
	 SCS Same-Spin Energy      =      -0.1606265397568872 [Eh]
	 SCS Opposite-Spin Energy  =      -1.8075652854822737 [Eh]
	 SCS Correlation Energy    =      -1.9681918252391608 [Eh]
	 SCS Total Energy          =    -460.6200438343820451 [Eh]
	-----------------------------------------------------------

  Dipole Moment: [D]
     X:    -0.6129      Y:     1.2032      Z:     0.0283     Total:     1.3506

*** Psi4 exiting successfully. Buy a developer a beer!
