                               Psi4 1.3.2 release

  ==> Input File <==

--------------------------------------------------------------------------
#psi4
#
memory 32 gb

molecule  {
0 1
  O        1.7627890     2.3683800    -0.1458810
  O        1.6754140    -2.4069960    -0.1279020
  C       -1.0294376    -0.0075698     0.3121849
  C       -2.5139530    -0.0194410     0.5634370
  C       -0.3230660    -1.2073880     0.2343750
  C       -0.3370590     1.2052280     0.2348720
  C       -3.2267706    -0.0193033    -0.7900286
  C        1.0346870     1.2106680    -0.0181020
  C        1.0480560    -1.1910380    -0.0190010
  C        1.7368580     0.0147850    -0.1457440
  H       -2.7927850    -0.9030380     1.1483340
  H       -2.8082890     0.8538600     1.1573130
  H       -0.8312370    -2.1635460     0.3309200
  H       -0.8789600     2.1456520     0.3351900
  H       -3.0230990     0.8672620    -1.3527740
  H       -4.3574070    -0.0294260    -0.6053230
  H       -3.0076490    -0.8981260    -1.3586750
  H        2.8074370     0.0467670    -0.3362510
  H        1.1590650     3.1223080    -0.0299710
  H        2.6215300    -2.2543830    -0.2976190
units angstrom
no_reorient  #important for SAPT in psi4, default
symmetry c1  #important for SAPT in psi4, default
}

set PROPERTIES_ORIGIN ["COM"]
properties('MP2/aug-cc-pvtz', properties = ['dipole'])
--------------------------------------------------------------------------

    Molecular point group: c1
  Charge       = 0
  Multiplicity = 1
  Basis Set: AUG-CC-PVTZ
    Blend: AUG-CC-PVTZ
  Basis Set: (AUG-CC-PVTZ AUX)
    Blend: AUG-CC-PVTZ-JKFIT

    Orbital Energies [Eh]
    ---------------------

    Doubly Occupied:

       1A    -20.595593     2A    -20.593182     3A    -11.310370
       4A    -11.308618     5A    -11.251101     6A    -11.232733
       7A    -11.223351     8A    -11.222350     9A    -11.219832
      10A    -11.215515    11A     -1.405258    12A     -1.401716
      13A     -1.150637    14A     -1.065196    15A     -1.001166
      16A     -0.987410    17A     -0.875580    18A     -0.836523
      19A     -0.808786    20A     -0.740227    21A     -0.687564
      22A     -0.675157    23A     -0.666438    24A     -0.613256
      25A     -0.602990    26A     -0.596010    27A     -0.587501
      28A     -0.576324    29A     -0.554568    30A     -0.544601
      31A     -0.524483    32A     -0.521528    33A     -0.495237
      34A     -0.476579    35A     -0.452066    36A     -0.325099
      37A     -0.311179

  @DF-RHF Final Energy:  -458.65611223374185

   => Energetics <=

    Nuclear Repulsion Energy =            508.0179071042518899
    One-Electron Energy =               -1632.0365917379272105
    Two-Electron Energy =                 665.3625723999334696
    Total Energy =                       -458.6561122337418510
  Basis Set: (AUG-CC-PVTZ AUX)
    Blend: AUG-CC-PVTZ-RI
    Molecular point group: c1

    Geometry (in Angstrom), charge = 0, multiplicity = 1:

       Center              X                  Y                   Z               Mass
    ------------   -----------------  -----------------  -----------------  -----------------
         O            1.759405162005     2.368328416320    -0.139130950003    15.994914619570
         O            1.672030162005    -2.407047583680    -0.121151950003    15.994914619570
         C           -1.032821437995    -0.007621383680     0.318934949997    12.000000000000
         C           -2.517336837995    -0.019492583680     0.570187049997    12.000000000000
         C           -0.326449837995    -1.207439583680     0.241125049997    12.000000000000
         C           -0.340442837995     1.205176416320     0.241622049997    12.000000000000
         C           -3.230154437995    -0.019354883680    -0.783278550003    12.000000000000
         C            1.031303162005     1.210616416320    -0.011351950003    12.000000000000
         C            1.044672162005    -1.191089583680    -0.012250950003    12.000000000000
         C            1.733474162005     0.014733416320    -0.138993950003    12.000000000000
         H           -2.796168837995    -0.903089583680     1.155084049997     1.007825032230
         H           -2.811672837995     0.853808416320     1.164063049997     1.007825032230
         H           -0.834620837995    -2.163597583680     0.337670049997     1.007825032230
         H           -0.882343837995     2.145600416320     0.341940049997     1.007825032230
         H           -3.026482837995     0.867210416320    -1.346023950003     1.007825032230
         H           -4.360790837995    -0.029477583680    -0.598572950003     1.007825032230
         H           -3.011032837995    -0.898177583680    -1.351924950003     1.007825032230
         H            2.804053162005     0.046715416320    -0.329500950003     1.007825032230
         H            1.155681162005     3.122256416320    -0.023220950003     1.007825032230
         H            2.618146162005    -2.254434583680    -0.290868950003     1.007825032230

  Basis Set: AUG-CC-PVTZ
    Blend: AUG-CC-PVTZ
  Basis Set: (AUG-CC-PVTZ AUX)
    Blend: AUG-CC-PVTZ-JKFIT
	 Reference Energy          =    -458.6561122337418510 [Eh]
	 Singles Energy            =      -0.0000000000000000 [Eh]
	 Same-Spin Energy          =      -0.4818609291410438 [Eh]
	 Opposite-Spin Energy      =      -1.5055254147354251 [Eh]
	 Correlation Energy        =      -1.9873863438764690 [Eh]
	 Total Energy              =    -460.6434985776183453 [Eh]

	 ================> DF-SCS-MP2 Energies <==================
	-----------------------------------------------------------
	 SCS Same-Spin Scale       =       0.3333333333333333 [-]
	 SCS Opposite-Spin Scale   =       1.2000000000000000 [-]
	 SCS Same-Spin Energy      =      -0.1606203097136812 [Eh]
	 SCS Opposite-Spin Energy  =      -1.8066304976825101 [Eh]
	 SCS Correlation Energy    =      -1.9672508073961912 [Eh]
	 SCS Total Energy          =    -460.6233630411380204 [Eh]
	-----------------------------------------------------------

  Dipole Moment: [D]
     X:    -0.4986      Y:     1.2218      Z:     0.0395     Total:     1.3202

*** Psi4 exiting successfully. Buy a developer a beer!
