                               Psi4 1.3.2 release

  ==> Input File <==

--------------------------------------------------------------------------
#psi4
#
memory 32 gb

molecule  {
0 1
  O        1.7627890     2.3683800    -0.1458810
  O        1.6754140    -2.4069960    -0.1279020
  C       -1.0215720    -0.0077180     0.3641480
  C       -2.5139530    -0.0194410     0.5634370
  C       -0.3230660    -1.2073880     0.2343750
  C       -0.3369567     1.1930558     0.2348719
  C       -3.2735700    -0.0197480    -0.7643280
  C        1.0346870     1.2106680    -0.0181020
  C        1.0480560    -1.1910380    -0.0190010
  C        1.7265701     0.0086026    -0.1438372
  H       -2.7927850    -0.9030380     1.1483340
  H       -2.8082890     0.8538600     1.1573130
  H       -0.8312370    -2.1635460     0.3309200
  H       -0.8789600     2.1456520     0.3351900
  H       -3.0230990     0.8672620    -1.3527740
  H       -4.3574070    -0.0294260    -0.6053230
  H       -3.0076490    -0.8981260    -1.3586750
  H        2.8074370     0.0467670    -0.3362510
  H        1.1590650     3.1223080    -0.0299710
  H        2.6215300    -2.2543830    -0.2976190
units angstrom
no_reorient  #important for SAPT in psi4, default
symmetry c1  #important for SAPT in psi4, default
}

set PROPERTIES_ORIGIN ["COM"]
properties('MP2/aug-cc-pvtz', properties = ['dipole'])
--------------------------------------------------------------------------

    Molecular point group: c1
  Charge       = 0
  Multiplicity = 1
  Basis Set: AUG-CC-PVTZ
    Blend: AUG-CC-PVTZ
  Basis Set: (AUG-CC-PVTZ AUX)
    Blend: AUG-CC-PVTZ-JKFIT

    Orbital Energies [Eh]
    ---------------------

    Doubly Occupied:

       1A    -20.596986     2A    -20.592798     3A    -11.310633
       4A    -11.306940     5A    -11.249658     6A    -11.232003
       7A    -11.224080     8A    -11.223013     9A    -11.219595
      10A    -11.215687    11A     -1.405938    12A     -1.401633
      13A     -1.152472    14A     -1.064772    15A     -1.001505
      16A     -0.988596    17A     -0.875943    18A     -0.837754
      19A     -0.808361    20A     -0.741034    21A     -0.687407
      22A     -0.675627    23A     -0.664098    24A     -0.612231
      25A     -0.602688    26A     -0.595044    27A     -0.586950
      28A     -0.576713    29A     -0.553529    30A     -0.547852
      31A     -0.521872    32A     -0.521540    33A     -0.487767
      34A     -0.482328    35A     -0.455304    36A     -0.327477
      37A     -0.311054

  @DF-RHF Final Energy:  -458.65974124912066

   => Energetics <=

    Nuclear Repulsion Energy =            507.8770461939456027
    One-Electron Energy =               -1631.7558138216452335
    Two-Electron Energy =                 665.2190263785790876
    Total Energy =                       -458.6597412491206569
  Basis Set: (AUG-CC-PVTZ AUX)
    Blend: AUG-CC-PVTZ-RI
    Molecular point group: c1

    Geometry (in Angstrom), charge = 0, multiplicity = 1:

       Center              X                  Y                   Z               Mass
    ------------   -----------------  -----------------  -----------------  -----------------
         O            1.763674308080     2.369975212601    -0.146046703471    15.994914619570
         O            1.676299308080    -2.405400787399    -0.128067703471    15.994914619570
         C           -1.020686691920    -0.006122787399     0.363982296529    12.000000000000
         C           -2.513067691920    -0.017845787399     0.563271296529    12.000000000000
         C           -0.322180691920    -1.205792787399     0.234209296529    12.000000000000
         C           -0.336071391920     1.194651012601     0.234706196529    12.000000000000
         C           -3.272684691920    -0.018152787399    -0.764493703471    12.000000000000
         C            1.035572308080     1.212263212601    -0.018267703471    12.000000000000
         C            1.048941308080    -1.189442787399    -0.019166703471    12.000000000000
         C            1.727455408080     0.010197812601    -0.144002903471    12.000000000000
         H           -2.791899691920    -0.901442787399     1.148168296529     1.007825032230
         H           -2.807403691920     0.855455212601     1.157147296529     1.007825032230
         H           -0.830351691920    -2.161950787399     0.330754296529     1.007825032230
         H           -0.878074691920     2.147247212601     0.335024296529     1.007825032230
         H           -3.022213691920     0.868857212601    -1.352939703471     1.007825032230
         H           -4.356521691920    -0.027830787399    -0.605488703471     1.007825032230
         H           -3.006763691920    -0.896530787399    -1.358840703471     1.007825032230
         H            2.808322308080     0.048362212601    -0.336416703471     1.007825032230
         H            1.159950308080     3.123903212601    -0.030136703471     1.007825032230
         H            2.622415308080    -2.252787787399    -0.297784703471     1.007825032230

  Basis Set: AUG-CC-PVTZ
    Blend: AUG-CC-PVTZ
  Basis Set: (AUG-CC-PVTZ AUX)
    Blend: AUG-CC-PVTZ-JKFIT
	 Reference Energy          =    -458.6597412491206569 [Eh]
	 Singles Energy            =      -0.0000000000000000 [Eh]
	 Same-Spin Energy          =      -0.4818615747900669 [Eh]
	 Opposite-Spin Energy      =      -1.5052828497996362 [Eh]
	 Correlation Energy        =      -1.9871444245897032 [Eh]
	 Total Energy              =    -460.6468856737103579 [Eh]

	 ================> DF-SCS-MP2 Energies <==================
	-----------------------------------------------------------
	 SCS Same-Spin Scale       =       0.3333333333333333 [-]
	 SCS Opposite-Spin Scale   =       1.2000000000000000 [-]
	 SCS Same-Spin Energy      =      -0.1606205249300223 [Eh]
	 SCS Opposite-Spin Energy  =      -1.8063394197595635 [Eh]
	 SCS Correlation Energy    =      -1.9669599446895858 [Eh]
	 SCS Total Energy          =    -460.6267011938102200 [Eh]
	-----------------------------------------------------------

  Dipole Moment: [D]
     X:    -0.4954      Y:     1.2466      Z:     0.0090     Total:     1.3415

*** Psi4 exiting successfully. Buy a developer a beer!
