                               Psi4 1.4a3.dev225

  ==> Input File <==

--------------------------------------------------------------------------
#psi4
#
memory 32 gb

molecule  {
0 1
  O       -1.8116000     2.3801270     0.1363720
  O       -1.7799440    -2.3994320     0.1189850
  C        0.9489570    -0.0306590    -0.3689570
  C        2.4429910    -0.0568610    -0.5708560
  C        0.2354480    -1.2220220    -0.2373930
  C        0.2798030     1.1938580    -0.2383990
  C        3.1984060    -0.0265600     0.7613490
  C       -1.0921630     1.2139390     0.0079710
  C       -1.1396310    -1.1871160     0.0102260
  C       -1.8132500     0.0254130     0.1385790
  H        2.7180680    -0.9584190    -1.1301260
  H        2.7446220     0.7994920    -1.1857830
  H        0.7258350    -2.1872220    -0.3369480
  H        0.8309290     2.1284970    -0.3452230
  H        2.9508560     0.8787730     1.3230630
  H        4.2811760    -0.0477390     0.6027570
  H        2.9230980    -0.8883860     1.3756490
  H       -2.9034386     0.0750032     0.3294405
  H       -1.1979550     3.1274200     0.0245130
  H       -2.7238770    -2.2320380     0.2881370
units angstrom
no_reorient  #important for SAPT in psi4, default
symmetry c1  #important for SAPT in psi4, default
}

set PROPERTIES_ORIGIN ["COM"]
properties('MP2/aug-cc-pvtz', properties = ['dipole'])
--------------------------------------------------------------------------

    Molecular point group: c1
  Charge       = 0
  Multiplicity = 1
  Basis Set: AUG-CC-PVTZ
    Blend: AUG-CC-PVTZ
  Basis Set: (AUG-CC-PVTZ AUX)
    Blend: AUG-CC-PVTZ-JKFIT

    Orbital Energies [Eh]
    ---------------------

    Doubly Occupied:

       1A    -20.595708     2A    -20.593325     3A    -11.311363
       4A    -11.309454     5A    -11.252427     6A    -11.232683
       7A    -11.226871     8A    -11.223541     9A    -11.219937
      10A    -11.217031    11A     -1.404264    12A     -1.400812
      13A     -1.149819    14A     -1.063380    15A     -1.001153
      16A     -0.987306    17A     -0.875928    18A     -0.836161
      19A     -0.807398    20A     -0.738960    21A     -0.686362
      22A     -0.673127    23A     -0.665203    24A     -0.611666
      25A     -0.602025    26A     -0.595027    27A     -0.586621
      28A     -0.575785    29A     -0.553117    30A     -0.547791
      31A     -0.523524    32A     -0.521420    33A     -0.488396
      34A     -0.482611    35A     -0.453828    36A     -0.326062
      37A     -0.311657

  @DF-RHF Final Energy:  -458.65902244939275

   => Energetics <=

    Nuclear Repulsion Energy =            506.9808034136705714
    One-Electron Energy =               -1629.9761683428905599
    Two-Electron Energy =                 664.3363424798271808
    Total Energy =                       -458.6590224493927508
  Basis Set: (AUG-CC-PVTZ AUX)
    Blend: AUG-CC-PVTZ-RI
    Molecular point group: c1

    Geometry (in Angstrom), charge = 0, multiplicity = 1:

       Center              X                  Y                   Z               Mass
    ------------   -----------------  -----------------  -----------------  -----------------
         O           -1.737075819218     2.385110449097     0.143125687622    15.994914619570
         O           -1.705419819218    -2.394448550903     0.125738687622    15.994914619570
         C            1.023481180782    -0.025675550903    -0.362203312378    12.000000000000
         C            2.517515180782    -0.051877550903    -0.564102312378    12.000000000000
         C            0.309972180782    -1.217038550903    -0.230639312378    12.000000000000
         C            0.354327180782     1.198841449097    -0.231645312378    12.000000000000
         C            3.272930180782    -0.021576550903     0.768102687622    12.000000000000
         C           -1.017638819218     1.218922449097     0.014724687622    12.000000000000
         C           -1.065106819218    -1.182132550903     0.016979687622    12.000000000000
         C           -1.738725819218     0.030396449097     0.145332687622    12.000000000000
         H            2.792592180782    -0.953435550903    -1.123372312378     1.007825032230
         H            2.819146180782     0.804475449097    -1.179029312378     1.007825032230
         H            0.800359180782    -2.182238550903    -0.330194312378     1.007825032230
         H            0.905453180782     2.133480449097    -0.338469312378     1.007825032230
         H            3.025380180782     0.883756449097     1.329816687622     1.007825032230
         H            4.355700180782    -0.042755550903     0.609510687622     1.007825032230
         H            2.997622180782    -0.883402550903     1.382402687622     1.007825032230
         H           -2.828914419218     0.079986649097     0.336194187622     1.007825032230
         H           -1.123430819218     3.132403449097     0.031266687622     1.007825032230
         H           -2.649352819218    -2.227054550903     0.294890687622     1.007825032230

  Basis Set: AUG-CC-PVTZ
    Blend: AUG-CC-PVTZ
  Basis Set: (AUG-CC-PVTZ AUX)
    Blend: AUG-CC-PVTZ-JKFIT
	 Reference Energy          =    -458.6590224493927508 [Eh]
	 Singles Energy            =      -0.0000000000000000 [Eh]
	 Same-Spin Energy          =      -0.4817814942092770 [Eh]
	 Opposite-Spin Energy      =      -1.5056347437569415 [Eh]
	 Correlation Energy        =      -1.9874162379662186 [Eh]
	 Total Energy              =    -460.6464386873589660 [Eh]

	 ================> DF-SCS-MP2 Energies <==================
	-----------------------------------------------------------
	 SCS Same-Spin Scale       =       0.3333333333333333 [-]
	 SCS Opposite-Spin Scale   =       1.2000000000000000 [-]
	 SCS Same-Spin Energy      =      -0.1605938314030923 [Eh]
	 SCS Opposite-Spin Energy  =      -1.8067616925083296 [Eh]
	 SCS Correlation Energy    =      -1.9673555239114220 [Eh]
	 SCS Total Energy          =    -460.6263779733041588 [Eh]
	-----------------------------------------------------------

  Dipole Moment: [D]
     X:     0.5332      Y:     1.2256      Z:    -0.0183     Total:     1.3366

*** Psi4 exiting successfully. Buy a developer a beer!
