                               Psi4 1.3.2 release

  ==> Input File <==

--------------------------------------------------------------------------
#psi4
#
memory 32 gb

molecule  {
0 1
  O        1.7627890     2.3683800    -0.1458810
  O        1.6754140    -2.4069960    -0.1279020
  C       -1.0252781    -0.0076421     0.3381321
  C       -2.5139530    -0.0194410     0.5634370
  C       -0.3230660    -1.2073880     0.2343750
  C       -0.3370590     1.2052280     0.2348720
  C       -3.2502824    -0.0195257    -0.7773825
  C        1.0346870     1.2106680    -0.0181020
  C        1.0480560    -1.1910380    -0.0190010
  C        1.7368580     0.0147850    -0.1457440
  H       -2.7927850    -0.9030380     1.1483340
  H       -2.8082890     0.8538600     1.1573130
  H       -0.8312370    -2.1635460     0.3309200
  H       -0.8789600     2.1456520     0.3351900
  H       -3.0230990     0.8672620    -1.3527740
  H       -4.3574070    -0.0294260    -0.6053230
  H       -3.0076490    -0.8981260    -1.3586750
  H        2.8074370     0.0467670    -0.3362510
  H        1.1590650     3.1223080    -0.0299710
  H        2.6215300    -2.2543830    -0.2976190
units angstrom
no_reorient  #important for SAPT in psi4, default
symmetry c1  #important for SAPT in psi4, default
}

set PROPERTIES_ORIGIN ["COM"]
properties('MP2/aug-cc-pvtz', properties = ['dipole'])
--------------------------------------------------------------------------

    Molecular point group: c1
  Charge       = 0
  Multiplicity = 1
  Basis Set: AUG-CC-PVTZ
    Blend: AUG-CC-PVTZ
  Basis Set: (AUG-CC-PVTZ AUX)
    Blend: AUG-CC-PVTZ-JKFIT

    Orbital Energies [Eh]
    ---------------------

    Doubly Occupied:

       1A    -20.595640     2A    -20.593242     3A    -11.310431
       4A    -11.308694     5A    -11.251118     6A    -11.232366
       7A    -11.223610     8A    -11.222459     9A    -11.219640
      10A    -11.215637    11A     -1.405315    12A     -1.401780
      13A     -1.150552    14A     -1.064540    15A     -1.001268
      16A     -0.987697    17A     -0.876027    18A     -0.836618
      19A     -0.808447    20A     -0.740030    21A     -0.687593
      22A     -0.675178    23A     -0.666220    24A     -0.612132
      25A     -0.602750    26A     -0.595598    27A     -0.587562
      28A     -0.576382    29A     -0.553643    30A     -0.546313
      31A     -0.524303    32A     -0.521588    33A     -0.491682
      34A     -0.479719    35A     -0.453441    36A     -0.325538
      37A     -0.311276

  @DF-RHF Final Energy:  -458.65925743676661

   => Energetics <=

    Nuclear Repulsion Energy =            507.7690207302492809
    One-Electron Energy =               -1631.5444958967739240
    Two-Electron Energy =                 665.1162177297582048
    Total Energy =                       -458.6592574367665520
  Basis Set: (AUG-CC-PVTZ AUX)
    Blend: AUG-CC-PVTZ-RI
    Molecular point group: c1

    Geometry (in Angstrom), charge = 0, multiplicity = 1:

       Center              X                  Y                   Z               Mass
    ------------   -----------------  -----------------  -----------------  -----------------
         O            1.761087140929     2.368354029771    -0.142485234364    15.994914619570
         O            1.673712140929    -2.407021970229    -0.124506234364    15.994914619570
         C           -1.026979959071    -0.007668070229     0.341527865636    12.000000000000
         C           -2.515654859071    -0.019466970229     0.566832765636    12.000000000000
         C           -0.324767859071    -1.207413970229     0.237770765636    12.000000000000
         C           -0.338760859071     1.205202029771     0.238267765636    12.000000000000
         C           -3.251984259071    -0.019551670229    -0.773986734364    12.000000000000
         C            1.032985140929     1.210642029771    -0.014706234364    12.000000000000
         C            1.046354140929    -1.191063970229    -0.015605234364    12.000000000000
         C            1.735156140929     0.014759029771    -0.142348234364    12.000000000000
         H           -2.794486859071    -0.903063970229     1.151729765636     1.007825032230
         H           -2.809990859071     0.853834029771     1.160708765636     1.007825032230
         H           -0.832938859071    -2.163571970229     0.334315765636     1.007825032230
         H           -0.880661859071     2.145626029771     0.338585765636     1.007825032230
         H           -3.024800859071     0.867236029771    -1.349378234364     1.007825032230
         H           -4.359108859071    -0.029451970229    -0.601927234364     1.007825032230
         H           -3.009350859071    -0.898151970229    -1.355279234364     1.007825032230
         H            2.805735140929     0.046741029771    -0.332855234364     1.007825032230
         H            1.157363140929     3.122282029771    -0.026575234364     1.007825032230
         H            2.619828140929    -2.254408970229    -0.294223234364     1.007825032230

  Basis Set: AUG-CC-PVTZ
    Blend: AUG-CC-PVTZ
  Basis Set: (AUG-CC-PVTZ AUX)
    Blend: AUG-CC-PVTZ-JKFIT
	 Reference Energy          =    -458.6592574367666089 [Eh]
	 Singles Energy            =      -0.0000000000000000 [Eh]
	 Same-Spin Energy          =      -0.4817583782911991 [Eh]
	 Opposite-Spin Energy      =      -1.5052765532277084 [Eh]
	 Correlation Energy        =      -1.9870349315189075 [Eh]
	 Total Energy              =    -460.6462923682855148 [Eh]

	 ================> DF-SCS-MP2 Energies <==================
	-----------------------------------------------------------
	 SCS Same-Spin Scale       =       0.3333333333333333 [-]
	 SCS Opposite-Spin Scale   =       1.2000000000000000 [-]
	 SCS Same-Spin Energy      =      -0.1605861260970664 [Eh]
	 SCS Opposite-Spin Energy  =      -1.8063318638732500 [Eh]
	 SCS Correlation Energy    =      -1.9669179899703164 [Eh]
	 SCS Total Energy          =    -460.6261754267369497 [Eh]
	-----------------------------------------------------------

  Dipole Moment: [D]
     X:    -0.5021      Y:     1.2216      Z:     0.0240     Total:     1.3209

*** Psi4 exiting successfully. Buy a developer a beer!
