                               Psi4 1.3.2 release

  ==> Input File <==

--------------------------------------------------------------------------
#psi4
#
memory 32 gb

molecule  {
0 1
  O        1.7627890     2.3683800    -0.1458810
  O        1.6649478    -2.4125061    -0.1260124
  C       -1.0215720    -0.0077180     0.3641480
  C       -2.5139530    -0.0194410     0.5634370
  C       -0.3230660    -1.2073880     0.2343750
  C       -0.3370590     1.2052280     0.2348720
  C       -3.2735700    -0.0197480    -0.7643280
  C        1.0346870     1.2106680    -0.0181020
  C        1.0480560    -1.1910380    -0.0190010
  C        1.7264708     0.0208508    -0.1439012
  H       -2.7927850    -0.9030380     1.1483340
  H       -2.8082890     0.8538600     1.1573130
  H       -0.8312370    -2.1635460     0.3309200
  H       -0.8789600     2.1456520     0.3351900
  H       -3.0230990     0.8672620    -1.3527740
  H       -4.3574070    -0.0294260    -0.6053230
  H       -3.0076490    -0.8981260    -1.3586750
  H        2.8074370     0.0467670    -0.3362510
  H        1.1590650     3.1223080    -0.0299710
  H        2.6215300    -2.2543830    -0.2976190
units angstrom
no_reorient  #important for SAPT in psi4, default
symmetry c1  #important for SAPT in psi4, default
}

set PROPERTIES_ORIGIN ["COM"]
properties('MP2/aug-cc-pvtz', properties = ['dipole'])
--------------------------------------------------------------------------

    Molecular point group: c1
  Charge       = 0
  Multiplicity = 1
  Basis Set: AUG-CC-PVTZ
    Blend: AUG-CC-PVTZ
  Basis Set: (AUG-CC-PVTZ AUX)
    Blend: AUG-CC-PVTZ-JKFIT

    Orbital Energies [Eh]
    ---------------------

    Doubly Occupied:

       1A    -20.595508     2A    -20.595415     3A    -11.309179
       4A    -11.308610     5A    -11.250872     6A    -11.231879
       7A    -11.224233     8A    -11.222607     9A    -11.219564
      10A    -11.215591    11A     -1.405149    12A     -1.400665
      13A     -1.151037    14A     -1.064543    15A     -1.001357
      16A     -0.987960    17A     -0.876158    18A     -0.836896
      19A     -0.807041    20A     -0.738905    21A     -0.688153
      22A     -0.674272    23A     -0.664612    24A     -0.611755
      25A     -0.602506    26A     -0.594969    27A     -0.587603
      28A     -0.576662    29A     -0.552523    30A     -0.548344
      31A     -0.524404    32A     -0.520900    33A     -0.487535
      34A     -0.481937    35A     -0.454442    36A     -0.326601
      37A     -0.311237

  @DF-RHF Final Energy:  -458.65894542636357

   => Energetics <=

    Nuclear Repulsion Energy =            507.6617197455639143
    One-Electron Energy =               -1631.3380850216990439
    Two-Electron Energy =                 665.0174198497716134
    Total Energy =                       -458.6589454263635162
  Basis Set: (AUG-CC-PVTZ AUX)
    Blend: AUG-CC-PVTZ-RI
    Molecular point group: c1

    Geometry (in Angstrom), charge = 0, multiplicity = 1:

       Center              X                  Y                   Z               Mass
    ------------   -----------------  -----------------  -----------------  -----------------
         O            1.764904318492     2.368491080848    -0.146260056121    15.994914619570
         O            1.667063118492    -2.412395019152    -0.126391456121    15.994914619570
         C           -1.019456681508    -0.007606919152     0.363768943879    12.000000000000
         C           -2.511837681508    -0.019329919152     0.563057943879    12.000000000000
         C           -0.320950681508    -1.207276919152     0.233995943879    12.000000000000
         C           -0.334943681508     1.205339080848     0.234492943879    12.000000000000
         C           -3.271454681508    -0.019636919152    -0.764707056121    12.000000000000
         C            1.036802318492     1.210779080848    -0.018481056121    12.000000000000
         C            1.050171318492    -1.190926919152    -0.019380056121    12.000000000000
         C            1.728586118492     0.020961880848    -0.144280256121    12.000000000000
         H           -2.790669681508    -0.902926919152     1.147954943879     1.007825032230
         H           -2.806173681508     0.853971080848     1.156933943879     1.007825032230
         H           -0.829121681508    -2.163434919152     0.330540943879     1.007825032230
         H           -0.876844681508     2.145763080848     0.334810943879     1.007825032230
         H           -3.020983681508     0.867373080848    -1.353153056121     1.007825032230
         H           -4.355291681508    -0.029314919152    -0.605702056121     1.007825032230
         H           -3.005533681508    -0.898014919152    -1.359054056121     1.007825032230
         H            2.809552318492     0.046878080848    -0.336630056121     1.007825032230
         H            1.161180318492     3.122419080848    -0.030350056121     1.007825032230
         H            2.623645318492    -2.254271919152    -0.297998056121     1.007825032230

  Basis Set: AUG-CC-PVTZ
    Blend: AUG-CC-PVTZ
  Basis Set: (AUG-CC-PVTZ AUX)
    Blend: AUG-CC-PVTZ-JKFIT
	 Reference Energy          =    -458.6589454263635730 [Eh]
	 Singles Energy            =      -0.0000000000000000 [Eh]
	 Same-Spin Energy          =      -0.4819835972118426 [Eh]
	 Opposite-Spin Energy      =      -1.5056901606075130 [Eh]
	 Correlation Energy        =      -1.9876737578193557 [Eh]
	 Total Energy              =    -460.6466191841829527 [Eh]

	 ================> DF-SCS-MP2 Energies <==================
	-----------------------------------------------------------
	 SCS Same-Spin Scale       =       0.3333333333333333 [-]
	 SCS Opposite-Spin Scale   =       1.2000000000000000 [-]
	 SCS Same-Spin Energy      =      -0.1606611990706142 [Eh]
	 SCS Opposite-Spin Energy  =      -1.8068281927290155 [Eh]
	 SCS Correlation Energy    =      -1.9674893917996297 [Eh]
	 SCS Total Energy          =    -460.6264348181632045 [Eh]
	-----------------------------------------------------------

  Dipole Moment: [D]
     X:    -0.4807      Y:     1.2054      Z:     0.0071     Total:     1.2977

*** Psi4 exiting successfully. Buy a developer a beer!
