                               Psi4 1.4a3.dev225

  ==> Input File <==

--------------------------------------------------------------------------
#psi4
#
memory 32 gb

molecule  {
0 1
  O       -1.8116000     2.3801270     0.1363720
  O       -1.7799440    -2.3994320     0.1189850
  C        0.9489570    -0.0306590    -0.3689570
  C        2.4429910    -0.0568610    -0.5708560
  C        0.2354480    -1.2220220    -0.2373930
  C        0.2798030     1.1938580    -0.2383990
  C        3.1984060    -0.0265600     0.7613490
  C       -1.0660255     1.1715708     0.0033061
  C       -1.1396310    -1.1871160     0.0102260
  C       -1.8132500     0.0254130     0.1385790
  H        2.7180680    -0.9584190    -1.1301260
  H        2.7446220     0.7994920    -1.1857830
  H        0.7258350    -2.1872220    -0.3369480
  H        0.8309290     2.1284970    -0.3452230
  H        2.9508560     0.8787730     1.3230630
  H        4.2811760    -0.0477390     0.6027570
  H        2.9230980    -0.8883860     1.3756490
  H       -2.8837580     0.0741080     0.3259950
  H       -1.1979550     3.1274200     0.0245130
  H       -2.7238770    -2.2320380     0.2881370
units angstrom
no_reorient  #important for SAPT in psi4, default
symmetry c1  #important for SAPT in psi4, default
}

set PROPERTIES_ORIGIN ["COM"]
properties('MP2/aug-cc-pvtz', properties = ['dipole'])
--------------------------------------------------------------------------

    Molecular point group: c1
  Charge       = 0
  Multiplicity = 1
  Basis Set: AUG-CC-PVTZ
    Blend: AUG-CC-PVTZ
  Basis Set: (AUG-CC-PVTZ AUX)
    Blend: AUG-CC-PVTZ-JKFIT

    Orbital Energies [Eh]
    ---------------------

    Doubly Occupied:

       1A    -20.594760     2A    -20.585858     3A    -11.310866
       4A    -11.306733     5A    -11.253866     6A    -11.233748
       7A    -11.225375     8A    -11.223236     9A    -11.221058
      10A    -11.219399    11A     -1.403161    12A     -1.378530
      13A     -1.156147    14A     -1.067123    15A     -1.005687
      16A     -0.991205    17A     -0.879062    18A     -0.832534
      19A     -0.806993    20A     -0.735413    21A     -0.689835
      22A     -0.668103    23A     -0.663920    24A     -0.611501
      25A     -0.600038    26A     -0.595042    27A     -0.583288
      28A     -0.567165    29A     -0.555452    30A     -0.551631
      31A     -0.527866    32A     -0.521428    33A     -0.489565
      34A     -0.483661    35A     -0.457202    36A     -0.329053
      37A     -0.317038

  @DF-RHF Final Energy:  -458.65613136241751

   => Energetics <=

    Nuclear Repulsion Energy =            507.4933391335507622
    One-Electron Energy =               -1631.0138585989632247
    Two-Electron Energy =                 664.8643881029950080
    Total Energy =                       -458.6561313624174545
  Basis Set: (AUG-CC-PVTZ AUX)
    Blend: AUG-CC-PVTZ-RI
    Molecular point group: c1

    Geometry (in Angstrom), charge = 0, multiplicity = 1:

       Center              X                  Y                   Z               Mass
    ------------   -----------------  -----------------  -----------------  -----------------
         O           -1.739491182728     2.388799358268     0.143556281437    15.994914619570
         O           -1.707835182728    -2.390759641732     0.126169281437    15.994914619570
         C            1.021065817272    -0.021986641732    -0.361772718563    12.000000000000
         C            2.515099817272    -0.048188641732    -0.563671718563    12.000000000000
         C            0.307556817272    -1.213349641732    -0.230208718563    12.000000000000
         C            0.351911817272     1.202530358268    -0.231214718563    12.000000000000
         C            3.270514817272    -0.017887641732     0.768533281437    12.000000000000
         C           -0.993916682728     1.180243158268     0.010490381437    12.000000000000
         C           -1.067522182728    -1.178443641732     0.017410281437    12.000000000000
         C           -1.741141182728     0.034085358268     0.145763281437    12.000000000000
         H            2.790176817272    -0.949746641732    -1.122941718563     1.007825032230
         H            2.816730817272     0.808164358268    -1.178598718563     1.007825032230
         H            0.797943817272    -2.178549641732    -0.329763718563     1.007825032230
         H            0.903037817272     2.137169358268    -0.338038718563     1.007825032230
         H            3.022964817272     0.887445358268     1.330247281437     1.007825032230
         H            4.353284817272    -0.039066641732     0.609941281437     1.007825032230
         H            2.995206817272    -0.879713641732     1.382833281437     1.007825032230
         H           -2.811649182728     0.082780358268     0.333179281437     1.007825032230
         H           -1.125846182728     3.136092358268     0.031697281437     1.007825032230
         H           -2.651768182728    -2.223365641732     0.295321281437     1.007825032230

  Basis Set: AUG-CC-PVTZ
    Blend: AUG-CC-PVTZ
  Basis Set: (AUG-CC-PVTZ AUX)
    Blend: AUG-CC-PVTZ-JKFIT
	 Reference Energy          =    -458.6561313624175114 [Eh]
	 Singles Energy            =      -0.0000000000000000 [Eh]
	 Same-Spin Energy          =      -0.4818621677671705 [Eh]
	 Opposite-Spin Energy      =      -1.5061444476559047 [Eh]
	 Correlation Energy        =      -1.9880066154230751 [Eh]
	 Total Energy              =    -460.6441379778406144 [Eh]

	 ================> DF-SCS-MP2 Energies <==================
	-----------------------------------------------------------
	 SCS Same-Spin Scale       =       0.3333333333333333 [-]
	 SCS Opposite-Spin Scale   =       1.2000000000000000 [-]
	 SCS Same-Spin Energy      =      -0.1606207225890568 [Eh]
	 SCS Opposite-Spin Energy  =      -1.8073733371870855 [Eh]
	 SCS Correlation Energy    =      -1.9679940597761423 [Eh]
	 SCS Total Energy          =    -460.6241254221936288 [Eh]
	-----------------------------------------------------------

  Dipole Moment: [D]
     X:     0.6934      Y:     0.9184      Z:    -0.0415     Total:     1.1515

*** Psi4 exiting successfully. Buy a developer a beer!
