                               Psi4 1.3.2 release

  ==> Input File <==

--------------------------------------------------------------------------
#psi4
#
memory 32 gb

molecule  {
0 1
  O        1.7627890     2.3683800    -0.1458810
  O        1.6754140    -2.4069960    -0.1279020
  C       -0.9800031     0.0163458     0.3563137
  C       -2.5139530    -0.0194410     0.5634370
  C       -0.3230660    -1.2073880     0.2343750
  C       -0.3370590     1.2052280     0.2348720
  C       -3.2735700    -0.0197480    -0.7643280
  C        1.0346870     1.2106680    -0.0181020
  C        1.0480560    -1.1910380    -0.0190010
  C        1.7368580     0.0147850    -0.1457440
  H       -2.7927850    -0.9030380     1.1483340
  H       -2.8082890     0.8538600     1.1573130
  H       -0.7981274    -2.1810156     0.3247227
  H       -0.8789600     2.1456520     0.3351900
  H       -3.0230990     0.8672620    -1.3527740
  H       -4.3574070    -0.0294260    -0.6053230
  H       -3.0076490    -0.8981260    -1.3586750
  H        2.8074370     0.0467670    -0.3362510
  H        1.1590650     3.1223080    -0.0299710
  H        2.6215300    -2.2543830    -0.2976190
units angstrom
no_reorient  #important for SAPT in psi4, default
symmetry c1  #important for SAPT in psi4, default
}

set PROPERTIES_ORIGIN ["COM"]
properties('MP2/aug-cc-pvtz', properties = ['dipole'])
--------------------------------------------------------------------------

    Molecular point group: c1
  Charge       = 0
  Multiplicity = 1
  Basis Set: AUG-CC-PVTZ
    Blend: AUG-CC-PVTZ
  Basis Set: (AUG-CC-PVTZ AUX)
    Blend: AUG-CC-PVTZ-JKFIT

    Orbital Energies [Eh]
    ---------------------

    Doubly Occupied:

       1A    -20.596603     2A    -20.592990     3A    -11.311455
       4A    -11.307333     5A    -11.248563     6A    -11.232858
       7A    -11.223566     8A    -11.220173     9A    -11.218348
      10A    -11.214818    11A     -1.406176    12A     -1.401774
      13A     -1.154005    14A     -1.058707    15A     -1.004615
      16A     -0.989577    17A     -0.871631    18A     -0.837520
      19A     -0.808334    20A     -0.742379    21A     -0.688673
      22A     -0.674851    23A     -0.665920    24A     -0.609572
      25A     -0.602497    26A     -0.592949    27A     -0.587299
      28A     -0.576601    29A     -0.556555    30A     -0.548154
      31A     -0.526954    32A     -0.520139    33A     -0.488266
      34A     -0.471093    35A     -0.457743    36A     -0.329722
      37A     -0.311335

  @DF-RHF Final Energy:  -458.65802307480402

   => Energetics <=

    Nuclear Repulsion Energy =            507.8836587528301720
    One-Electron Energy =               -1631.7838650760722885
    Two-Electron Energy =                 665.2421832484382094
    Total Energy =                       -458.6580230748039639
  Basis Set: (AUG-CC-PVTZ AUX)
    Blend: AUG-CC-PVTZ-RI
    Molecular point group: c1

    Geometry (in Angstrom), charge = 0, multiplicity = 1:

       Center              X                  Y                   Z               Mass
    ------------   -----------------  -----------------  -----------------  -----------------
         O            1.758934453033     2.366415993835    -0.145154840598    15.994914619570
         O            1.671559453033    -2.408960006165    -0.127175840598    15.994914619570
         C           -0.983857646967     0.014381793835     0.357039859402    12.000000000000
         C           -2.517807546967    -0.021405006165     0.564163159402    12.000000000000
         C           -0.326920546967    -1.209352006165     0.235101159402    12.000000000000
         C           -0.340913546967     1.203263993835     0.235598159402    12.000000000000
         C           -3.277424546967    -0.021712006165    -0.763601840598    12.000000000000
         C            1.030832453033     1.208703993835    -0.017375840598    12.000000000000
         C            1.044201453033    -1.193002006165    -0.018274840598    12.000000000000
         C            1.733003453033     0.012820993835    -0.145017840598    12.000000000000
         H           -2.796639546967    -0.905002006165     1.149060159402     1.007825032230
         H           -2.812143546967     0.851895993835     1.158039159402     1.007825032230
         H           -0.801981946967    -2.182979606165     0.325448859402     1.007825032230
         H           -0.882814546967     2.143687993835     0.335916159402     1.007825032230
         H           -3.026953546967     0.865297993835    -1.352047840598     1.007825032230
         H           -4.361261546967    -0.031390006165    -0.604596840598     1.007825032230
         H           -3.011503546967    -0.900090006165    -1.357948840598     1.007825032230
         H            2.803582453033     0.044802993835    -0.335524840598     1.007825032230
         H            1.155210453033     3.120343993835    -0.029244840598     1.007825032230
         H            2.617675453033    -2.256347006165    -0.296892840598     1.007825032230

  Basis Set: AUG-CC-PVTZ
    Blend: AUG-CC-PVTZ
  Basis Set: (AUG-CC-PVTZ AUX)
    Blend: AUG-CC-PVTZ-JKFIT
	 Reference Energy          =    -458.6580230748040208 [Eh]
	 Singles Energy            =      -0.0000000000000000 [Eh]
	 Same-Spin Energy          =      -0.4814254410873589 [Eh]
	 Opposite-Spin Energy      =      -1.5047780556842696 [Eh]
	 Correlation Energy        =      -1.9862034967716284 [Eh]
	 Total Energy              =    -460.6442265715756434 [Eh]

	 ================> DF-SCS-MP2 Energies <==================
	-----------------------------------------------------------
	 SCS Same-Spin Scale       =       0.3333333333333333 [-]
	 SCS Opposite-Spin Scale   =       1.2000000000000000 [-]
	 SCS Same-Spin Energy      =      -0.1604751470291196 [Eh]
	 SCS Opposite-Spin Energy  =      -1.8057336668211235 [Eh]
	 SCS Correlation Energy    =      -1.9662088138502432 [Eh]
	 SCS Total Energy          =    -460.6242318886542648 [Eh]
	-----------------------------------------------------------

  Dipole Moment: [D]
     X:    -0.4322      Y:     1.2463      Z:     0.0086     Total:     1.3192

*** Psi4 exiting successfully. Buy a developer a beer!
