                               Psi4 1.3.2 release

  ==> Input File <==

--------------------------------------------------------------------------
#psi4
#
memory 32 gb

molecule  {
0 1
  O        1.7627890     2.3683800    -0.1458810
  O        1.6754140    -2.4069960    -0.1279020
  C       -1.0215720    -0.0077180     0.3641480
  C       -2.5139530    -0.0194410     0.5634370
  C       -0.4232634    -1.0353010     0.2529903
  C       -0.3370590     1.2052280     0.2348720
  C       -3.2735700    -0.0197480    -0.7643280
  C        1.0346870     1.2106680    -0.0181020
  C        1.0480560    -1.1910380    -0.0190010
  C        1.7368580     0.0147850    -0.1457440
  H       -2.7927850    -0.9030380     1.1483340
  H       -2.8082890     0.8538600     1.1573130
  H       -0.8312370    -2.1635460     0.3309200
  H       -0.8789600     2.1456520     0.3351900
  H       -3.0230990     0.8672620    -1.3527740
  H       -4.3574070    -0.0294260    -0.6053230
  H       -3.0076490    -0.8981260    -1.3586750
  H        2.8074370     0.0467670    -0.3362510
  H        1.1590650     3.1223080    -0.0299710
  H        2.6215300    -2.2543830    -0.2976190
units angstrom
no_reorient  #important for SAPT in psi4, default
symmetry c1  #important for SAPT in psi4, default
}

set PROPERTIES_ORIGIN ["COM"]
properties('MP2/aug-cc-pvtz', properties = ['dipole'])
--------------------------------------------------------------------------

    Molecular point group: c1
  Charge       = 0
  Multiplicity = 1
  Basis Set: AUG-CC-PVTZ
    Blend: AUG-CC-PVTZ
  Basis Set: (AUG-CC-PVTZ AUX)
    Blend: AUG-CC-PVTZ-JKFIT

    Orbital Energies [Eh]
    ---------------------

    Doubly Occupied:

       1A    -20.605984     2A    -20.593260     3A    -11.323689
       4A    -11.307603     5A    -11.228560     6A    -11.225785
       7A    -11.220040     8A    -11.217214     9A    -11.216641
      10A    -11.215807    11A     -1.410499    12A     -1.402173
      13A     -1.172811    14A     -1.068361    15A     -1.002311
      16A     -0.985458    17A     -0.872431    18A     -0.847602
      19A     -0.807777    20A     -0.738885    21A     -0.690102
      22A     -0.678551    23A     -0.661901    24A     -0.615312
      25A     -0.602774    26A     -0.600008    27A     -0.581196
      28A     -0.578378    29A     -0.558152    30A     -0.550986
      31A     -0.526610    32A     -0.510708    33A     -0.486965
      34A     -0.466365    35A     -0.448589    36A     -0.349609
      37A     -0.301407

  @DF-RHF Final Energy:  -458.59562879289786

   => Energetics <=

    Nuclear Repulsion Energy =            509.7232946841850207
    One-Electron Energy =               -1635.2968400482270681
    Two-Electron Energy =                 666.9779165711441919
    Total Energy =                       -458.5956287928978554
  Basis Set: (AUG-CC-PVTZ AUX)
    Blend: AUG-CC-PVTZ-RI
    Molecular point group: c1

    Geometry (in Angstrom), charge = 0, multiplicity = 1:

       Center              X                  Y                   Z               Mass
    ------------   -----------------  -----------------  -----------------  -----------------
         O            1.771497561677     2.353423239058    -0.147498908793    15.994914619570
         O            1.684122561677    -2.421952760942    -0.129519908793    15.994914619570
         C           -1.012863438323    -0.022674760942     0.362530091207    12.000000000000
         C           -2.505244438323    -0.034397760942     0.561819091207    12.000000000000
         C           -0.414554838323    -1.050257760942     0.251372391207    12.000000000000
         C           -0.328350438323     1.190271239058     0.233254091207    12.000000000000
         C           -3.264861438323    -0.034704760942    -0.765945908793    12.000000000000
         C            1.043395561677     1.195711239058    -0.019719908793    12.000000000000
         C            1.056764561677    -1.205994760942    -0.020618908793    12.000000000000
         C            1.745566561677    -0.000171760942    -0.147361908793    12.000000000000
         H           -2.784076438323    -0.917994760942     1.146716091207     1.007825032230
         H           -2.799580438323     0.838903239058     1.155695091207     1.007825032230
         H           -0.822528438323    -2.178502760942     0.329302091207     1.007825032230
         H           -0.870251438323     2.130695239058     0.333572091207     1.007825032230
         H           -3.014390438323     0.852305239058    -1.354391908793     1.007825032230
         H           -4.348698438323    -0.044382760942    -0.606940908793     1.007825032230
         H           -2.998940438323    -0.913082760942    -1.360292908793     1.007825032230
         H            2.816145561677     0.031810239058    -0.337868908793     1.007825032230
         H            1.167773561677     3.107351239058    -0.031588908793     1.007825032230
         H            2.630238561677    -2.269339760942    -0.299236908793     1.007825032230

  Basis Set: AUG-CC-PVTZ
    Blend: AUG-CC-PVTZ
  Basis Set: (AUG-CC-PVTZ AUX)
    Blend: AUG-CC-PVTZ-JKFIT
	 Reference Energy          =    -458.5956287928978554 [Eh]
	 Singles Energy            =      -0.0000000000000000 [Eh]
	 Same-Spin Energy          =      -0.4814901761980252 [Eh]
	 Opposite-Spin Energy      =      -1.5069062682622421 [Eh]
	 Correlation Energy        =      -1.9883964444602673 [Eh]
	 Total Energy              =    -460.5840252373581052 [Eh]

	 ================> DF-SCS-MP2 Energies <==================
	-----------------------------------------------------------
	 SCS Same-Spin Scale       =       0.3333333333333333 [-]
	 SCS Opposite-Spin Scale   =       1.2000000000000000 [-]
	 SCS Same-Spin Energy      =      -0.1604967253993417 [Eh]
	 SCS Opposite-Spin Energy  =      -1.8082875219146903 [Eh]
	 SCS Correlation Energy    =      -1.9687842473140320 [Eh]
	 SCS Total Energy          =    -460.5644130402118890 [Eh]
	-----------------------------------------------------------

  Dipole Moment: [D]
     X:    -0.2924      Y:     1.0099      Z:    -0.0215     Total:     1.0516

*** Psi4 exiting successfully. Buy a developer a beer!
