                               Psi4 1.3.2 release

  ==> Input File <==

--------------------------------------------------------------------------
#psi4
#
memory 32 gb

molecule  {
0 1
  O        1.7627890     2.3683800    -0.1458810
  O        1.6754140    -2.4069960    -0.1279020
  C       -1.0215720    -0.0077180     0.3641480
  C       -2.5139530    -0.0194410     0.5634370
  C       -0.3230660    -1.2073880     0.2343750
  C       -0.3364235     1.2539118     0.2346796
  C       -3.2735700    -0.0197480    -0.7643280
  C        1.0346870     1.2106680    -0.0181020
  C        1.0480560    -1.1910380    -0.0190010
  C        1.7774671     0.0404204    -0.1532724
  H       -2.7927850    -0.9030380     1.1483340
  H       -2.8082890     0.8538600     1.1573130
  H       -0.8312370    -2.1635460     0.3309200
  H       -0.8789600     2.1456520     0.3351900
  H       -3.0230990     0.8672620    -1.3527740
  H       -4.3574070    -0.0294260    -0.6053230
  H       -3.0076490    -0.8981260    -1.3586750
  H        2.8074370     0.0467670    -0.3362510
  H        1.1590650     3.1223080    -0.0299710
  H        2.6215300    -2.2543830    -0.2976190
units angstrom
no_reorient  #important for SAPT in psi4, default
symmetry c1  #important for SAPT in psi4, default
}

set PROPERTIES_ORIGIN ["COM"]
properties('MP2/aug-cc-pvtz', properties = ['dipole'])
--------------------------------------------------------------------------

    Molecular point group: c1
  Charge       = 0
  Multiplicity = 1
  Basis Set: AUG-CC-PVTZ
    Blend: AUG-CC-PVTZ
  Basis Set: (AUG-CC-PVTZ AUX)
    Blend: AUG-CC-PVTZ-JKFIT

    Orbital Energies [Eh]
    ---------------------

    Doubly Occupied:

       1A    -20.595622     2A    -20.590501     3A    -11.316238
       4A    -11.310362     5A    -11.258365     6A    -11.232706
       7A    -11.223677     8A    -11.221788     9A    -11.220399
      10A    -11.217286    11A     -1.404815    12A     -1.401385
      13A     -1.142983    14A     -1.061337    15A     -1.001558
      16A     -0.985728    17A     -0.879726    18A     -0.833374
      19A     -0.806952    20A     -0.735503    21A     -0.692624
      22A     -0.672798    23A     -0.671604    24A     -0.610982
      25A     -0.602821    26A     -0.596059    27A     -0.589801
      28A     -0.575587    29A     -0.557881    30A     -0.547452
      31A     -0.528119    32A     -0.519113    33A     -0.488948
      34A     -0.480983    35A     -0.448881    36A     -0.321945
      37A     -0.310852

  @DF-RHF Final Energy:  -458.65356505943339

   => Energetics <=

    Nuclear Repulsion Energy =            506.0648967631366872
    One-Electron Energy =               -1628.1234131733558570
    Two-Electron Energy =                 663.4049513507858364
    Total Energy =                       -458.6535650594333902
  Basis Set: (AUG-CC-PVTZ AUX)
    Blend: AUG-CC-PVTZ-RI
    Molecular point group: c1

    Geometry (in Angstrom), charge = 0, multiplicity = 1:

       Center              X                  Y                   Z               Mass
    ------------   -----------------  -----------------  -----------------  -----------------
         O            1.759204321955     2.361920594883    -0.145209942357    15.994914619570
         O            1.671829321955    -2.413455405117    -0.127230942357    15.994914619570
         C           -1.025156678045    -0.014177405117     0.364819057643    12.000000000000
         C           -2.517537678045    -0.025900405117     0.564108057643    12.000000000000
         C           -0.326650678045    -1.213847405117     0.235046057643    12.000000000000
         C           -0.340008178045     1.247452394883     0.235350657643    12.000000000000
         C           -3.277154678045    -0.026207405117    -0.763656942357    12.000000000000
         C            1.031102321955     1.204208594883    -0.017430942357    12.000000000000
         C            1.044471321955    -1.197497405117    -0.018329942357    12.000000000000
         C            1.773882421955     0.033960994883    -0.152601342357    12.000000000000
         H           -2.796369678045    -0.909497405117     1.149005057643     1.007825032230
         H           -2.811873678045     0.847400594883     1.157984057643     1.007825032230
         H           -0.834821678045    -2.170005405117     0.331591057643     1.007825032230
         H           -0.882544678045     2.139192594883     0.335861057643     1.007825032230
         H           -3.026683678045     0.860802594883    -1.352102942357     1.007825032230
         H           -4.360991678045    -0.035885405117    -0.604651942357     1.007825032230
         H           -3.011233678045    -0.904585405117    -1.358003942357     1.007825032230
         H            2.803852321955     0.040307594883    -0.335579942357     1.007825032230
         H            1.155480321955     3.115848594883    -0.029299942357     1.007825032230
         H            2.617945321955    -2.260842405117    -0.296947942357     1.007825032230

  Basis Set: AUG-CC-PVTZ
    Blend: AUG-CC-PVTZ
  Basis Set: (AUG-CC-PVTZ AUX)
    Blend: AUG-CC-PVTZ-JKFIT
	 Reference Energy          =    -458.6535650594333902 [Eh]
	 Singles Energy            =      -0.0000000000000000 [Eh]
	 Same-Spin Energy          =      -0.4813834081417175 [Eh]
	 Opposite-Spin Energy      =      -1.5053773130660120 [Eh]
	 Correlation Energy        =      -1.9867607212077294 [Eh]
	 Total Energy              =    -460.6403257806410920 [Eh]

	 ================> DF-SCS-MP2 Energies <==================
	-----------------------------------------------------------
	 SCS Same-Spin Scale       =       0.3333333333333333 [-]
	 SCS Opposite-Spin Scale   =       1.2000000000000000 [-]
	 SCS Same-Spin Energy      =      -0.1604611360472392 [Eh]
	 SCS Opposite-Spin Energy  =      -1.8064527756792144 [Eh]
	 SCS Correlation Energy    =      -1.9669139117264536 [Eh]
	 SCS Total Energy          =    -460.6204789711598551 [Eh]
	-----------------------------------------------------------

  Dipole Moment: [D]
     X:    -0.5137      Y:     1.1080      Z:     0.0114     Total:     1.2213

*** Psi4 exiting successfully. Buy a developer a beer!
