                               Psi4 1.4a3.dev225

  ==> Input File <==

--------------------------------------------------------------------------
#psi4
#
memory 32 gb

molecule  {
0 1
  O       -1.8116000     2.3801270     0.1363720
  O       -1.7799440    -2.3994320     0.1189850
  C        0.9489570    -0.0306590    -0.3689570
  C        2.4429910    -0.0568610    -0.5708560
  C        0.2354480    -1.2220220    -0.2373930
  C        0.2798030     1.1938580    -0.2383990
  C        3.1984060    -0.0265600     0.7613490
  C       -1.0921630     1.2139390     0.0079710
  C       -1.1489424    -1.2047454     0.0118076
  C       -1.8132500     0.0254130     0.1385790
  H        2.7180680    -0.9584190    -1.1301260
  H        2.7446220     0.7994920    -1.1857830
  H        0.7258350    -2.1872220    -0.3369480
  H        0.8309290     2.1284970    -0.3452230
  H        2.9508560     0.8787730     1.3230630
  H        4.2811760    -0.0477390     0.6027570
  H        2.9230980    -0.8883860     1.3756490
  H       -2.8837580     0.0741080     0.3259950
  H       -1.1979550     3.1274200     0.0245130
  H       -2.7238770    -2.2320380     0.2881370
units angstrom
no_reorient  #important for SAPT in psi4, default
symmetry c1  #important for SAPT in psi4, default
}

set PROPERTIES_ORIGIN ["COM"]
properties('MP2/aug-cc-pvtz', properties = ['dipole'])
--------------------------------------------------------------------------

    Molecular point group: c1
  Charge       = 0
  Multiplicity = 1
  Basis Set: AUG-CC-PVTZ
    Blend: AUG-CC-PVTZ
  Basis Set: (AUG-CC-PVTZ AUX)
    Blend: AUG-CC-PVTZ-JKFIT

    Orbital Energies [Eh]
    ---------------------

    Doubly Occupied:

       1A    -20.597505     2A    -20.595056     3A    -11.311282
       4A    -11.310507     5A    -11.251761     6A    -11.232168
       7A    -11.224413     8A    -11.222271     9A    -11.219423
      10A    -11.216695    11A     -1.412619    12A     -1.402751
      13A     -1.147334    14A     -1.061939    15A     -0.999502
      16A     -0.986290    17A     -0.875901    18A     -0.835611
      19A     -0.809644    20A     -0.740924    21A     -0.687118
      22A     -0.674745    23A     -0.667619    24A     -0.611785
      25A     -0.603134    26A     -0.596106    27A     -0.588998
      28A     -0.578967    29A     -0.551670    30A     -0.547753
      31A     -0.523563    32A     -0.519500    33A     -0.487926
      34A     -0.481449    35A     -0.452324    36A     -0.324336
      37A     -0.309527

  @DF-RHF Final Energy:  -458.65940281296633

   => Energetics <=

    Nuclear Repulsion Energy =            506.9408342288176073
    One-Electron Energy =               -1629.8802450316470640
    Two-Electron Energy =                 664.2800079898631793
    Total Energy =                       -458.6594028129663911
  Basis Set: (AUG-CC-PVTZ AUX)
    Blend: AUG-CC-PVTZ-RI
    Molecular point group: c1

    Geometry (in Angstrom), charge = 0, multiplicity = 1:

       Center              X                  Y                   Z               Mass
    ------------   -----------------  -----------------  -----------------  -----------------
         O           -1.736410189631     2.386649218997     0.143013375356    15.994914619570
         O           -1.704754189631    -2.392909781003     0.125626375356    15.994914619570
         C            1.024146810369    -0.024136781003    -0.362315624644    12.000000000000
         C            2.518180810369    -0.050338781003    -0.564214624644    12.000000000000
         C            0.310637810369    -1.215499781003    -0.230751624644    12.000000000000
         C            0.354992810369     1.200380218997    -0.231757624644    12.000000000000
         C            3.273595810369    -0.020037781003     0.767990375356    12.000000000000
         C           -1.016973189631     1.220461218997     0.014612375356    12.000000000000
         C           -1.073752589631    -1.198223181003     0.018448975356    12.000000000000
         C           -1.738060189631     0.031935218997     0.145220375356    12.000000000000
         H            2.793257810369    -0.951896781003    -1.123484624644     1.007825032230
         H            2.819811810369     0.806014218997    -1.179141624644     1.007825032230
         H            0.801024810369    -2.180699781003    -0.330306624644     1.007825032230
         H            0.906118810369     2.135019218997    -0.338581624644     1.007825032230
         H            3.026045810369     0.885295218997     1.329704375356     1.007825032230
         H            4.356365810369    -0.041216781003     0.609398375356     1.007825032230
         H            2.998287810369    -0.881863781003     1.382290375356     1.007825032230
         H           -2.808568189631     0.080630218997     0.332636375356     1.007825032230
         H           -1.122765189631     3.133942218997     0.031154375356     1.007825032230
         H           -2.648687189631    -2.225515781003     0.294778375356     1.007825032230

  Basis Set: AUG-CC-PVTZ
    Blend: AUG-CC-PVTZ
  Basis Set: (AUG-CC-PVTZ AUX)
    Blend: AUG-CC-PVTZ-JKFIT
	 Reference Energy          =    -458.6594028129663343 [Eh]
	 Singles Energy            =      -0.0000000000000000 [Eh]
	 Same-Spin Energy          =      -0.4817112083648576 [Eh]
	 Opposite-Spin Energy      =      -1.5053024526375558 [Eh]
	 Correlation Energy        =      -1.9870136610024134 [Eh]
	 Total Energy              =    -460.6464164739687703 [Eh]

	 ================> DF-SCS-MP2 Energies <==================
	-----------------------------------------------------------
	 SCS Same-Spin Scale       =       0.3333333333333333 [-]
	 SCS Opposite-Spin Scale   =       1.2000000000000000 [-]
	 SCS Same-Spin Energy      =      -0.1605704027882859 [Eh]
	 SCS Opposite-Spin Energy  =      -1.8063629431650670 [Eh]
	 SCS Correlation Energy    =      -1.9669333459533529 [Eh]
	 SCS Total Energy          =    -460.6263361589196847 [Eh]
	-----------------------------------------------------------

  Dipole Moment: [D]
     X:     0.4496      Y:     1.0977      Z:    -0.0064     Total:     1.1862

*** Psi4 exiting successfully. Buy a developer a beer!
