                               Psi4 1.4a3.dev225

  ==> Input File <==

--------------------------------------------------------------------------
#psi4
#
memory 32 gb

molecule  {
0 1
  O       -1.8116000     2.3801270     0.1363720
  O       -1.7799440    -2.3994320     0.1189850
  C        0.9489570    -0.0306590    -0.3689570
  C        2.4231741    -0.0565135    -0.5681780
  C        0.2354480    -1.2220220    -0.2373930
  C        0.2798030     1.1938580    -0.2383990
  C        3.1984060    -0.0265600     0.7613490
  C       -1.0921630     1.2139390     0.0079710
  C       -1.1396310    -1.1871160     0.0102260
  C       -1.8132500     0.0254130     0.1385790
  H        2.7180680    -0.9584190    -1.1301260
  H        2.7446220     0.7994920    -1.1857830
  H        0.7258350    -2.1872220    -0.3369480
  H        0.8309290     2.1284970    -0.3452230
  H        2.9508560     0.8787730     1.3230630
  H        4.2811760    -0.0477390     0.6027570
  H        2.9230980    -0.8883860     1.3756490
  H       -2.8837580     0.0741080     0.3259950
  H       -1.1979550     3.1274200     0.0245130
  H       -2.7238770    -2.2320380     0.2881370
units angstrom
no_reorient  #important for SAPT in psi4, default
symmetry c1  #important for SAPT in psi4, default
}

set PROPERTIES_ORIGIN ["COM"]
properties('MP2/aug-cc-pvtz', properties = ['dipole'])
--------------------------------------------------------------------------

    Molecular point group: c1
  Charge       = 0
  Multiplicity = 1
  Basis Set: AUG-CC-PVTZ
    Blend: AUG-CC-PVTZ
  Basis Set: (AUG-CC-PVTZ AUX)
    Blend: AUG-CC-PVTZ-JKFIT

    Orbital Energies [Eh]
    ---------------------

    Doubly Occupied:

       1A    -20.595796     2A    -20.593495     3A    -11.311277
       4A    -11.309389     5A    -11.251654     6A    -11.232790
       7A    -11.224738     8A    -11.223518     9A    -11.220374
      10A    -11.217031    11A     -1.404375    12A     -1.400957
      13A     -1.150861    14A     -1.064537    15A     -1.001253
      16A     -0.986839    17A     -0.877905    18A     -0.836403
      19A     -0.806921    20A     -0.739273    21A     -0.687306
      22A     -0.674442    23A     -0.666137    24A     -0.612478
      25A     -0.601599    26A     -0.595190    27A     -0.587146
      28A     -0.575900    29A     -0.553516    30A     -0.549215
      31A     -0.523351    32A     -0.519859    33A     -0.487531
      34A     -0.485230    35A     -0.452929    36A     -0.325741
      37A     -0.311703

  @DF-RHF Final Energy:  -458.65902923447669

   => Energetics <=

    Nuclear Repulsion Energy =            507.3773141633266164
    One-Electron Energy =               -1630.7553704948813902
    Two-Electron Energy =                 664.7190270970779693
    Total Energy =                       -458.6590292344767477
  Basis Set: (AUG-CC-PVTZ AUX)
    Blend: AUG-CC-PVTZ-RI
    Molecular point group: c1

    Geometry (in Angstrom), charge = 0, multiplicity = 1:

       Center              X                  Y                   Z               Mass
    ------------   -----------------  -----------------  -----------------  -----------------
         O           -1.735497118338     2.385086781099     0.142918083236    15.994914619570
         O           -1.703841118338    -2.394472218901     0.125531083236    15.994914619570
         C            1.025059881662    -0.025699218901    -0.362410916764    12.000000000000
         C            2.499276981662    -0.051553718901    -0.561631916764    12.000000000000
         C            0.311550881662    -1.217062218901    -0.230846916764    12.000000000000
         C            0.355905881662     1.198817781099    -0.231852916764    12.000000000000
         C            3.274508881662    -0.021600218901     0.767895083236    12.000000000000
         C           -1.016060118338     1.218898781099     0.014517083236    12.000000000000
         C           -1.063528118338    -1.182156218901     0.016772083236    12.000000000000
         C           -1.737147118338     0.030372781099     0.145125083236    12.000000000000
         H            2.794170881662    -0.953459218901    -1.123579916764     1.007825032230
         H            2.820724881662     0.804451781099    -1.179236916764     1.007825032230
         H            0.801937881662    -2.182262218901    -0.330401916764     1.007825032230
         H            0.907031881662     2.133456781099    -0.338676916764     1.007825032230
         H            3.026958881662     0.883732781099     1.329609083236     1.007825032230
         H            4.357278881662    -0.042779218901     0.609303083236     1.007825032230
         H            2.999200881662    -0.883426218901     1.382195083236     1.007825032230
         H           -2.807655118338     0.079067781099     0.332541083236     1.007825032230
         H           -1.121852118338     3.132379781099     0.031059083236     1.007825032230
         H           -2.647774118338    -2.227078218901     0.294683083236     1.007825032230

  Basis Set: AUG-CC-PVTZ
    Blend: AUG-CC-PVTZ
  Basis Set: (AUG-CC-PVTZ AUX)
    Blend: AUG-CC-PVTZ-JKFIT
	 Reference Energy          =    -458.6590292344766908 [Eh]
	 Singles Energy            =      -0.0000000000000000 [Eh]
	 Same-Spin Energy          =      -0.4818870292430745 [Eh]
	 Opposite-Spin Energy      =      -1.5056729409305150 [Eh]
	 Correlation Energy        =      -1.9875599701735895 [Eh]
	 Total Energy              =    -460.6465892046502972 [Eh]

	 ================> DF-SCS-MP2 Energies <==================
	-----------------------------------------------------------
	 SCS Same-Spin Scale       =       0.3333333333333333 [-]
	 SCS Opposite-Spin Scale   =       1.2000000000000000 [-]
	 SCS Same-Spin Energy      =      -0.1606290097476915 [Eh]
	 SCS Opposite-Spin Energy  =      -1.8068075291166179 [Eh]
	 SCS Correlation Energy    =      -1.9674365388643094 [Eh]
	 SCS Total Energy          =    -460.6264657733410104 [Eh]
	-----------------------------------------------------------

  Dipole Moment: [D]
     X:     0.5197      Y:     1.2230      Z:    -0.0164     Total:     1.3289

*** Psi4 exiting successfully. Buy a developer a beer!
