                               Psi4 1.3.2 release

  ==> Input File <==

--------------------------------------------------------------------------
#psi4
#
memory 32 gb

molecule  {
0 1
  O        1.7627890     2.3683800    -0.1458810
  O        1.6754140    -2.4069960    -0.1279020
  C       -1.0215720    -0.0077180     0.3641480
  C       -2.5139530    -0.0194410     0.5634370
  C       -0.3230660    -1.2073880     0.2343750
  C       -0.3370590     1.2052280     0.2348720
  C       -3.2735700    -0.0197480    -0.7643280
  C        1.1330279     1.2110580    -0.0362378
  C        1.0480560    -1.1910380    -0.0190010
  C        1.7368580     0.0147850    -0.1457440
  H       -2.7927850    -0.9030380     1.1483340
  H       -2.8082890     0.8538600     1.1573130
  H       -0.8312370    -2.1635460     0.3309200
  H       -0.8789600     2.1456520     0.3351900
  H       -3.0230990     0.8672620    -1.3527740
  H       -4.3574070    -0.0294260    -0.6053230
  H       -3.0076490    -0.8981260    -1.3586750
  H        2.8074370     0.0467670    -0.3362510
  H        1.1590650     3.1223080    -0.0299710
  H        2.6215300    -2.2543830    -0.2976190
units angstrom
no_reorient  #important for SAPT in psi4, default
symmetry c1  #important for SAPT in psi4, default
}

set PROPERTIES_ORIGIN ["COM"]
properties('MP2/aug-cc-pvtz', properties = ['dipole'])
--------------------------------------------------------------------------

    Molecular point group: c1
  Charge       = 0
  Multiplicity = 1
  Basis Set: AUG-CC-PVTZ
    Blend: AUG-CC-PVTZ
  Basis Set: (AUG-CC-PVTZ AUX)
    Blend: AUG-CC-PVTZ-JKFIT

    Orbital Energies [Eh]
    ---------------------

    Doubly Occupied:

       1A    -20.603511     2A    -20.594022     3A    -11.315529
       4A    -11.309816     5A    -11.247673     6A    -11.229653
       7A    -11.226253     8A    -11.219325     9A    -11.217596
      10A    -11.211580    11A     -1.430490    12A     -1.402726
      13A     -1.144293    14A     -1.066755    15A     -0.997828
      16A     -0.979999    17A     -0.870465    18A     -0.847914
      19A     -0.806795    20A     -0.741434    21A     -0.702967
      22A     -0.679296    23A     -0.664231    24A     -0.613487
      25A     -0.608600    26A     -0.596906    27A     -0.587700
      28A     -0.581716    29A     -0.552488    30A     -0.540898
      31A     -0.524518    32A     -0.516423    33A     -0.485462
      34A     -0.470641    35A     -0.449941    36A     -0.332615
      37A     -0.297804

  @DF-RHF Final Energy:  -458.64913973313804

   => Energetics <=

    Nuclear Repulsion Energy =            507.1593915083117849
    One-Electron Energy =               -1630.2783631294898896
    Two-Electron Energy =                 664.4698318880400620
    Total Energy =                       -458.6491397331380995
  Basis Set: (AUG-CC-PVTZ AUX)
    Blend: AUG-CC-PVTZ-RI
    Molecular point group: c1

    Geometry (in Angstrom), charge = 0, multiplicity = 1:

       Center              X                  Y                   Z               Mass
    ------------   -----------------  -----------------  -----------------  -----------------
         O            1.754241874427     2.368346051098    -0.144304736749    15.994914619570
         O            1.666866874427    -2.407029948902    -0.126325736749    15.994914619570
         C           -1.030119125573    -0.007751948902     0.365724263251    12.000000000000
         C           -2.522500125573    -0.019474948902     0.565013263251    12.000000000000
         C           -0.331613125573    -1.207421948902     0.235951263251    12.000000000000
         C           -0.345606125573     1.205194051098     0.236448263251    12.000000000000
         C           -3.282117125573    -0.019781948902    -0.762751736749    12.000000000000
         C            1.124480774427     1.211024051098    -0.034661536749    12.000000000000
         C            1.039508874427    -1.191071948902    -0.017424736749    12.000000000000
         C            1.728310874427     0.014751051098    -0.144167736749    12.000000000000
         H           -2.801332125573    -0.903071948902     1.149910263251     1.007825032230
         H           -2.816836125573     0.853826051098     1.158889263251     1.007825032230
         H           -0.839784125573    -2.163579948902     0.332496263251     1.007825032230
         H           -0.887507125573     2.145618051098     0.336766263251     1.007825032230
         H           -3.031646125573     0.867228051098    -1.351197736749     1.007825032230
         H           -4.365954125573    -0.029459948902    -0.603746736749     1.007825032230
         H           -3.016196125573    -0.898159948902    -1.357098736749     1.007825032230
         H            2.798889874427     0.046733051098    -0.334674736749     1.007825032230
         H            1.150517874427     3.122274051098    -0.028394736749     1.007825032230
         H            2.612982874427    -2.254416948902    -0.296042736749     1.007825032230

  Basis Set: AUG-CC-PVTZ
    Blend: AUG-CC-PVTZ
  Basis Set: (AUG-CC-PVTZ AUX)
    Blend: AUG-CC-PVTZ-JKFIT
	 Reference Energy          =    -458.6491397331380426 [Eh]
	 Singles Energy            =      -0.0000000000000000 [Eh]
	 Same-Spin Energy          =      -0.4814599062451640 [Eh]
	 Opposite-Spin Energy      =      -1.5047566700722688 [Eh]
	 Correlation Energy        =      -1.9862165763174329 [Eh]
	 Total Energy              =    -460.6353563094554602 [Eh]

	 ================> DF-SCS-MP2 Energies <==================
	-----------------------------------------------------------
	 SCS Same-Spin Scale       =       0.3333333333333333 [-]
	 SCS Opposite-Spin Scale   =       1.2000000000000000 [-]
	 SCS Same-Spin Energy      =      -0.1604866354150547 [Eh]
	 SCS Opposite-Spin Energy  =      -1.8057080040867224 [Eh]
	 SCS Correlation Energy    =      -1.9661946395017771 [Eh]
	 SCS Total Energy          =    -460.6153343726398361 [Eh]
	-----------------------------------------------------------

  Dipole Moment: [D]
     X:    -0.2296      Y:     1.5107      Z:    -0.0319     Total:     1.5284

*** Psi4 exiting successfully. Buy a developer a beer!
