                               Psi4 1.3.2 release

  ==> Input File <==

--------------------------------------------------------------------------
#psi4
#
memory 32 gb

molecule  {
0 1
  O        1.7627890     2.3683800    -0.1458810
  O        1.6754140    -2.4069960    -0.1279020
  C       -1.0215720    -0.0077180     0.3641480
  C       -2.5139530    -0.0194410     0.5634370
  C       -0.3230660    -1.2073880     0.2343750
  C       -0.3370590     1.2052280     0.2348720
  C       -3.2735700    -0.0197480    -0.7643280
  C        1.0553468     1.2229412    -0.0217526
  C        1.0480560    -1.1910380    -0.0190010
  C        1.7368580     0.0147850    -0.1457440
  H       -2.7927850    -0.9030380     1.1483340
  H       -2.8082890     0.8538600     1.1573130
  H       -0.8312370    -2.1635460     0.3309200
  H       -0.8789600     2.1456520     0.3351900
  H       -3.0230990     0.8672620    -1.3527740
  H       -4.3574070    -0.0294260    -0.6053230
  H       -3.0076490    -0.8981260    -1.3586750
  H        2.8067317     0.0657398    -0.3360835
  H        1.1590650     3.1223080    -0.0299710
  H        2.6215300    -2.2543830    -0.2976190
units angstrom
no_reorient  #important for SAPT in psi4, default
symmetry c1  #important for SAPT in psi4, default
}

set PROPERTIES_ORIGIN ["COM"]
properties('MP2/aug-cc-pvtz', properties = ['dipole'])
--------------------------------------------------------------------------

    Molecular point group: c1
  Charge       = 0
  Multiplicity = 1
  Basis Set: AUG-CC-PVTZ
    Blend: AUG-CC-PVTZ
  Basis Set: (AUG-CC-PVTZ AUX)
    Blend: AUG-CC-PVTZ-JKFIT

    Orbital Energies [Eh]
    ---------------------

    Doubly Occupied:

       1A    -20.599777     2A    -20.592941     3A    -11.312451
       4A    -11.308778     5A    -11.250456     6A    -11.231435
       7A    -11.223220     8A    -11.223039     9A    -11.219093
      10A    -11.214576    11A     -1.416321    12A     -1.401906
      13A     -1.147670    14A     -1.063221    15A     -0.998508
      16A     -0.986837    17A     -0.875074    18A     -0.839674
      19A     -0.807936    20A     -0.741418    21A     -0.688037
      22A     -0.679180    23A     -0.665573    24A     -0.612455
      25A     -0.604979    26A     -0.595789    27A     -0.588192
      28A     -0.579117    29A     -0.552842    30A     -0.546339
      31A     -0.521808    32A     -0.520782    33A     -0.487117
      34A     -0.480714    35A     -0.452275    36A     -0.325804
      37A     -0.307731

  @DF-RHF Final Energy:  -458.65956356035326

   => Energetics <=

    Nuclear Repulsion Energy =            507.3502409138287703
    One-Electron Energy =               -1630.6934800509923207
    Two-Electron Energy =                 664.6836755768101739
    Total Energy =                       -458.6595635603532628
  Basis Set: (AUG-CC-PVTZ AUX)
    Blend: AUG-CC-PVTZ-RI
    Molecular point group: c1

    Geometry (in Angstrom), charge = 0, multiplicity = 1:

       Center              X                  Y                   Z               Mass
    ------------   -----------------  -----------------  -----------------  -----------------
         O            1.760998570269     2.367174747323    -0.145564920936    15.994914619570
         O            1.673623570269    -2.408201252677    -0.127585920936    15.994914619570
         C           -1.023362429731    -0.008923252677     0.364464079064    12.000000000000
         C           -2.515743429731    -0.020646252677     0.563753079064    12.000000000000
         C           -0.324856429731    -1.208593252677     0.234691079064    12.000000000000
         C           -0.338849429731     1.204022747323     0.235188079064    12.000000000000
         C           -3.275360429731    -0.020953252677    -0.764011920936    12.000000000000
         C            1.053556370269     1.221735947323    -0.021436520936    12.000000000000
         C            1.046265570269    -1.192243252677    -0.018684920936    12.000000000000
         C            1.735067570269     0.013579747323    -0.145427920936    12.000000000000
         H           -2.794575429731    -0.904243252677     1.148650079064     1.007825032230
         H           -2.810079429731     0.852654747323     1.157629079064     1.007825032230
         H           -0.833027429731    -2.164751252677     0.331236079064     1.007825032230
         H           -0.880750429731     2.144446747323     0.335506079064     1.007825032230
         H           -3.024889429731     0.866056747323    -1.352457920936     1.007825032230
         H           -4.359197429731    -0.030631252677    -0.605006920936     1.007825032230
         H           -3.009439429731    -0.899331252677    -1.358358920936     1.007825032230
         H            2.804941270269     0.064534547323    -0.335767420936     1.007825032230
         H            1.157274570269     3.121102747323    -0.029654920936     1.007825032230
         H            2.619739570269    -2.255588252677    -0.297302920936     1.007825032230

  Basis Set: AUG-CC-PVTZ
    Blend: AUG-CC-PVTZ
  Basis Set: (AUG-CC-PVTZ AUX)
    Blend: AUG-CC-PVTZ-JKFIT
	 Reference Energy          =    -458.6595635603532628 [Eh]
	 Singles Energy            =      -0.0000000000000000 [Eh]
	 Same-Spin Energy          =      -0.4817134582827590 [Eh]
	 Opposite-Spin Energy      =      -1.5049660310142934 [Eh]
	 Correlation Energy        =      -1.9866794892970523 [Eh]
	 Total Energy              =    -460.6462430496503089 [Eh]

	 ================> DF-SCS-MP2 Energies <==================
	-----------------------------------------------------------
	 SCS Same-Spin Scale       =       0.3333333333333333 [-]
	 SCS Opposite-Spin Scale   =       1.2000000000000000 [-]
	 SCS Same-Spin Energy      =      -0.1605711527609197 [Eh]
	 SCS Opposite-Spin Energy  =      -1.8059592372171520 [Eh]
	 SCS Correlation Energy    =      -1.9665303899780717 [Eh]
	 SCS Total Energy          =    -460.6260939503313239 [Eh]
	-----------------------------------------------------------

  Dipole Moment: [D]
     X:    -0.4090      Y:     1.3569      Z:    -0.0039     Total:     1.4172

*** Psi4 exiting successfully. Buy a developer a beer!
