                               Psi4 1.4a3.dev225

  ==> Input File <==

--------------------------------------------------------------------------
#psi4
#
memory 32 gb

molecule  {
0 1
  O       -1.8116000     2.3801270     0.1363720
  O       -1.7799440    -2.3994320     0.1189850
  C        0.9489570    -0.0306590    -0.3689570
  C        2.4429910    -0.0568610    -0.5708560
  C        0.2354480    -1.2220220    -0.2373930
  C        0.2798030     1.1938580    -0.2383990
  C        3.1984060    -0.0265600     0.7613490
  C       -1.0921630     1.2139390     0.0079710
  C       -1.1396310    -1.1871160     0.0102260
  C       -1.8132500     0.0254130     0.1385790
  H        2.7180680    -0.9584190    -1.1301260
  H        2.7446220     0.7994920    -1.1857830
  H        0.7258350    -2.1872220    -0.3369480
  H        0.8056544     2.0856345    -0.3403241
  H        2.9508560     0.8787730     1.3230630
  H        4.2811760    -0.0477390     0.6027570
  H        2.9230980    -0.8883860     1.3756490
  H       -2.8837580     0.0741080     0.3259950
  H       -1.1979550     3.1274200     0.0245130
  H       -2.7238770    -2.2320380     0.2881370
units angstrom
no_reorient  #important for SAPT in psi4, default
symmetry c1  #important for SAPT in psi4, default
}

set PROPERTIES_ORIGIN ["COM"]
properties('MP2/aug-cc-pvtz', properties = ['dipole'])
--------------------------------------------------------------------------

    Molecular point group: c1
  Charge       = 0
  Multiplicity = 1
  Basis Set: AUG-CC-PVTZ
    Blend: AUG-CC-PVTZ
  Basis Set: (AUG-CC-PVTZ AUX)
    Blend: AUG-CC-PVTZ-JKFIT

    Orbital Energies [Eh]
    ---------------------

    Doubly Occupied:

       1A    -20.595816     2A    -20.593194     3A    -11.310608
       4A    -11.309027     5A    -11.251784     6A    -11.232588
       7A    -11.224152     8A    -11.219924     9A    -11.217274
      10A    -11.216440    11A     -1.404313    12A     -1.400706
      13A     -1.149761    14A     -1.063421    15A     -1.002363
      16A     -0.988175    17A     -0.876808    18A     -0.837456
      19A     -0.807632    20A     -0.739064    21A     -0.690645
      22A     -0.674106    23A     -0.668870    24A     -0.611692
      25A     -0.602760    26A     -0.596021    27A     -0.587213
      28A     -0.575713    29A     -0.554546    30A     -0.548495
      31A     -0.525769    32A     -0.521500    33A     -0.488359
      34A     -0.482603    35A     -0.453457    36A     -0.325641
      37A     -0.311253

  @DF-RHF Final Energy:  -458.65895370630352

   => Energetics <=

    Nuclear Repulsion Energy =            507.3578425558820868
    One-Electron Energy =               -1630.7152978867859474
    Two-Electron Energy =                 664.6985016246002260
    Total Energy =                       -458.6589537063035777
  Basis Set: (AUG-CC-PVTZ AUX)
    Blend: AUG-CC-PVTZ-RI
    Molecular point group: c1

    Geometry (in Angstrom), charge = 0, multiplicity = 1:

       Center              X                  Y                   Z               Mass
    ------------   -----------------  -----------------  -----------------  -----------------
         O           -1.737034985933     2.385429857505     0.143115078559    15.994914619570
         O           -1.705378985933    -2.394129142495     0.125728078559    15.994914619570
         C            1.023522014067    -0.025356142495    -0.362213921441    12.000000000000
         C            2.517556014067    -0.051558142495    -0.564112921441    12.000000000000
         C            0.310013014067    -1.216719142495    -0.230649921441    12.000000000000
         C            0.354368014067     1.199160857505    -0.231655921441    12.000000000000
         C            3.272971014067    -0.021257142495     0.768092078559    12.000000000000
         C           -1.017597985933     1.219241857505     0.014714078559    12.000000000000
         C           -1.065065985933    -1.181813142495     0.016969078559    12.000000000000
         C           -1.738684985933     0.030715857505     0.145322078559    12.000000000000
         H            2.792633014067    -0.953116142495    -1.123382921441     1.007825032230
         H            2.819187014067     0.804794857505    -1.179039921441     1.007825032230
         H            0.800400014067    -2.181919142495    -0.330204921441     1.007825032230
         H            0.880219414067     2.090937357505    -0.333581021441     1.007825032230
         H            3.025421014067     0.884075857505     1.329806078559     1.007825032230
         H            4.355741014067    -0.042436142495     0.609500078559     1.007825032230
         H            2.997663014067    -0.883083142495     1.382392078559     1.007825032230
         H           -2.809192985933     0.079410857505     0.332738078559     1.007825032230
         H           -1.123389985933     3.132722857505     0.031256078559     1.007825032230
         H           -2.649311985933    -2.226735142495     0.294880078559     1.007825032230

  Basis Set: AUG-CC-PVTZ
    Blend: AUG-CC-PVTZ
  Basis Set: (AUG-CC-PVTZ AUX)
    Blend: AUG-CC-PVTZ-JKFIT
	 Reference Energy          =    -458.6589537063035209 [Eh]
	 Singles Energy            =      -0.0000000000000000 [Eh]
	 Same-Spin Energy          =      -0.4816223642462125 [Eh]
	 Opposite-Spin Energy      =      -1.5051938319143550 [Eh]
	 Correlation Energy        =      -1.9868161961605675 [Eh]
	 Total Energy              =    -460.6457699024641101 [Eh]

	 ================> DF-SCS-MP2 Energies <==================
	-----------------------------------------------------------
	 SCS Same-Spin Scale       =       0.3333333333333333 [-]
	 SCS Opposite-Spin Scale   =       1.2000000000000000 [-]
	 SCS Same-Spin Energy      =      -0.1605407880820708 [Eh]
	 SCS Opposite-Spin Energy  =      -1.8062325982972258 [Eh]
	 SCS Correlation Energy    =      -1.9667733863792967 [Eh]
	 SCS Total Energy          =    -460.6257270926828369 [Eh]
	-----------------------------------------------------------

  Dipole Moment: [D]
     X:     0.5338      Y:     1.2435      Z:    -0.0189     Total:     1.3534

*** Psi4 exiting successfully. Buy a developer a beer!
