                               Psi4 1.3.2 release

  ==> Input File <==

--------------------------------------------------------------------------
#psi4
#
memory 32 gb

molecule  {
0 1
  O        1.7627890     2.3683800    -0.1458810
  O        1.7167930    -2.3840338    -0.1353762
  C       -1.0215720    -0.0077180     0.3641480
  C       -2.5139530    -0.0194410     0.5634370
  C       -0.3230660    -1.2073880     0.2343750
  C       -0.3370590     1.2052280     0.2348720
  C       -3.2735700    -0.0197480    -0.7643280
  C        1.0346870     1.2106680    -0.0181020
  C        1.0480560    -1.1910380    -0.0190010
  C        1.7778743    -0.0103916    -0.1530173
  H       -2.7927850    -0.9030380     1.1483340
  H       -2.8082890     0.8538600     1.1573130
  H       -0.8312370    -2.1635460     0.3309200
  H       -0.8789600     2.1456520     0.3351900
  H       -3.0230990     0.8672620    -1.3527740
  H       -4.3574070    -0.0294260    -0.6053230
  H       -3.0076490    -0.8981260    -1.3586750
  H        2.8074370     0.0467670    -0.3362510
  H        1.1590650     3.1223080    -0.0299710
  H        2.6215300    -2.2543830    -0.2976190
units angstrom
no_reorient  #important for SAPT in psi4, default
symmetry c1  #important for SAPT in psi4, default
}

set PROPERTIES_ORIGIN ["COM"]
properties('MP2/aug-cc-pvtz', properties = ['dipole'])
--------------------------------------------------------------------------

    Molecular point group: c1
  Charge       = 0
  Multiplicity = 1
  Basis Set: AUG-CC-PVTZ
    Blend: AUG-CC-PVTZ
  Basis Set: (AUG-CC-PVTZ AUX)
    Blend: AUG-CC-PVTZ-JKFIT

    Orbital Energies [Eh]
    ---------------------

    Doubly Occupied:

       1A    -20.596502     2A    -20.584587     3A    -11.315572
       4A    -11.309862     5A    -11.253483     6A    -11.233080
       7A    -11.223302     8A    -11.223108     9A    -11.220458
      10A    -11.217464    11A     -1.409080    12A     -1.404634
      13A     -1.148478    14A     -1.062174    15A     -1.001954
      16A     -0.987953    17A     -0.878815    18A     -0.836926
      19A     -0.812446    20A     -0.743762    21A     -0.689560
      22A     -0.676108    23A     -0.671467    24A     -0.612724
      25A     -0.602515    26A     -0.596144    27A     -0.587190
      28A     -0.575828    29A     -0.556698    30A     -0.549008
      31A     -0.524279    32A     -0.516136    33A     -0.488881
      34A     -0.485295    35A     -0.452307    36A     -0.323882
      37A     -0.311290

  @DF-RHF Final Energy:  -458.65760221062584

   => Energetics <=

    Nuclear Repulsion Energy =            506.9335648973722641
    One-Electron Energy =               -1629.8164314126390764
    Two-Electron Energy =                 664.2252643046409730
    Total Energy =                       -458.6576022106258961
  Basis Set: (AUG-CC-PVTZ AUX)
    Blend: AUG-CC-PVTZ-RI
    Molecular point group: c1

    Geometry (in Angstrom), charge = 0, multiplicity = 1:

       Center              X                  Y                   Z               Mass
    ------------   -----------------  -----------------  -----------------  -----------------
         O            1.754430488827     2.367908011917    -0.144382964889    15.994914619570
         O            1.708434488827    -2.384505788083    -0.133878164889    15.994914619570
         C           -1.029930511173    -0.008189988083     0.365646035111    12.000000000000
         C           -2.522311511173    -0.019912988083     0.564935035111    12.000000000000
         C           -0.331424511173    -1.207859988083     0.235873035111    12.000000000000
         C           -0.345417511173     1.204756011917     0.236370035111    12.000000000000
         C           -3.281928511173    -0.020219988083    -0.762829964889    12.000000000000
         C            1.026328488827     1.210196011917    -0.016603964889    12.000000000000
         C            1.039697488827    -1.191509988083    -0.017502964889    12.000000000000
         C            1.769515788827    -0.010863588083    -0.151519264889    12.000000000000
         H           -2.801143511173    -0.903509988083     1.149832035111     1.007825032230
         H           -2.816647511173     0.853388011917     1.158811035111     1.007825032230
         H           -0.839595511173    -2.164017988083     0.332418035111     1.007825032230
         H           -0.887318511173     2.145180011917     0.336688035111     1.007825032230
         H           -3.031457511173     0.866790011917    -1.351275964889     1.007825032230
         H           -4.365765511173    -0.029897988083    -0.603824964889     1.007825032230
         H           -3.016007511173    -0.898597988083    -1.357176964889     1.007825032230
         H            2.799078488827     0.046295011917    -0.334752964889     1.007825032230
         H            1.150706488827     3.121836011917    -0.028472964889     1.007825032230
         H            2.613171488827    -2.254854988083    -0.296120964889     1.007825032230

  Basis Set: AUG-CC-PVTZ
    Blend: AUG-CC-PVTZ
  Basis Set: (AUG-CC-PVTZ AUX)
    Blend: AUG-CC-PVTZ-JKFIT
	 Reference Energy          =    -458.6576022106258392 [Eh]
	 Singles Energy            =      -0.0000000000000000 [Eh]
	 Same-Spin Energy          =      -0.4808495027639963 [Eh]
	 Opposite-Spin Energy      =      -1.5036547636830451 [Eh]
	 Correlation Energy        =      -1.9845042664470414 [Eh]
	 Total Energy              =    -460.6421064770729004 [Eh]

	 ================> DF-SCS-MP2 Energies <==================
	-----------------------------------------------------------
	 SCS Same-Spin Scale       =       0.3333333333333333 [-]
	 SCS Opposite-Spin Scale   =       1.2000000000000000 [-]
	 SCS Same-Spin Energy      =      -0.1602831675879988 [Eh]
	 SCS Opposite-Spin Energy  =      -1.8043857164196540 [Eh]
	 SCS Correlation Energy    =      -1.9646688840076527 [Eh]
	 SCS Total Energy          =    -460.6222710946335042 [Eh]
	-----------------------------------------------------------

  Dipole Moment: [D]
     X:    -0.5789      Y:     1.2826      Z:     0.0205     Total:     1.4073

*** Psi4 exiting successfully. Buy a developer a beer!
