                               Psi4 1.3.2 release

  ==> Input File <==

--------------------------------------------------------------------------
#psi4
#
memory 32 gb

molecule  {
0 1
  O        1.7627890     2.3683800    -0.1458810
  O        1.6754140    -2.4069960    -0.1279020
  C       -1.0215720    -0.0077180     0.3641480
  C       -2.5139530    -0.0194410     0.5634370
  C       -0.3230660    -1.2073880     0.2343750
  C       -0.3370590     1.2052280     0.2348720
  C       -3.2735700    -0.0197480    -0.7643280
  C        1.0346870     1.2106680    -0.0181020
  C        0.8513994    -1.1933830     0.0173401
  C        1.7368580     0.0147850    -0.1457440
  H       -2.7927850    -0.9030380     1.1483340
  H       -2.8082890     0.8538600     1.1573130
  H       -0.8312370    -2.1635460     0.3309200
  H       -0.8789600     2.1456520     0.3351900
  H       -3.0230990     0.8672620    -1.3527740
  H       -4.3574070    -0.0294260    -0.6053230
  H       -3.0076490    -0.8981260    -1.3586750
  H        2.8074370     0.0467670    -0.3362510
  H        1.1590650     3.1223080    -0.0299710
  H        2.6215300    -2.2543830    -0.2976190
units angstrom
no_reorient  #important for SAPT in psi4, default
symmetry c1  #important for SAPT in psi4, default
}

set PROPERTIES_ORIGIN ["COM"]
properties('MP2/aug-cc-pvtz', properties = ['dipole'])
--------------------------------------------------------------------------

    Molecular point group: c1
  Charge       = 0
  Multiplicity = 1
  Basis Set: AUG-CC-PVTZ
    Blend: AUG-CC-PVTZ
  Basis Set: (AUG-CC-PVTZ AUX)
    Blend: AUG-CC-PVTZ-JKFIT

    Orbital Energies [Eh]
    ---------------------

    Doubly Occupied:

       1A    -20.594990     2A    -20.565251     3A    -11.307702
       4A    -11.295187     5A    -11.262049     6A    -11.238402
       7A    -11.232582     8A    -11.231644     9A    -11.225090
      10A    -11.201468    11A     -1.404475    12A     -1.346224
      13A     -1.173237    14A     -1.065535    15A     -1.040528
      16A     -0.980798    17A     -0.886546    18A     -0.818179
      19A     -0.811180    20A     -0.732025    21A     -0.695877
      22A     -0.675124    23A     -0.658307    24A     -0.615269
      25A     -0.603062    26A     -0.592846    27A     -0.587547
      28A     -0.560793    29A     -0.555431    30A     -0.549466
      31A     -0.528231    32A     -0.499413    33A     -0.492027
      34A     -0.480546    35A     -0.461996    36A     -0.347263
      37A     -0.313029

  @DF-RHF Final Energy:  -458.59491805905327

   => Energetics <=

    Nuclear Repulsion Energy =            508.7118177823704173
    One-Electron Energy =               -1633.3548311181671124
    Two-Electron Energy =                 666.0480952767434246
    Total Energy =                       -458.5949180590532706
  Basis Set: (AUG-CC-PVTZ AUX)
    Blend: AUG-CC-PVTZ-RI
    Molecular point group: c1

    Geometry (in Angstrom), charge = 0, multiplicity = 1:

       Center              X                  Y                   Z               Mass
    ------------   -----------------  -----------------  -----------------  -----------------
         O            1.779881182305     2.368583759916    -0.149039522675    15.994914619570
         O            1.692506182305    -2.406792240084    -0.131060522675    15.994914619570
         C           -1.004479817695    -0.007514240084     0.360989477325    12.000000000000
         C           -2.496860817695    -0.019237240084     0.560278477325    12.000000000000
         C           -0.305973817695    -1.207184240084     0.231216477325    12.000000000000
         C           -0.319966817695     1.205431759916     0.231713477325    12.000000000000
         C           -3.256477817695    -0.019544240084    -0.767486522675    12.000000000000
         C            1.051779182305     1.210871759916    -0.021260522675    12.000000000000
         C            0.868491582305    -1.193179240084     0.014181577325    12.000000000000
         C            1.753950182305     0.014988759916    -0.148902522675    12.000000000000
         H           -2.775692817695    -0.902834240084     1.145175477325     1.007825032230
         H           -2.791196817695     0.854063759916     1.154154477325     1.007825032230
         H           -0.814144817695    -2.163342240084     0.327761477325     1.007825032230
         H           -0.861867817695     2.145855759916     0.332031477325     1.007825032230
         H           -3.006006817695     0.867465759916    -1.355932522675     1.007825032230
         H           -4.340314817695    -0.029222240084    -0.608481522675     1.007825032230
         H           -2.990556817695    -0.897922240084    -1.361833522675     1.007825032230
         H            2.824529182305     0.046970759916    -0.339409522675     1.007825032230
         H            1.176157182305     3.122511759916    -0.033129522675     1.007825032230
         H            2.638622182305    -2.254179240084    -0.300777522675     1.007825032230

  Basis Set: AUG-CC-PVTZ
    Blend: AUG-CC-PVTZ
  Basis Set: (AUG-CC-PVTZ AUX)
    Blend: AUG-CC-PVTZ-JKFIT
	 Reference Energy          =    -458.5949180590532706 [Eh]
	 Singles Energy            =      -0.0000000000000000 [Eh]
	 Same-Spin Energy          =      -0.4812893420104475 [Eh]
	 Opposite-Spin Energy      =      -1.5077342408288268 [Eh]
	 Correlation Energy        =      -1.9890235828392742 [Eh]
	 Total Energy              =    -460.5839416418925225 [Eh]

	 ================> DF-SCS-MP2 Energies <==================
	-----------------------------------------------------------
	 SCS Same-Spin Scale       =       0.3333333333333333 [-]
	 SCS Opposite-Spin Scale   =       1.2000000000000000 [-]
	 SCS Same-Spin Energy      =      -0.1604297806701492 [Eh]
	 SCS Opposite-Spin Energy  =      -1.8092810889945921 [Eh]
	 SCS Correlation Energy    =      -1.9697108696647412 [Eh]
	 SCS Total Energy          =    -460.5646289287180366 [Eh]
	-----------------------------------------------------------

  Dipole Moment: [D]
     X:    -1.2185      Y:     1.8086      Z:     0.1202     Total:     2.1840

*** Psi4 exiting successfully. Buy a developer a beer!
