                               Psi4 1.3.2 release

  ==> Input File <==

--------------------------------------------------------------------------
#psi4
#
memory 32 gb

molecule  {
0 1
  O        1.7726902     2.3618853    -0.1477437
  O        1.6754140    -2.4069960    -0.1279020
  C       -1.0215720    -0.0077180     0.3641480
  C       -2.5139530    -0.0194410     0.5634370
  C       -0.3230660    -1.2073880     0.2343750
  C       -0.3369723     1.1930559     0.2347875
  C       -3.2735700    -0.0197480    -0.7643280
  C        1.0346870     1.2106680    -0.0181020
  C        1.0480560    -1.1910380    -0.0190010
  C        1.7368580     0.0147850    -0.1457440
  H       -2.7927850    -0.9030380     1.1483340
  H       -2.8082890     0.8538600     1.1573130
  H       -0.8312370    -2.1635460     0.3309200
  H       -0.8789600     2.1456520     0.3351900
  H       -3.0230990     0.8672620    -1.3527740
  H       -4.3574070    -0.0294260    -0.6053230
  H       -3.0076490    -0.8981260    -1.3586750
  H        2.8074370     0.0467670    -0.3362510
  H        1.1590650     3.1223080    -0.0299710
  H        2.6215300    -2.2543830    -0.2976190
units angstrom
no_reorient  #important for SAPT in psi4, default
symmetry c1  #important for SAPT in psi4, default
}

set PROPERTIES_ORIGIN ["COM"]
properties('MP2/aug-cc-pvtz', properties = ['dipole'])
--------------------------------------------------------------------------

    Molecular point group: c1
  Charge       = 0
  Multiplicity = 1
  Basis Set: AUG-CC-PVTZ
    Blend: AUG-CC-PVTZ
  Basis Set: (AUG-CC-PVTZ AUX)
    Blend: AUG-CC-PVTZ-JKFIT

    Orbital Energies [Eh]
    ---------------------

    Doubly Occupied:

       1A    -20.597773     2A    -20.592890     3A    -11.310295
       4A    -11.308169     5A    -11.250116     6A    -11.232179
       7A    -11.223633     8A    -11.223188     9A    -11.219727
      10A    -11.215659    11A     -1.404257    12A     -1.401217
      13A     -1.151517    14A     -1.064015    15A     -1.000879
      16A     -0.988483    17A     -0.876444    18A     -0.835473
      19A     -0.808103    20A     -0.740308    21A     -0.686807
      22A     -0.673563    23A     -0.664668    24A     -0.612350
      25A     -0.602429    26A     -0.595115    27A     -0.587531
      28A     -0.576405    29A     -0.552905    30A     -0.549273
      31A     -0.522466    32A     -0.520515    33A     -0.487917
      34A     -0.483083    35A     -0.454698    36A     -0.326474
      37A     -0.311125

  @DF-RHF Final Energy:  -458.65893794683984

   => Energetics <=

    Nuclear Repulsion Energy =            507.6423469232095727
    One-Electron Energy =               -1631.2992772206782774
    Two-Electron Energy =                 664.9979923506289197
    Total Energy =                       -458.6589379468398420
  Basis Set: (AUG-CC-PVTZ AUX)
    Blend: AUG-CC-PVTZ-RI
    Molecular point group: c1

    Geometry (in Angstrom), charge = 0, multiplicity = 1:

       Center              X                  Y                   Z               Mass
    ------------   -----------------  -----------------  -----------------  -----------------
         O            1.771535670563     2.363695567175    -0.147520550902    15.994914619570
         O            1.674259470563    -2.405185732825    -0.127678850902    15.994914619570
         C           -1.022726529437    -0.005907732825     0.364371149098    12.000000000000
         C           -2.515107529437    -0.017630732825     0.563660149098    12.000000000000
         C           -0.324220529437    -1.205577732825     0.234598149098    12.000000000000
         C           -0.338126829437     1.194866167175     0.235010649098    12.000000000000
         C           -3.274724529437    -0.017937732825    -0.764104850902    12.000000000000
         C            1.033532470563     1.212478267175    -0.017878850902    12.000000000000
         C            1.046901470563    -1.189227732825    -0.018777850902    12.000000000000
         C            1.735703470563     0.016595267175    -0.145520850902    12.000000000000
         H           -2.793939529437    -0.901227732825     1.148557149098     1.007825032230
         H           -2.809443529437     0.855670267175     1.157536149098     1.007825032230
         H           -0.832391529437    -2.161735732825     0.331143149098     1.007825032230
         H           -0.880114529437     2.147462267175     0.335413149098     1.007825032230
         H           -3.024253529437     0.869072267175    -1.352550850902     1.007825032230
         H           -4.358561529437    -0.027615732825    -0.605099850902     1.007825032230
         H           -3.008803529437    -0.896315732825    -1.358451850902     1.007825032230
         H            2.806282470563     0.048577267175    -0.336027850902     1.007825032230
         H            1.157910470563     3.124118267175    -0.029747850902     1.007825032230
         H            2.620375470563    -2.252572732825    -0.297395850902     1.007825032230

  Basis Set: AUG-CC-PVTZ
    Blend: AUG-CC-PVTZ
  Basis Set: (AUG-CC-PVTZ AUX)
    Blend: AUG-CC-PVTZ-JKFIT
	 Reference Energy          =    -458.6589379468398420 [Eh]
	 Singles Energy            =      -0.0000000000000000 [Eh]
	 Same-Spin Energy          =      -0.4819928245584857 [Eh]
	 Opposite-Spin Energy      =      -1.5057118646981895 [Eh]
	 Correlation Energy        =      -1.9877046892566752 [Eh]
	 Total Energy              =    -460.6466426360965443 [Eh]

	 ================> DF-SCS-MP2 Energies <==================
	-----------------------------------------------------------
	 SCS Same-Spin Scale       =       0.3333333333333333 [-]
	 SCS Opposite-Spin Scale   =       1.2000000000000000 [-]
	 SCS Same-Spin Energy      =      -0.1606642748528286 [Eh]
	 SCS Opposite-Spin Energy  =      -1.8068542376378274 [Eh]
	 SCS Correlation Energy    =      -1.9675185124906560 [Eh]
	 SCS Total Energy          =    -460.6264564593304840 [Eh]
	-----------------------------------------------------------

  Dipole Moment: [D]
     X:    -0.5030      Y:     1.2433      Z:     0.0100     Total:     1.3412

*** Psi4 exiting successfully. Buy a developer a beer!
