                               Psi4 1.3.2 release

  ==> Input File <==

--------------------------------------------------------------------------
#psi4
#
memory 32 gb

molecule  {
0 1
  O        1.7627890     2.3683800    -0.1458810
  O        1.6754140    -2.4069960    -0.1279020
  C       -1.0264755     0.0370076     0.3369886
  C       -2.5139530    -0.0194410     0.5634370
  C       -0.3230660    -1.2073880     0.2343750
  C       -0.3370590     1.2052280     0.2348720
  C       -3.2735700    -0.0197480    -0.7643280
  C        1.0346870     1.2106680    -0.0181020
  C        1.0480560    -1.1910380    -0.0190010
  C        1.7368580     0.0147850    -0.1457440
  H       -2.8293622    -0.8920657     1.1462223
  H       -2.8082890     0.8538600     1.1573130
  H       -0.8312370    -2.1635460     0.3309200
  H       -0.8789600     2.1456520     0.3351900
  H       -3.0230990     0.8672620    -1.3527740
  H       -4.3574070    -0.0294260    -0.6053230
  H       -3.0076490    -0.8981260    -1.3586750
  H        2.8074370     0.0467670    -0.3362510
  H        1.1590650     3.1223080    -0.0299710
  H        2.6215300    -2.2543830    -0.2976190
units angstrom
no_reorient  #important for SAPT in psi4, default
symmetry c1  #important for SAPT in psi4, default
}

set PROPERTIES_ORIGIN ["COM"]
properties('MP2/aug-cc-pvtz', properties = ['dipole'])
--------------------------------------------------------------------------

    Molecular point group: c1
  Charge       = 0
  Multiplicity = 1
  Basis Set: AUG-CC-PVTZ
    Blend: AUG-CC-PVTZ
  Basis Set: (AUG-CC-PVTZ AUX)
    Blend: AUG-CC-PVTZ-JKFIT

    Orbital Energies [Eh]
    ---------------------

    Doubly Occupied:

       1A    -20.596980     2A    -20.591988     3A    -11.311916
       4A    -11.306904     5A    -11.251826     6A    -11.232307
       7A    -11.224053     8A    -11.221557     9A    -11.219175
      10A    -11.217401    11A     -1.406313    12A     -1.400859
      13A     -1.151096    14A     -1.064329    15A     -1.002357
      16A     -0.987769    17A     -0.875332    18A     -0.836135
      19A     -0.806909    20A     -0.744226    21A     -0.687381
      22A     -0.674200    23A     -0.665479    24A     -0.615686
      25A     -0.602198    26A     -0.594703    27A     -0.586948
      28A     -0.576222    29A     -0.552082    30A     -0.548981
      31A     -0.522170    32A     -0.521326    33A     -0.490819
      34A     -0.478817    35A     -0.454275    36A     -0.328574
      37A     -0.308626

  @DF-RHF Final Energy:  -458.65697580120820

   => Energetics <=

    Nuclear Repulsion Energy =            507.5293417710004178
    One-Electron Energy =               -1631.0568019446802737
    Two-Electron Energy =                 664.8704843724716511
    Total Energy =                       -458.6569758012082048
  Basis Set: (AUG-CC-PVTZ AUX)
    Blend: AUG-CC-PVTZ-RI
    Molecular point group: c1

    Geometry (in Angstrom), charge = 0, multiplicity = 1:

       Center              X                  Y                   Z               Mass
    ------------   -----------------  -----------------  -----------------  -----------------
         O            1.763482216017     2.364412590444    -0.143505048475    15.994914619570
         O            1.676107216017    -2.410963409556    -0.125526048475    15.994914619570
         C           -1.025782283983     0.033040190444     0.339364551525    12.000000000000
         C           -2.513259783983    -0.023408409556     0.565812951525    12.000000000000
         C           -0.322372783983    -1.211355409556     0.236750951525    12.000000000000
         C           -0.336365783983     1.201260590444     0.237247951525    12.000000000000
         C           -3.272876783983    -0.023715409556    -0.761952048475    12.000000000000
         C            1.035380216017     1.206700590444    -0.015726048475    12.000000000000
         C            1.048749216017    -1.195005409556    -0.016625048475    12.000000000000
         C            1.737551216017     0.010817590444    -0.143368048475    12.000000000000
         H           -2.828668983983    -0.896033109556     1.148598251525     1.007825032230
         H           -2.807595783983     0.849892590444     1.159688951525     1.007825032230
         H           -0.830543783983    -2.167513409556     0.333295951525     1.007825032230
         H           -0.878266783983     2.141684590444     0.337565951525     1.007825032230
         H           -3.022405783983     0.863294590444    -1.350398048475     1.007825032230
         H           -4.356713783983    -0.033393409556    -0.602947048475     1.007825032230
         H           -3.006955783983    -0.902093409556    -1.356299048475     1.007825032230
         H            2.808130216017     0.042799590444    -0.333875048475     1.007825032230
         H            1.159758216017     3.118340590444    -0.027595048475     1.007825032230
         H            2.622223216017    -2.258350409556    -0.295243048475     1.007825032230

  Basis Set: AUG-CC-PVTZ
    Blend: AUG-CC-PVTZ
  Basis Set: (AUG-CC-PVTZ AUX)
    Blend: AUG-CC-PVTZ-JKFIT
	 Reference Energy          =    -458.6569758012082048 [Eh]
	 Singles Energy            =      -0.0000000000000000 [Eh]
	 Same-Spin Energy          =      -0.4817973304807280 [Eh]
	 Opposite-Spin Energy      =      -1.5054430559220666 [Eh]
	 Correlation Energy        =      -1.9872403864027945 [Eh]
	 Total Energy              =    -460.6442161876109935 [Eh]

	 ================> DF-SCS-MP2 Energies <==================
	-----------------------------------------------------------
	 SCS Same-Spin Scale       =       0.3333333333333333 [-]
	 SCS Opposite-Spin Scale   =       1.2000000000000000 [-]
	 SCS Same-Spin Energy      =      -0.1605991101602426 [Eh]
	 SCS Opposite-Spin Energy  =      -1.8065316671064799 [Eh]
	 SCS Correlation Energy    =      -1.9671307772667226 [Eh]
	 SCS Total Energy          =    -460.6241065784749367 [Eh]
	-----------------------------------------------------------

  Dipole Moment: [D]
     X:    -0.5099      Y:     1.2741      Z:     0.0336     Total:     1.3727

*** Psi4 exiting successfully. Buy a developer a beer!
