                               Psi4 1.3.2 release

  ==> Input File <==

--------------------------------------------------------------------------
#psi4
#
memory 32 gb

molecule  {
0 1
  O        1.7627890     2.3683800    -0.1458810
  O        1.6333237    -2.4284755    -0.1200034
  C       -1.0215720    -0.0077180     0.3641480
  C       -2.5139530    -0.0194410     0.5634370
  C       -0.3216197    -1.2560389     0.2343874
  C       -0.3370590     1.2052280     0.2348720
  C       -3.2735700    -0.0197480    -0.7643280
  C        1.0346870     1.2106680    -0.0181020
  C        1.0480560    -1.1910380    -0.0190010
  C        1.7368580     0.0147850    -0.1457440
  H       -2.7927850    -0.9030380     1.1483340
  H       -2.8082890     0.8538600     1.1573130
  H       -0.8312370    -2.1635460     0.3309200
  H       -0.8789600     2.1456520     0.3351900
  H       -3.0230990     0.8672620    -1.3527740
  H       -4.3574070    -0.0294260    -0.6053230
  H       -3.0076490    -0.8981260    -1.3586750
  H        2.8074370     0.0467670    -0.3362510
  H        1.1590650     3.1223080    -0.0299710
  H        2.6215300    -2.2543830    -0.2976190
units angstrom
no_reorient  #important for SAPT in psi4, default
symmetry c1  #important for SAPT in psi4, default
}

set PROPERTIES_ORIGIN ["COM"]
properties('MP2/aug-cc-pvtz', properties = ['dipole'])
--------------------------------------------------------------------------

    Molecular point group: c1
  Charge       = 0
  Multiplicity = 1
  Basis Set: AUG-CC-PVTZ
    Blend: AUG-CC-PVTZ
  Basis Set: (AUG-CC-PVTZ AUX)
    Blend: AUG-CC-PVTZ-JKFIT

    Orbital Energies [Eh]
    ---------------------

    Doubly Occupied:

       1A    -20.597070     2A    -20.596256     3A    -11.312467
       4A    -11.307665     5A    -11.256117     6A    -11.231763
       7A    -11.224835     8A    -11.223589     9A    -11.219685
      10A    -11.214353    11A     -1.406180    12A     -1.394488
      13A     -1.145188    14A     -1.063084    15A     -1.000102
      16A     -0.986382    17A     -0.876333    18A     -0.836523
      19A     -0.801099    20A     -0.736330    21A     -0.690141
      22A     -0.676325    23A     -0.657967    24A     -0.611321
      25A     -0.601847    26A     -0.594451    27A     -0.590529
      28A     -0.576021    29A     -0.550792    30A     -0.548575
      31A     -0.529299    32A     -0.521977    33A     -0.486757
      34A     -0.480978    35A     -0.450949    36A     -0.324605
      37A     -0.309881

  @DF-RHF Final Energy:  -458.65082043877123

   => Energetics <=

    Nuclear Repulsion Energy =            506.6759180822431290
    One-Electron Energy =               -1629.3896296092107150
    Two-Electron Energy =                 664.0628910881962383
    Total Energy =                       -458.6508204387712340
  Basis Set: (AUG-CC-PVTZ AUX)
    Blend: AUG-CC-PVTZ-RI
    Molecular point group: c1

    Geometry (in Angstrom), charge = 0, multiplicity = 1:

       Center              X                  Y                   Z               Mass
    ------------   -----------------  -----------------  -----------------  -----------------
         O            1.767539415471     2.375096732150    -0.146797100181    15.994914619570
         O            1.638074115471    -2.421758767850    -0.120919500181    15.994914619570
         C           -1.016821584529    -0.001001267850     0.363231899819    12.000000000000
         C           -2.509202584529    -0.012724267850     0.562520899819    12.000000000000
         C           -0.316869284529    -1.249322167850     0.233471299819    12.000000000000
         C           -0.332308584529     1.211944732150     0.233955899819    12.000000000000
         C           -3.268819584529    -0.013031267850    -0.765244100181    12.000000000000
         C            1.039437415471     1.217384732150    -0.019018100181    12.000000000000
         C            1.052806415471    -1.184321267850    -0.019917100181    12.000000000000
         C            1.741608415471     0.021501732150    -0.146660100181    12.000000000000
         H           -2.788034584529    -0.896321267850     1.147417899819     1.007825032230
         H           -2.803538584529     0.860576732150     1.156396899819     1.007825032230
         H           -0.826486584529    -2.156829267850     0.330003899819     1.007825032230
         H           -0.874209584529     2.152368732150     0.334273899819     1.007825032230
         H           -3.018348584529     0.873978732150    -1.353690100181     1.007825032230
         H           -4.352656584529    -0.022709267850    -0.606239100181     1.007825032230
         H           -3.002898584529    -0.891409267850    -1.359591100181     1.007825032230
         H            2.812187415471     0.053483732150    -0.337167100181     1.007825032230
         H            1.163815415471     3.129024732150    -0.030887100181     1.007825032230
         H            2.626280415471    -2.247666267850    -0.298535100181     1.007825032230

  Basis Set: AUG-CC-PVTZ
    Blend: AUG-CC-PVTZ
  Basis Set: (AUG-CC-PVTZ AUX)
    Blend: AUG-CC-PVTZ-JKFIT
	 Reference Energy          =    -458.6508204387712340 [Eh]
	 Singles Energy            =      -0.0000000000000000 [Eh]
	 Same-Spin Energy          =      -0.4824033692283921 [Eh]
	 Opposite-Spin Energy      =      -1.5072477121196441 [Eh]
	 Correlation Energy        =      -1.9896510813480361 [Eh]
	 Total Energy              =    -460.6404715201192630 [Eh]

	 ================> DF-SCS-MP2 Energies <==================
	-----------------------------------------------------------
	 SCS Same-Spin Scale       =       0.3333333333333333 [-]
	 SCS Opposite-Spin Scale   =       1.2000000000000000 [-]
	 SCS Same-Spin Energy      =      -0.1608011230761307 [Eh]
	 SCS Opposite-Spin Energy  =      -1.8086972545435729 [Eh]
	 SCS Correlation Energy    =      -1.9694983776197035 [Eh]
	 SCS Total Energy          =    -460.6203188163909203 [Eh]
	-----------------------------------------------------------

  Dipole Moment: [D]
     X:    -0.4558      Y:     1.2593      Z:     0.0034     Total:     1.3393

*** Psi4 exiting successfully. Buy a developer a beer!
