                               Psi4 1.4a3.dev225

  ==> Input File <==

--------------------------------------------------------------------------
#psi4
#
memory 32 gb

molecule  {
0 1
  O       -1.8116000     2.3801270     0.1363720
  O       -1.7799440    -2.3994320     0.1189850
  C        0.9489570    -0.0306590    -0.3689570
  C        2.4429910    -0.0568610    -0.5708560
  C        0.2456782    -1.2049403    -0.2392794
  C        0.2798030     1.1938580    -0.2383990
  C        3.1984060    -0.0265600     0.7613490
  C       -1.0921630     1.2139390     0.0079710
  C       -1.1396310    -1.1871160     0.0102260
  C       -1.8132500     0.0254130     0.1385790
  H        2.7180680    -0.9584190    -1.1301260
  H        2.7446220     0.7994920    -1.1857830
  H        0.7258350    -2.1872220    -0.3369480
  H        0.8309290     2.1284970    -0.3452230
  H        2.9508560     0.8787730     1.3230630
  H        4.2811760    -0.0477390     0.6027570
  H        2.9230980    -0.8883860     1.3756490
  H       -2.8837580     0.0741080     0.3259950
  H       -1.1979550     3.1274200     0.0245130
  H       -2.7238770    -2.2320380     0.2881370
units angstrom
no_reorient  #important for SAPT in psi4, default
symmetry c1  #important for SAPT in psi4, default
}

set PROPERTIES_ORIGIN ["COM"]
properties('MP2/aug-cc-pvtz', properties = ['dipole'])
--------------------------------------------------------------------------

    Molecular point group: c1
  Charge       = 0
  Multiplicity = 1
  Basis Set: AUG-CC-PVTZ
    Blend: AUG-CC-PVTZ
  Basis Set: (AUG-CC-PVTZ AUX)
    Blend: AUG-CC-PVTZ-JKFIT

    Orbital Energies [Eh]
    ---------------------

    Doubly Occupied:

       1A    -20.595381     2A    -20.594804     3A    -11.310890
       4A    -11.310782     5A    -11.249525     6A    -11.232179
       7A    -11.224776     8A    -11.222688     9A    -11.219590
      10A    -11.217236    11A     -1.404261    12A     -1.401396
      13A     -1.151283    14A     -1.063740    15A     -0.999801
      16A     -0.988593    17A     -0.875800    18A     -0.836810
      19A     -0.808210    20A     -0.739061    21A     -0.686768
      22A     -0.673919    23A     -0.666265    24A     -0.611719
      25A     -0.602238    26A     -0.595633    27A     -0.586573
      28A     -0.576011    29A     -0.553943    30A     -0.548609
      31A     -0.523836    32A     -0.520062    33A     -0.488552
      34A     -0.481065    35A     -0.454648    36A     -0.327575
      37A     -0.310786

  @DF-RHF Final Energy:  -458.65922199414854

   => Energetics <=

    Nuclear Repulsion Energy =            507.2729128076551888
    One-Electron Energy =               -1630.5542519154548700
    Two-Electron Energy =                 664.6221171136512567
    Total Energy =                       -458.6592219941485382
  Basis Set: (AUG-CC-PVTZ AUX)
    Blend: AUG-CC-PVTZ-RI
    Molecular point group: c1

    Geometry (in Angstrom), charge = 0, multiplicity = 1:

       Center              X                  Y                   Z               Mass
    ------------   -----------------  -----------------  -----------------  -----------------
         O           -1.738108621309     2.383632350787     0.143314791876    15.994914619570
         O           -1.706452621309    -2.395926649213     0.125927791876    15.994914619570
         C            1.022448378691    -0.027153649213    -0.362014208124    12.000000000000
         C            2.516482378691    -0.053355649213    -0.563913208124    12.000000000000
         C            0.319169578691    -1.201434949213    -0.232336608124    12.000000000000
         C            0.353294378691     1.197363350787    -0.231456208124    12.000000000000
         C            3.271897378691    -0.023054649213     0.768291791876    12.000000000000
         C           -1.018671621309     1.217444350787     0.014913791876    12.000000000000
         C           -1.066139621309    -1.183610649213     0.017168791876    12.000000000000
         C           -1.739758621309     0.028918350787     0.145521791876    12.000000000000
         H            2.791559378691    -0.954913649213    -1.123183208124     1.007825032230
         H            2.818113378691     0.802997350787    -1.178840208124     1.007825032230
         H            0.799326378691    -2.183716649213    -0.330005208124     1.007825032230
         H            0.904420378691     2.132002350787    -0.338280208124     1.007825032230
         H            3.024347378691     0.882278350787     1.330005791876     1.007825032230
         H            4.354667378691    -0.044233649213     0.609699791876     1.007825032230
         H            2.996589378691    -0.884880649213     1.382591791876     1.007825032230
         H           -2.810266621309     0.077613350787     0.332937791876     1.007825032230
         H           -1.124463621309     3.130925350787     0.031455791876     1.007825032230
         H           -2.650385621309    -2.228532649213     0.295079791876     1.007825032230

  Basis Set: AUG-CC-PVTZ
    Blend: AUG-CC-PVTZ
  Basis Set: (AUG-CC-PVTZ AUX)
    Blend: AUG-CC-PVTZ-JKFIT
	 Reference Energy          =    -458.6592219941485382 [Eh]
	 Singles Energy            =      -0.0000000000000000 [Eh]
	 Same-Spin Energy          =      -0.4817242907038145 [Eh]
	 Opposite-Spin Energy      =      -1.5054967133832309 [Eh]
	 Correlation Energy        =      -1.9872210040870453 [Eh]
	 Total Energy              =    -460.6464429982355568 [Eh]

	 ================> DF-SCS-MP2 Energies <==================
	-----------------------------------------------------------
	 SCS Same-Spin Scale       =       0.3333333333333333 [-]
	 SCS Opposite-Spin Scale   =       1.2000000000000000 [-]
	 SCS Same-Spin Energy      =      -0.1605747635679382 [Eh]
	 SCS Opposite-Spin Energy  =      -1.8065960560598771 [Eh]
	 SCS Correlation Energy    =      -1.9671708196278153 [Eh]
	 SCS Total Energy          =    -460.6263928137763628 [Eh]
	-----------------------------------------------------------

  Dipole Moment: [D]
     X:     0.5071      Y:     1.1968      Z:    -0.0146     Total:     1.2999

*** Psi4 exiting successfully. Buy a developer a beer!
