                               Psi4 1.3.2 release

  ==> Input File <==

--------------------------------------------------------------------------
#psi4
#
memory 32 gb

molecule  {
0 1
  O        1.7627890     2.3683800    -0.1458810
  O        1.6754140    -2.4069960    -0.1279020
  C       -1.0215720    -0.0077180     0.3641480
  C       -2.5139530    -0.0194410     0.5634370
  C       -0.3230660    -1.2073880     0.2343750
  C       -0.3370590     1.2052280     0.2348720
  C       -3.2735700    -0.0197480    -0.7643280
  C        1.0247865     1.2171626    -0.0162353
  C        1.0480560    -1.1910380    -0.0190010
  C        1.7368580     0.0147850    -0.1457440
  H       -2.7927850    -0.9030380     1.1483340
  H       -2.8082890     0.8538600     1.1573130
  H       -0.8312370    -2.1635460     0.3309200
  H       -0.8789600     2.1456520     0.3351900
  H       -3.0230990     0.8672620    -1.3527740
  H       -4.3574070    -0.0294260    -0.6053230
  H       -3.0076490    -0.8981260    -1.3586750
  H        2.8074370     0.0467670    -0.3362510
  H        1.1526126     3.1169149    -0.0288104
  H        2.6215300    -2.2543830    -0.2976190
units angstrom
no_reorient  #important for SAPT in psi4, default
symmetry c1  #important for SAPT in psi4, default
}

set PROPERTIES_ORIGIN ["COM"]
properties('MP2/aug-cc-pvtz', properties = ['dipole'])
--------------------------------------------------------------------------

    Molecular point group: c1
  Charge       = 0
  Multiplicity = 1
  Basis Set: AUG-CC-PVTZ
    Blend: AUG-CC-PVTZ
  Basis Set: (AUG-CC-PVTZ AUX)
    Blend: AUG-CC-PVTZ-JKFIT

    Orbital Energies [Eh]
    ---------------------

    Doubly Occupied:

       1A    -20.596308     2A    -20.593017     3A    -11.310366
       4A    -11.308419     5A    -11.251754     6A    -11.232345
       7A    -11.224494     8A    -11.222195     9A    -11.219907
      10A    -11.216257    11A     -1.406045    12A     -1.401760
      13A     -1.150601    14A     -1.063192    15A     -1.002779
      16A     -0.987341    17A     -0.877192    18A     -0.835699
      19A     -0.808458    20A     -0.740380    21A     -0.687351
      22A     -0.673893    23A     -0.665966    24A     -0.612492
      25A     -0.602596    26A     -0.595258    27A     -0.587916
      28A     -0.576624    29A     -0.553005    30A     -0.549540
      31A     -0.523223    32A     -0.520760    33A     -0.487991
      34A     -0.483743    35A     -0.454119    36A     -0.324715
      37A     -0.312574

  @DF-RHF Final Energy:  -458.65988986918728

   => Energetics <=

    Nuclear Repulsion Energy =            507.5224120078902388
    One-Electron Energy =               -1631.0440543537758913
    Two-Electron Energy =                 664.8617524766982569
    Total Energy =                       -458.6598898691872819
  Basis Set: (AUG-CC-PVTZ AUX)
    Blend: AUG-CC-PVTZ-RI
    Molecular point group: c1

    Geometry (in Angstrom), charge = 0, multiplicity = 1:

       Center              X                  Y                   Z               Mass
    ------------   -----------------  -----------------  -----------------  -----------------
         O            1.763696628157     2.367854844883    -0.146051698700    15.994914619570
         O            1.676321628157    -2.407521155117    -0.128072698700    15.994914619570
         C           -1.020664371843    -0.008243155117     0.363977301300    12.000000000000
         C           -2.513045371843    -0.019966155117     0.563266301300    12.000000000000
         C           -0.322158371843    -1.207913155117     0.234204301300    12.000000000000
         C           -0.336151371843     1.204702844883     0.234701301300    12.000000000000
         C           -3.272662371843    -0.020273155117    -0.764498698700    12.000000000000
         C            1.025694128157     1.216637444883    -0.016405998700    12.000000000000
         C            1.048963628157    -1.191563155117    -0.019171698700    12.000000000000
         C            1.737765628157     0.014259844883    -0.145914698700    12.000000000000
         H           -2.791877371843    -0.903563155117     1.148163301300     1.007825032230
         H           -2.807381371843     0.853334844883     1.157142301300     1.007825032230
         H           -0.830329371843    -2.164071155117     0.330749301300     1.007825032230
         H           -0.878052371843     2.145126844883     0.335019301300     1.007825032230
         H           -3.022191371843     0.866736844883    -1.352944698700     1.007825032230
         H           -4.356499371843    -0.029951155117    -0.605493698700     1.007825032230
         H           -3.006741371843    -0.898651155117    -1.358845698700     1.007825032230
         H            2.808344628157     0.046241844883    -0.336421698700     1.007825032230
         H            1.153520228157     3.116389744883    -0.028981098700     1.007825032230
         H            2.622437628157    -2.254908155117    -0.297789698700     1.007825032230

  Basis Set: AUG-CC-PVTZ
    Blend: AUG-CC-PVTZ
  Basis Set: (AUG-CC-PVTZ AUX)
    Blend: AUG-CC-PVTZ-JKFIT
	 Reference Energy          =    -458.6598898691872819 [Eh]
	 Singles Energy            =      -0.0000000000000000 [Eh]
	 Same-Spin Energy          =      -0.4817660966863418 [Eh]
	 Opposite-Spin Energy      =      -1.5053350900038667 [Eh]
	 Correlation Energy        =      -1.9871011866902086 [Eh]
	 Total Energy              =    -460.6469910558774927 [Eh]

	 ================> DF-SCS-MP2 Energies <==================
	-----------------------------------------------------------
	 SCS Same-Spin Scale       =       0.3333333333333333 [-]
	 SCS Opposite-Spin Scale   =       1.2000000000000000 [-]
	 SCS Same-Spin Energy      =      -0.1605886988954473 [Eh]
	 SCS Opposite-Spin Energy  =      -1.8064021080046400 [Eh]
	 SCS Correlation Energy    =      -1.9669908069000872 [Eh]
	 SCS Total Energy          =    -460.6268806760873531 [Eh]
	-----------------------------------------------------------

  Dipole Moment: [D]
     X:    -0.5175      Y:     1.2176      Z:     0.0126     Total:     1.3231

*** Psi4 exiting successfully. Buy a developer a beer!
