                               Psi4 1.3.2 release

  ==> Input File <==

--------------------------------------------------------------------------
#psi4
#
memory 32 gb

molecule  {
0 1
  O        1.7627890     2.3683800    -0.1458810
  O        1.6754140    -2.4069960    -0.1279020
  C       -1.0215720    -0.0077180     0.3641480
  C       -2.5139530    -0.0194410     0.5634370
  C       -0.3230660    -1.2073880     0.2343750
  C       -0.3370590     1.2052280     0.2348720
  C       -3.2735700    -0.0197480    -0.7643280
  C        1.0142411     1.1980306    -0.0144903
  C        1.0480560    -1.1910380    -0.0190010
  C        1.7368580     0.0147850    -0.1457440
  H       -2.7927850    -0.9030380     1.1483340
  H       -2.8082890     0.8538600     1.1573130
  H       -0.8312370    -2.1635460     0.3309200
  H       -0.8789600     2.1456520     0.3351900
  H       -3.0230990     0.8672620    -1.3527740
  H       -4.3574070    -0.0294260    -0.6053230
  H       -3.0076490    -0.8981260    -1.3586750
  H        2.8078162     0.0277845    -0.3363605
  H        1.1590650     3.1223080    -0.0299710
  H        2.6215300    -2.2543830    -0.2976190
units angstrom
no_reorient  #important for SAPT in psi4, default
symmetry c1  #important for SAPT in psi4, default
}

set PROPERTIES_ORIGIN ["COM"]
properties('MP2/aug-cc-pvtz', properties = ['dipole'])
--------------------------------------------------------------------------

    Molecular point group: c1
  Charge       = 0
  Multiplicity = 1
  Basis Set: AUG-CC-PVTZ
    Blend: AUG-CC-PVTZ
  Basis Set: (AUG-CC-PVTZ AUX)
    Blend: AUG-CC-PVTZ-JKFIT

    Orbital Energies [Eh]
    ---------------------

    Doubly Occupied:

       1A    -20.593697     2A    -20.591665     3A    -11.308813
       4A    -11.308648     5A    -11.252302     6A    -11.232774
       7A    -11.224897     8A    -11.222162     9A    -11.220370
      10A    -11.217248    11A     -1.403190    12A     -1.393526
      13A     -1.153304    14A     -1.064820    15A     -1.004715
      16A     -0.988831    17A     -0.878239    18A     -0.834142
      19A     -0.808371    20A     -0.738260    21A     -0.688920
      22A     -0.670686    23A     -0.665679    24A     -0.611803
      25A     -0.600820    26A     -0.595044    27A     -0.586210
      28A     -0.573027    29A     -0.552903    30A     -0.551807
      31A     -0.525630    32A     -0.520762    33A     -0.488456
      34A     -0.484188    35A     -0.455638    36A     -0.326075
      37A     -0.314957

  @DF-RHF Final Energy:  -458.65918044192762

   => Energetics <=

    Nuclear Repulsion Energy =            507.6748466081459696
    One-Electron Energy =               -1631.3628983080839134
    Two-Electron Energy =                 665.0288712580102128
    Total Energy =                       -458.6591804419276741
  Basis Set: (AUG-CC-PVTZ AUX)
    Blend: AUG-CC-PVTZ-RI
    Molecular point group: c1

    Geometry (in Angstrom), charge = 0, multiplicity = 1:

       Center              X                  Y                   Z               Mass
    ------------   -----------------  -----------------  -----------------  -----------------
         O            1.764563300185     2.369616872270    -0.146194091942    15.994914619570
         O            1.677188300185    -2.405759127730    -0.128215091942    15.994914619570
         C           -1.019797699815    -0.006481127730     0.363834908058    12.000000000000
         C           -2.512178699815    -0.018204127730     0.563123908058    12.000000000000
         C           -0.321291699815    -1.206151127730     0.234061908058    12.000000000000
         C           -0.335284699815     1.206464872270     0.234558908058    12.000000000000
         C           -3.271795699815    -0.018511127730    -0.764641091942    12.000000000000
         C            1.016015400185     1.199267472270    -0.014803391942    12.000000000000
         C            1.049830300185    -1.189801127730    -0.019314091942    12.000000000000
         C            1.738632300185     0.016021872270    -0.146057091942    12.000000000000
         H           -2.791010699815    -0.901801127730     1.148020908058     1.007825032230
         H           -2.806514699815     0.855096872270     1.156999908058     1.007825032230
         H           -0.829462699815    -2.162309127730     0.330606908058     1.007825032230
         H           -0.877185699815     2.146888872270     0.334876908058     1.007825032230
         H           -3.021324699815     0.868498872270    -1.353087091942     1.007825032230
         H           -4.355632699815    -0.028189127730    -0.605636091942     1.007825032230
         H           -3.005874699815    -0.896889127730    -1.358988091942     1.007825032230
         H            2.809590500185     0.029021372270    -0.336673591942     1.007825032230
         H            1.160839300185     3.123544872270    -0.030284091942     1.007825032230
         H            2.623304300185    -2.253146127730    -0.297932091942     1.007825032230

  Basis Set: AUG-CC-PVTZ
    Blend: AUG-CC-PVTZ
  Basis Set: (AUG-CC-PVTZ AUX)
    Blend: AUG-CC-PVTZ-JKFIT
	 Reference Energy          =    -458.6591804419276173 [Eh]
	 Singles Energy            =      -0.0000000000000000 [Eh]
	 Same-Spin Energy          =      -0.4817765463329014 [Eh]
	 Opposite-Spin Energy      =      -1.5055300212821825 [Eh]
	 Correlation Energy        =      -1.9873065676150838 [Eh]
	 Total Energy              =    -460.6464870095426818 [Eh]

	 ================> DF-SCS-MP2 Energies <==================
	-----------------------------------------------------------
	 SCS Same-Spin Scale       =       0.3333333333333333 [-]
	 SCS Opposite-Spin Scale   =       1.2000000000000000 [-]
	 SCS Same-Spin Energy      =      -0.1605921821109671 [Eh]
	 SCS Opposite-Spin Energy  =      -1.8066360255386189 [Eh]
	 SCS Correlation Energy    =      -1.9672282076495859 [Eh]
	 SCS Total Energy          =    -460.6264086495772290 [Eh]
	-----------------------------------------------------------

  Dipole Moment: [D]
     X:    -0.5872      Y:     1.0880      Z:     0.0227     Total:     1.2365

*** Psi4 exiting successfully. Buy a developer a beer!
