                               Psi4 1.3.2 release

  ==> Input File <==

--------------------------------------------------------------------------
#psi4
#
memory 32 gb

molecule  {
0 1
  O        1.7627890     2.3683800    -0.1458810
  O        1.6754140    -2.4069960    -0.1279020
  C       -1.0215720    -0.0077180     0.3641480
  C       -2.5139530    -0.0194410     0.5634370
  C       -0.3230660    -1.2073880     0.2343750
  C       -0.3370590     1.2052280     0.2348720
  C       -3.2735700    -0.0197480    -0.7643280
  C        0.9286728     1.0421010     0.0005031
  C        1.0480560    -1.1910380    -0.0190010
  C        1.7368580     0.0147850    -0.1457440
  H       -2.7927850    -0.9030380     1.1483340
  H       -2.8082890     0.8538600     1.1573130
  H       -0.8312370    -2.1635460     0.3309200
  H       -0.8789600     2.1456520     0.3351900
  H       -3.0230990     0.8672620    -1.3527740
  H       -4.3574070    -0.0294260    -0.6053230
  H       -3.0076490    -0.8981260    -1.3586750
  H        2.8074370     0.0467670    -0.3362510
  H        1.1590650     3.1223080    -0.0299710
  H        2.6215300    -2.2543830    -0.2976190
units angstrom
no_reorient  #important for SAPT in psi4, default
symmetry c1  #important for SAPT in psi4, default
}

set PROPERTIES_ORIGIN ["COM"]
properties('MP2/aug-cc-pvtz', properties = ['dipole'])
--------------------------------------------------------------------------

    Molecular point group: c1
  Charge       = 0
  Multiplicity = 1
  Basis Set: AUG-CC-PVTZ
    Blend: AUG-CC-PVTZ
  Basis Set: (AUG-CC-PVTZ AUX)
    Blend: AUG-CC-PVTZ-JKFIT

    Orbital Energies [Eh]
    ---------------------

    Doubly Occupied:

       1A    -20.598894     2A    -20.556651     3A    -11.315911
       4A    -11.298785     5A    -11.258344     6A    -11.236686
       7A    -11.227865     8A    -11.224476     9A    -11.224331
      10A    -11.222759    11A     -1.408808    12A     -1.319614
      13A     -1.178017    14A     -1.078283    15A     -1.021342
      16A     -1.001013    17A     -0.887737    18A     -0.831897
      19A     -0.804488    20A     -0.731423    21A     -0.701750
      22A     -0.677441    23A     -0.632467    24A     -0.619144
      25A     -0.603078    26A     -0.600806    27A     -0.580524
      28A     -0.569083    29A     -0.547099    30A     -0.544626
      31A     -0.528807    32A     -0.514683    33A     -0.493361
      34A     -0.472158    35A     -0.462281    36A     -0.340096
      37A     -0.329526

  @DF-RHF Final Energy:  -458.61566630593029

   => Energetics <=

    Nuclear Repulsion Energy =            509.3843255864953790
    One-Electron Energy =               -1634.7114807316206679
    Two-Electron Energy =                 666.7114888391949989
    Total Energy =                       -458.6156663059302900
  Basis Set: (AUG-CC-PVTZ AUX)
    Blend: AUG-CC-PVTZ-RI
    Molecular point group: c1

    Geometry (in Angstrom), charge = 0, multiplicity = 1:

       Center              X                  Y                   Z               Mass
    ------------   -----------------  -----------------  -----------------  -----------------
         O            1.772003120965     2.383030719752    -0.147498022274    15.994914619570
         O            1.684628120965    -2.392345280248    -0.129519022274    15.994914619570
         C           -1.012357879035     0.006932719752     0.362530977726    12.000000000000
         C           -2.504738879035    -0.004790280248     0.561819977726    12.000000000000
         C           -0.313851879035    -1.192737280248     0.232757977726    12.000000000000
         C           -0.327844879035     1.219878719752     0.233254977726    12.000000000000
         C           -3.264355879035    -0.005097280248    -0.765945022274    12.000000000000
         C            0.937886920965     1.056751719752    -0.001113922274    12.000000000000
         C            1.057270120965    -1.176387280248    -0.020618022274    12.000000000000
         C            1.746072120965     0.029435719752    -0.147361022274    12.000000000000
         H           -2.783570879035    -0.888387280248     1.146716977726     1.007825032230
         H           -2.799074879035     0.868510719752     1.155695977726     1.007825032230
         H           -0.822022879035    -2.148895280248     0.329302977726     1.007825032230
         H           -0.869745879035     2.160302719752     0.333572977726     1.007825032230
         H           -3.013884879035     0.881912719752    -1.354391022274     1.007825032230
         H           -4.348192879035    -0.014775280248    -0.606940022274     1.007825032230
         H           -2.998434879035    -0.883475280248    -1.360292022274     1.007825032230
         H            2.816651120965     0.061417719752    -0.337868022274     1.007825032230
         H            1.168279120965     3.136958719752    -0.031588022274     1.007825032230
         H            2.630744120965    -2.239732280248    -0.299236022274     1.007825032230

  Basis Set: AUG-CC-PVTZ
    Blend: AUG-CC-PVTZ
  Basis Set: (AUG-CC-PVTZ AUX)
    Blend: AUG-CC-PVTZ-JKFIT
	 Reference Energy          =    -458.6156663059302900 [Eh]
	 Singles Energy            =      -0.0000000000000000 [Eh]
	 Same-Spin Energy          =      -0.4832864027227550 [Eh]
	 Opposite-Spin Energy      =      -1.5096550258419379 [Eh]
	 Correlation Energy        =      -1.9929414285646929 [Eh]
	 Total Energy              =    -460.6086077344949672 [Eh]

	 ================> DF-SCS-MP2 Energies <==================
	-----------------------------------------------------------
	 SCS Same-Spin Scale       =       0.3333333333333333 [-]
	 SCS Opposite-Spin Scale   =       1.2000000000000000 [-]
	 SCS Same-Spin Energy      =      -0.1610954675742516 [Eh]
	 SCS Opposite-Spin Energy  =      -1.8115860310103253 [Eh]
	 SCS Correlation Energy    =      -1.9726814985845769 [Eh]
	 SCS Total Energy          =    -460.5883478045148536 [Eh]
	-----------------------------------------------------------

  Dipole Moment: [D]
     X:    -1.1307      Y:     0.0818      Z:     0.0999     Total:     1.1381

*** Psi4 exiting successfully. Buy a developer a beer!
