                               Psi4 1.3.2 release

  ==> Input File <==

--------------------------------------------------------------------------
#psi4
#
memory 32 gb

molecule  {
0 1
  O        1.7627890     2.3683800    -0.1458810
  O        1.6754140    -2.4069960    -0.1279020
  C       -1.0215720    -0.0077180     0.3641480
  C       -2.5139530    -0.0194410     0.5634370
  C       -0.3230660    -1.2073880     0.2343750
  C       -0.3370590     1.2052280     0.2348720
  C       -3.2735700    -0.0197480    -0.7643280
  C        1.0346870     1.2106680    -0.0181020
  C        1.0480560    -1.1910380    -0.0190010
  C        1.7872778    -0.0710861    -0.1549094
  H       -2.7927850    -0.9030380     1.1483340
  H       -2.8082890     0.8538600     1.1573130
  H       -0.8312370    -2.1635460     0.3309200
  H       -0.8789600     2.1456520     0.3351900
  H       -3.0230990     0.8672620    -1.3527740
  H       -4.3574070    -0.0294260    -0.6053230
  H       -3.0076490    -0.8981260    -1.3586750
  H        2.8074370     0.0467670    -0.3362510
  H        1.1590650     3.1223080    -0.0299710
  H        2.6215300    -2.2543830    -0.2976190
units angstrom
no_reorient  #important for SAPT in psi4, default
symmetry c1  #important for SAPT in psi4, default
}

set PROPERTIES_ORIGIN ["COM"]
properties('MP2/aug-cc-pvtz', properties = ['dipole'])
--------------------------------------------------------------------------

    Molecular point group: c1
  Charge       = 0
  Multiplicity = 1
  Basis Set: AUG-CC-PVTZ
    Blend: AUG-CC-PVTZ
  Basis Set: (AUG-CC-PVTZ AUX)
    Blend: AUG-CC-PVTZ-JKFIT

    Orbital Energies [Eh]
    ---------------------

    Doubly Occupied:

       1A    -20.600112     2A    -20.585550     3A    -11.322247
       4A    -11.302535     5A    -11.252965     6A    -11.232747
       7A    -11.224175     8A    -11.223460     9A    -11.220273
      10A    -11.215846    11A     -1.407290    12A     -1.398668
      13A     -1.147178    14A     -1.061923    15A     -1.000887
      16A     -0.986818    17A     -0.878288    18A     -0.835596
      19A     -0.808813    20A     -0.738753    21A     -0.690662
      22A     -0.676750    23A     -0.666389    24A     -0.612716
      25A     -0.602938    26A     -0.596231    27A     -0.585449
      28A     -0.575714    29A     -0.559688    30A     -0.546030
      31A     -0.524889    32A     -0.512798    33A     -0.488201
      34A     -0.483975    35A     -0.451426    36A     -0.329096
      37A     -0.307168

  @DF-RHF Final Energy:  -458.64897878574749

   => Energetics <=

    Nuclear Repulsion Energy =            506.6536059090524304
    One-Electron Energy =               -1629.2966857869994328
    Two-Electron Energy =                 663.9941010921994575
    Total Energy =                       -458.6489787857475449
  Basis Set: (AUG-CC-PVTZ AUX)
    Blend: AUG-CC-PVTZ-RI
    Molecular point group: c1

    Geometry (in Angstrom), charge = 0, multiplicity = 1:

       Center              X                  Y                   Z               Mass
    ------------   -----------------  -----------------  -----------------  -----------------
         O            1.758406871882     2.375843317688    -0.145084386906    15.994914619570
         O            1.671031871882    -2.399532682312    -0.127105386906    15.994914619570
         C           -1.025954128118    -0.000254682312     0.364944613094    12.000000000000
         C           -2.518335128118    -0.011977682312     0.564233613094    12.000000000000
         C           -0.327448128118    -1.199924682312     0.235171613094    12.000000000000
         C           -0.341441128118     1.212691317688     0.235668613094    12.000000000000
         C           -3.277952128118    -0.012284682312    -0.763531386906    12.000000000000
         C            1.030304871882     1.218131317688    -0.017305386906    12.000000000000
         C            1.043673871882    -1.183574682312    -0.018204386906    12.000000000000
         C            1.782895671882    -0.063622782312    -0.154112786906    12.000000000000
         H           -2.797167128118    -0.895574682312     1.149130613094     1.007825032230
         H           -2.812671128118     0.861323317688     1.158109613094     1.007825032230
         H           -0.835619128118    -2.156082682312     0.331716613094     1.007825032230
         H           -0.883342128118     2.153115317688     0.335986613094     1.007825032230
         H           -3.027481128118     0.874725317688    -1.351977386906     1.007825032230
         H           -4.361789128118    -0.021962682312    -0.604526386906     1.007825032230
         H           -3.012031128118    -0.890662682312    -1.357878386906     1.007825032230
         H            2.803054871882     0.054230317688    -0.335454386906     1.007825032230
         H            1.154682871882     3.129771317688    -0.029174386906     1.007825032230
         H            2.617147871882    -2.246919682312    -0.296822386906     1.007825032230

  Basis Set: AUG-CC-PVTZ
    Blend: AUG-CC-PVTZ
  Basis Set: (AUG-CC-PVTZ AUX)
    Blend: AUG-CC-PVTZ-JKFIT
	 Reference Energy          =    -458.6489787857474880 [Eh]
	 Singles Energy            =      -0.0000000000000000 [Eh]
	 Same-Spin Energy          =      -0.4812620802449876 [Eh]
	 Opposite-Spin Energy      =      -1.5054514234058485 [Eh]
	 Correlation Energy        =      -1.9867135036508361 [Eh]
	 Total Energy              =    -460.6356922893983210 [Eh]

	 ================> DF-SCS-MP2 Energies <==================
	-----------------------------------------------------------
	 SCS Same-Spin Scale       =       0.3333333333333333 [-]
	 SCS Opposite-Spin Scale   =       1.2000000000000000 [-]
	 SCS Same-Spin Energy      =      -0.1604206934149959 [Eh]
	 SCS Opposite-Spin Energy  =      -1.8065417080870181 [Eh]
	 SCS Correlation Energy    =      -1.9669624015020140 [Eh]
	 SCS Total Energy          =    -460.6159411872495184 [Eh]
	-----------------------------------------------------------

  Dipole Moment: [D]
     X:    -0.5384      Y:     1.4109      Z:     0.0137     Total:     1.5102

*** Psi4 exiting successfully. Buy a developer a beer!
