                               Psi4 1.3.2 release

  ==> Input File <==

--------------------------------------------------------------------------
#psi4
#
memory 32 gb

molecule  {
0 1
  O        1.7627890     2.3683800    -0.1458810
  O        1.6754140    -2.4069960    -0.1279020
  C       -1.0215720    -0.0077180     0.3641480
  C       -2.5139530    -0.0194410     0.5634370
  C       -0.3230660    -1.2073880     0.2343750
  C       -0.3370590     1.2052280     0.2348720
  C       -3.2735700    -0.0197480    -0.7643280
  C        1.0761667     1.2348465    -0.0257033
  C        1.0898745    -1.2147458    -0.0266334
  C        1.7368580     0.0147850    -0.1457440
  H       -2.7927850    -0.9030380     1.1483340
  H       -2.8082890     0.8538600     1.1573130
  H       -0.8312370    -2.1635460     0.3309200
  H       -0.8789600     2.1456520     0.3351900
  H       -3.0230990     0.8672620    -1.3527740
  H       -4.3574070    -0.0294260    -0.6053230
  H       -3.0076490    -0.8981260    -1.3586750
  H        2.8074370     0.0467670    -0.3362510
  H        1.1590650     3.1223080    -0.0299710
  H        2.6215300    -2.2543830    -0.2976190
units angstrom
no_reorient  #important for SAPT in psi4, default
symmetry c1  #important for SAPT in psi4, default
}

set PROPERTIES_ORIGIN ["COM"]
properties('MP2/aug-cc-pvtz', properties = ['dipole'])
--------------------------------------------------------------------------

    Molecular point group: c1
  Charge       = 0
  Multiplicity = 1
  Basis Set: AUG-CC-PVTZ
    Blend: AUG-CC-PVTZ
  Basis Set: (AUG-CC-PVTZ AUX)
    Blend: AUG-CC-PVTZ-JKFIT

    Orbital Energies [Eh]
    ---------------------

    Doubly Occupied:

       1A    -20.603067     2A    -20.602436     3A    -11.314756
       4A    -11.312647     5A    -11.247228     6A    -11.229247
       7A    -11.221221     8A    -11.220948     9A    -11.217040
      10A    -11.214103    11A     -1.427743    12A     -1.425260
      13A     -1.139676    14A     -1.060725    15A     -0.988994
      16A     -0.984414    17A     -0.871704    18A     -0.844159
      19A     -0.812624    20A     -0.745400    21A     -0.698030
      22A     -0.676400    23A     -0.665388    24A     -0.614898
      25A     -0.610411    26A     -0.596293    27A     -0.593471
      28A     -0.591010    29A     -0.549134    30A     -0.542047
      31A     -0.520566    32A     -0.516179    33A     -0.484758
      34A     -0.473774    35A     -0.447433    36A     -0.325637
      37A     -0.297163

  @DF-RHF Final Energy:  -458.65435363921063

   => Energetics <=

    Nuclear Repulsion Energy =            506.8892306334337832
    One-Electron Energy =               -1629.7152032650471938
    Two-Electron Energy =                 664.1716189924028413
    Total Energy =                       -458.6543536392106262
  Basis Set: (AUG-CC-PVTZ AUX)
    Blend: AUG-CC-PVTZ-RI
    Molecular point group: c1

    Geometry (in Angstrom), charge = 0, multiplicity = 1:

       Center              X                  Y                   Z               Mass
    ------------   -----------------  -----------------  -----------------  -----------------
         O            1.755549290309     2.368339037167    -0.144556968837    15.994914619570
         O            1.668174290309    -2.407036962833    -0.126577968837    15.994914619570
         C           -1.028811709691    -0.007758962833     0.365472031163    12.000000000000
         C           -2.521192709691    -0.019481962833     0.564761031163    12.000000000000
         C           -0.330305709691    -1.207428962833     0.235699031163    12.000000000000
         C           -0.344298709691     1.205187037167     0.236196031163    12.000000000000
         C           -3.280809709691    -0.019788962833    -0.763003968837    12.000000000000
         C            1.068926990309     1.234805537167    -0.024379268837    12.000000000000
         C            1.082634790309    -1.214786762833    -0.025309368837    12.000000000000
         C            1.729618290309     0.014744037167    -0.144419968837    12.000000000000
         H           -2.800024709691    -0.903078962833     1.149658031163     1.007825032230
         H           -2.815528709691     0.853819037167     1.158637031163     1.007825032230
         H           -0.838476709691    -2.163586962833     0.332244031163     1.007825032230
         H           -0.886199709691     2.145611037167     0.336514031163     1.007825032230
         H           -3.030338709691     0.867221037167    -1.351449968837     1.007825032230
         H           -4.364646709691    -0.029466962833    -0.603998968837     1.007825032230
         H           -3.014888709691    -0.898166962833    -1.357350968837     1.007825032230
         H            2.800197290309     0.046726037167    -0.334926968837     1.007825032230
         H            1.151825290309     3.122267037167    -0.028646968837     1.007825032230
         H            2.614290290309    -2.254423962833    -0.296294968837     1.007825032230

  Basis Set: AUG-CC-PVTZ
    Blend: AUG-CC-PVTZ
  Basis Set: (AUG-CC-PVTZ AUX)
    Blend: AUG-CC-PVTZ-JKFIT
	 Reference Energy          =    -458.6543536392106262 [Eh]
	 Singles Energy            =      -0.0000000000000000 [Eh]
	 Same-Spin Energy          =      -0.4817700706885339 [Eh]
	 Opposite-Spin Energy      =      -1.5046796693469404 [Eh]
	 Correlation Energy        =      -1.9864497400354744 [Eh]
	 Total Energy              =    -460.6408033792461083 [Eh]

	 ================> DF-SCS-MP2 Energies <==================
	-----------------------------------------------------------
	 SCS Same-Spin Scale       =       0.3333333333333333 [-]
	 SCS Opposite-Spin Scale   =       1.2000000000000000 [-]
	 SCS Same-Spin Energy      =      -0.1605900235628446 [Eh]
	 SCS Opposite-Spin Energy  =      -1.8056156032163284 [Eh]
	 SCS Correlation Energy    =      -1.9662056267791730 [Eh]
	 SCS Total Energy          =    -460.6205592659898116 [Eh]
	-----------------------------------------------------------

  Dipole Moment: [D]
     X:    -0.1268      Y:     1.2218      Z:    -0.0461     Total:     1.2292

*** Psi4 exiting successfully. Buy a developer a beer!
