                               Psi4 1.3.2 release

  ==> Input File <==

--------------------------------------------------------------------------
#psi4
#
memory 32 gb

molecule  {
0 1
  O        1.7627890     2.3683800    -0.1458810
  O        1.6754140    -2.4069960    -0.1279020
  C       -1.0215720    -0.0077180     0.3641480
  C       -2.5139530    -0.0194410     0.5634370
  C       -0.3230660    -1.2073880     0.2343750
  C       -0.3370590     1.2052280     0.2348720
  C       -3.2735700    -0.0197480    -0.7643280
  C        1.0346870     1.2106680    -0.0181020
  C        0.9566434    -1.0138603    -0.0031330
  C        1.7368580     0.0147850    -0.1457440
  H       -2.7927850    -0.9030380     1.1483340
  H       -2.8082890     0.8538600     1.1573130
  H       -0.8312370    -2.1635460     0.3309200
  H       -0.8789600     2.1456520     0.3351900
  H       -3.0230990     0.8672620    -1.3527740
  H       -4.3574070    -0.0294260    -0.6053230
  H       -3.0076490    -0.8981260    -1.3586750
  H        2.8074370     0.0467670    -0.3362510
  H        1.1590650     3.1223080    -0.0299710
  H        2.6215300    -2.2543830    -0.2976190
units angstrom
no_reorient  #important for SAPT in psi4, default
symmetry c1  #important for SAPT in psi4, default
}

set PROPERTIES_ORIGIN ["COM"]
properties('MP2/aug-cc-pvtz', properties = ['dipole'])
--------------------------------------------------------------------------

    Molecular point group: c1
  Charge       = 0
  Multiplicity = 1
  Basis Set: AUG-CC-PVTZ
    Blend: AUG-CC-PVTZ
  Basis Set: (AUG-CC-PVTZ AUX)
    Blend: AUG-CC-PVTZ-JKFIT

    Orbital Energies [Eh]
    ---------------------

    Doubly Occupied:

       1A    -20.601990     2A    -20.553938     3A    -11.317979
       4A    -11.297245     5A    -11.258280     6A    -11.236604
       7A    -11.231231     8A    -11.226045     9A    -11.224248
      10A    -11.218606    11A     -1.411577    12A     -1.317028
      13A     -1.177658    14A     -1.080445    15A     -1.017677
      16A     -1.002118    17A     -0.884234    18A     -0.845729
      19A     -0.797774    20A     -0.730841    21A     -0.701898
      22A     -0.669961    23A     -0.637309    24A     -0.613681
      25A     -0.608453    26A     -0.603572    27A     -0.589105
      28A     -0.564876    29A     -0.548172    30A     -0.543845
      31A     -0.526542    32A     -0.508267    33A     -0.492166
      34A     -0.475757    35A     -0.461331    36A     -0.344630
      37A     -0.326025

  @DF-RHF Final Energy:  -458.61527130179923

   => Energetics <=

    Nuclear Repulsion Energy =            509.3668467054121720
    One-Electron Energy =               -1634.6705577558693676
    Two-Electron Energy =                 666.6884397486579701
    Total Energy =                       -458.6152713017992255
  Basis Set: (AUG-CC-PVTZ AUX)
    Blend: AUG-CC-PVTZ-RI
    Molecular point group: c1

    Geometry (in Angstrom), charge = 0, multiplicity = 1:

       Center              X                  Y                   Z               Mass
    ------------   -----------------  -----------------  -----------------  -----------------
         O            1.770734042691     2.352980787768    -0.147260130937    15.994914619570
         O            1.683359042691    -2.422395212232    -0.129281130937    15.994914619570
         C           -1.013626957309    -0.023117212232     0.362768869063    12.000000000000
         C           -2.506007957309    -0.034840212232     0.562057869063    12.000000000000
         C           -0.315120957309    -1.222787212232     0.232995869063    12.000000000000
         C           -0.329113957309     1.189828787768     0.233492869063    12.000000000000
         C           -3.265624957309    -0.035147212232    -0.765707130937    12.000000000000
         C            1.042632042691     1.195268787768    -0.019481130937    12.000000000000
         C            0.964588442691    -1.029259512232    -0.004512130937    12.000000000000
         C            1.744803042691    -0.000614212232    -0.147123130937    12.000000000000
         H           -2.784839957309    -0.918437212232     1.146954869063     1.007825032230
         H           -2.800343957309     0.838460787768     1.155933869063     1.007825032230
         H           -0.823291957309    -2.178945212232     0.329540869063     1.007825032230
         H           -0.871014957309     2.130252787768     0.333810869063     1.007825032230
         H           -3.015153957309     0.851862787768    -1.354153130937     1.007825032230
         H           -4.349461957309    -0.044825212232    -0.606702130937     1.007825032230
         H           -2.999703957309    -0.913525212232    -1.360054130937     1.007825032230
         H            2.815382042691     0.031367787768    -0.337630130937     1.007825032230
         H            1.167010042691     3.106908787768    -0.031350130937     1.007825032230
         H            2.629475042691    -2.269782212232    -0.298998130937     1.007825032230

  Basis Set: AUG-CC-PVTZ
    Blend: AUG-CC-PVTZ
  Basis Set: (AUG-CC-PVTZ AUX)
    Blend: AUG-CC-PVTZ-JKFIT
	 Reference Energy          =    -458.6152713017992255 [Eh]
	 Singles Energy            =      -0.0000000000000000 [Eh]
	 Same-Spin Energy          =      -0.4833947788889107 [Eh]
	 Opposite-Spin Energy      =      -1.5097328896602507 [Eh]
	 Correlation Energy        =      -1.9931276685491612 [Eh]
	 Total Energy              =    -460.6083989703483894 [Eh]

	 ================> DF-SCS-MP2 Energies <==================
	-----------------------------------------------------------
	 SCS Same-Spin Scale       =       0.3333333333333333 [-]
	 SCS Opposite-Spin Scale   =       1.2000000000000000 [-]
	 SCS Same-Spin Energy      =      -0.1611315929629702 [Eh]
	 SCS Opposite-Spin Energy  =      -1.8116794675923007 [Eh]
	 SCS Correlation Energy    =      -1.9728110605552709 [Eh]
	 SCS Total Energy          =    -460.5880823623544984 [Eh]
	-----------------------------------------------------------

  Dipole Moment: [D]
     X:    -1.2022      Y:     2.3491      Z:     0.1114     Total:     2.6412

*** Psi4 exiting successfully. Buy a developer a beer!
