                               Psi4 1.3.2 release

  ==> Input File <==

--------------------------------------------------------------------------
#psi4
#
memory 32 gb

molecule  {
0 1
  O        1.7627890     2.3683800    -0.1458810
  O        1.6754140    -2.4069960    -0.1279020
  C       -1.0215720    -0.0077180     0.3641480
  C       -2.5139530    -0.0194410     0.5634370
  C       -0.3228745    -1.2195551     0.2343341
  C       -0.3370590     1.2052280     0.2348720
  C       -3.2735700    -0.0197480    -0.7643280
  C        1.0346870     1.2106680    -0.0181020
  C        1.0480560    -1.1910380    -0.0190010
  C        1.7471787     0.0086273    -0.1476541
  H       -2.7927850    -0.9030380     1.1483340
  H       -2.8082890     0.8538600     1.1573130
  H       -0.8312370    -2.1635460     0.3309200
  H       -0.8789600     2.1456520     0.3351900
  H       -3.0230990     0.8672620    -1.3527740
  H       -4.3574070    -0.0294260    -0.6053230
  H       -3.0076490    -0.8981260    -1.3586750
  H        2.8074370     0.0467670    -0.3362510
  H        1.1590650     3.1223080    -0.0299710
  H        2.6215300    -2.2543830    -0.2976190
units angstrom
no_reorient  #important for SAPT in psi4, default
symmetry c1  #important for SAPT in psi4, default
}

set PROPERTIES_ORIGIN ["COM"]
properties('MP2/aug-cc-pvtz', properties = ['dipole'])
--------------------------------------------------------------------------

    Molecular point group: c1
  Charge       = 0
  Multiplicity = 1
  Basis Set: AUG-CC-PVTZ
    Blend: AUG-CC-PVTZ
  Basis Set: (AUG-CC-PVTZ AUX)
    Blend: AUG-CC-PVTZ-JKFIT

    Orbital Energies [Eh]
    ---------------------

    Doubly Occupied:

       1A    -20.596233     2A    -20.591996     3A    -11.312300
       4A    -11.308646     5A    -11.253111     6A    -11.232249
       7A    -11.223910     8A    -11.223071     9A    -11.219891
      10A    -11.215853    11A     -1.405612    12A     -1.401310
      13A     -1.148459    14A     -1.063237    15A     -1.001118
      16A     -0.987572    17A     -0.877036    18A     -0.836168
      19A     -0.807657    20A     -0.739769    21A     -0.688018
      22A     -0.675607    23A     -0.666011    24A     -0.611926
      25A     -0.602111    26A     -0.595194    27A     -0.588383
      28A     -0.576167    29A     -0.553102    30A     -0.549285
      31A     -0.523066    32A     -0.522719    33A     -0.487563
      34A     -0.483493    35A     -0.452696    36A     -0.324940
      37A     -0.311058

  @DF-RHF Final Energy:  -458.65979336066363

   => Energetics <=

    Nuclear Repulsion Energy =            507.1361819393289920
    One-Electron Energy =               -1630.2788788078955804
    Two-Electron Energy =                 664.4829035079029609
    Total Energy =                       -458.6597933606636843
  Basis Set: (AUG-CC-PVTZ AUX)
    Blend: AUG-CC-PVTZ-RI
    Molecular point group: c1

    Geometry (in Angstrom), charge = 0, multiplicity = 1:

       Center              X                  Y                   Z               Mass
    ------------   -----------------  -----------------  -----------------  -----------------
         O            1.761875386846     2.369972622574    -0.145711416704    15.994914619570
         O            1.674500386846    -2.405403377426    -0.127732416704    15.994914619570
         C           -1.022485613154    -0.006125377426     0.364317583296    12.000000000000
         C           -2.514866613154    -0.017848377426     0.563606583296    12.000000000000
         C           -0.323788113154    -1.217962477426     0.234503683296    12.000000000000
         C           -0.337972613154     1.206820622574     0.235041583296    12.000000000000
         C           -3.274483613154    -0.018155377426    -0.764158416704    12.000000000000
         C            1.033773386846     1.212260622574    -0.017932416704    12.000000000000
         C            1.047142386846    -1.189445377426    -0.018831416704    12.000000000000
         C            1.746265086846     0.010219922574    -0.147484516704    12.000000000000
         H           -2.793698613154    -0.901445377426     1.148503583296     1.007825032230
         H           -2.809202613154     0.855452622574     1.157482583296     1.007825032230
         H           -0.832150613154    -2.161953377426     0.331089583296     1.007825032230
         H           -0.879873613154     2.147244622574     0.335359583296     1.007825032230
         H           -3.024012613154     0.868854622574    -1.352604416704     1.007825032230
         H           -4.358320613154    -0.027833377426    -0.605153416704     1.007825032230
         H           -3.008562613154    -0.896533377426    -1.358505416704     1.007825032230
         H            2.806523386846     0.048359622574    -0.336081416704     1.007825032230
         H            1.158151386846     3.123900622574    -0.029801416704     1.007825032230
         H            2.620616386846    -2.252790377426    -0.297449416704     1.007825032230

  Basis Set: AUG-CC-PVTZ
    Blend: AUG-CC-PVTZ
  Basis Set: (AUG-CC-PVTZ AUX)
    Blend: AUG-CC-PVTZ-JKFIT
	 Reference Energy          =    -458.6597933606636275 [Eh]
	 Singles Energy            =      -0.0000000000000000 [Eh]
	 Same-Spin Energy          =      -0.4816372783891103 [Eh]
	 Opposite-Spin Energy      =      -1.5051975169382765 [Eh]
	 Correlation Energy        =      -1.9868347953273868 [Eh]
	 Total Energy              =    -460.6466281559910385 [Eh]

	 ================> DF-SCS-MP2 Energies <==================
	-----------------------------------------------------------
	 SCS Same-Spin Scale       =       0.3333333333333333 [-]
	 SCS Opposite-Spin Scale   =       1.2000000000000000 [-]
	 SCS Same-Spin Energy      =      -0.1605457594630368 [Eh]
	 SCS Opposite-Spin Energy  =      -1.8062370203259317 [Eh]
	 SCS Correlation Energy    =      -1.9667827797889685 [Eh]
	 SCS Total Energy          =    -460.6265761404525847 [Eh]
	-----------------------------------------------------------

  Dipole Moment: [D]
     X:    -0.5052      Y:     1.2452      Z:     0.0105     Total:     1.3438

*** Psi4 exiting successfully. Buy a developer a beer!
