                               Psi4 1.3.2 release

  ==> Input File <==

--------------------------------------------------------------------------
#psi4
#
memory 32 gb

molecule  {
0 1
  O        1.7627890     2.3683800    -0.1458810
  O        1.6754140    -2.4069960    -0.1279020
  C       -1.0215720    -0.0077180     0.3641480
  C       -2.5139530    -0.0194410     0.5634370
  C       -0.3230660    -1.2073880     0.2343750
  C       -0.3370590     1.2052280     0.2348720
  C       -3.2735700    -0.0197480    -0.7643280
  C        1.0346870     1.2106680    -0.0181020
  C        1.0937623    -1.2796269    -0.0269350
  C        1.7368580     0.0147850    -0.1457440
  H       -2.7927850    -0.9030380     1.1483340
  H       -2.8082890     0.8538600     1.1573130
  H       -0.8312370    -2.1635460     0.3309200
  H       -0.8789600     2.1456520     0.3351900
  H       -3.0230990     0.8672620    -1.3527740
  H       -4.3574070    -0.0294260    -0.6053230
  H       -3.0076490    -0.8981260    -1.3586750
  H        2.8074370     0.0467670    -0.3362510
  H        1.1590650     3.1223080    -0.0299710
  H        2.6215300    -2.2543830    -0.2976190
units angstrom
no_reorient  #important for SAPT in psi4, default
symmetry c1  #important for SAPT in psi4, default
}

set PROPERTIES_ORIGIN ["COM"]
properties('MP2/aug-cc-pvtz', properties = ['dipole'])
--------------------------------------------------------------------------

    Molecular point group: c1
  Charge       = 0
  Multiplicity = 1
  Basis Set: AUG-CC-PVTZ
    Blend: AUG-CC-PVTZ
  Basis Set: (AUG-CC-PVTZ AUX)
    Blend: AUG-CC-PVTZ-JKFIT

    Orbital Energies [Eh]
    ---------------------

    Doubly Occupied:

       1A    -20.615329     2A    -20.592392     3A    -11.320125
       4A    -11.307267     5A    -11.248373     6A    -11.229617
       7A    -11.222836     8A    -11.217213     9A    -11.216273
      10A    -11.214744    11A     -1.463397    12A     -1.401164
      13A     -1.138738    14A     -1.055888    15A     -0.993647
      16A     -0.980570    17A     -0.876268    18A     -0.838544
      19A     -0.818442    20A     -0.748373    21A     -0.694353
      22A     -0.679595    23A     -0.668268    24A     -0.625725
      25A     -0.610486    26A     -0.599013    27A     -0.592547
      28A     -0.583370    29A     -0.548256    30A     -0.541243
      31A     -0.522371    32A     -0.509117    33A     -0.485153
      34A     -0.473076    35A     -0.446500    36A     -0.318942
      37A     -0.299365

  @DF-RHF Final Energy:  -458.64729726218400

   => Energetics <=

    Nuclear Repulsion Energy =            506.8727487581099922
    One-Electron Energy =               -1629.6469259581201641
    Two-Electron Energy =                 664.1268799378261747
    Total Energy =                       -458.6472972621839972
  Basis Set: (AUG-CC-PVTZ AUX)
    Blend: AUG-CC-PVTZ-RI
    Molecular point group: c1

    Geometry (in Angstrom), charge = 0, multiplicity = 1:

       Center              X                  Y                   Z               Mass
    ------------   -----------------  -----------------  -----------------  -----------------
         O            1.758816539346     2.376079531591    -0.145191412368    15.994914619570
         O            1.671441539346    -2.399296468409    -0.127212412368    15.994914619570
         C           -1.025544460654    -0.000018468409     0.364837587632    12.000000000000
         C           -2.517925460654    -0.011741468409     0.564126587632    12.000000000000
         C           -0.327038460654    -1.199688468409     0.235064587632    12.000000000000
         C           -0.341031460654     1.212927531591     0.235561587632    12.000000000000
         C           -3.277542460654    -0.012048468409    -0.763638412368    12.000000000000
         C            1.030714539346     1.218367531591    -0.017412412368    12.000000000000
         C            1.089789839346    -1.271927368409    -0.026245412368    12.000000000000
         C            1.732885539346     0.022484531591    -0.145054412368    12.000000000000
         H           -2.796757460654    -0.895338468409     1.149023587632     1.007825032230
         H           -2.812261460654     0.861559531591     1.158002587632     1.007825032230
         H           -0.835209460654    -2.155846468409     0.331609587632     1.007825032230
         H           -0.882932460654     2.153351531591     0.335879587632     1.007825032230
         H           -3.027071460654     0.874961531591    -1.352084412368     1.007825032230
         H           -4.361379460654    -0.021726468409    -0.604633412368     1.007825032230
         H           -3.011621460654    -0.890426468409    -1.357985412368     1.007825032230
         H            2.803464539346     0.054466531591    -0.335561412368     1.007825032230
         H            1.155092539346     3.130007531591    -0.029281412368     1.007825032230
         H            2.617557539346    -2.246683468409    -0.296929412368     1.007825032230

  Basis Set: AUG-CC-PVTZ
    Blend: AUG-CC-PVTZ
  Basis Set: (AUG-CC-PVTZ AUX)
    Blend: AUG-CC-PVTZ-JKFIT
	 Reference Energy          =    -458.6472972621839972 [Eh]
	 Singles Energy            =      -0.0000000000000000 [Eh]
	 Same-Spin Energy          =      -0.4817911805452100 [Eh]
	 Opposite-Spin Energy      =      -1.5046301593880305 [Eh]
	 Correlation Energy        =      -1.9864213399332404 [Eh]
	 Total Energy              =    -460.6337186021172556 [Eh]

	 ================> DF-SCS-MP2 Energies <==================
	-----------------------------------------------------------
	 SCS Same-Spin Scale       =       0.3333333333333333 [-]
	 SCS Opposite-Spin Scale   =       1.2000000000000000 [-]
	 SCS Same-Spin Energy      =      -0.1605970601817366 [Eh]
	 SCS Opposite-Spin Energy  =      -1.8055561912656364 [Eh]
	 SCS Correlation Energy    =      -1.9661532514473730 [Eh]
	 SCS Total Energy          =    -460.6134505136313919 [Eh]
	-----------------------------------------------------------

  Dipole Moment: [D]
     X:    -0.0846      Y:     0.5497      Z:    -0.0516     Total:     0.5585

*** Psi4 exiting successfully. Buy a developer a beer!
