                               Psi4 1.4a3.dev225

  ==> Input File <==

--------------------------------------------------------------------------
#psi4
#
memory 32 gb

molecule  {
0 1
  O       -1.8116000     2.3801270     0.1363720
  O       -1.7799440    -2.3994320     0.1189850
  C        0.9489570    -0.0306590    -0.3689570
  C        2.4429910    -0.0568610    -0.5708560
  C        0.2610236    -1.1793178    -0.2421089
  C        0.2798030     1.1938580    -0.2383990
  C        3.1984060    -0.0265600     0.7613490
  C       -1.0921630     1.2139390     0.0079710
  C       -1.1396310    -1.1871160     0.0102260
  C       -1.8132500     0.0254130     0.1385790
  H        2.7180680    -0.9584190    -1.1301260
  H        2.7446220     0.7994920    -1.1857830
  H        0.7258350    -2.1872220    -0.3369480
  H        0.8309290     2.1284970    -0.3452230
  H        2.9508560     0.8787730     1.3230630
  H        4.2811760    -0.0477390     0.6027570
  H        2.9230980    -0.8883860     1.3756490
  H       -2.8837580     0.0741080     0.3259950
  H       -1.1979550     3.1274200     0.0245130
  H       -2.7238770    -2.2320380     0.2881370
units angstrom
no_reorient  #important for SAPT in psi4, default
symmetry c1  #important for SAPT in psi4, default
}

set PROPERTIES_ORIGIN ["COM"]
properties('MP2/aug-cc-pvtz', properties = ['dipole'])
--------------------------------------------------------------------------

    Molecular point group: c1
  Charge       = 0
  Multiplicity = 1
  Basis Set: AUG-CC-PVTZ
    Blend: AUG-CC-PVTZ
  Basis Set: (AUG-CC-PVTZ AUX)
    Blend: AUG-CC-PVTZ-JKFIT

    Orbital Energies [Eh]
    ---------------------

    Doubly Occupied:

       1A    -20.596880     2A    -20.594940     3A    -11.313289
       4A    -11.310247     5A    -11.245033     6A    -11.231516
       7A    -11.225074     8A    -11.221635     9A    -11.219141
      10A    -11.217719    11A     -1.404626    12A     -1.401855
      13A     -1.153812    14A     -1.064099    15A     -0.998192
      16A     -0.989701    17A     -0.874998    18A     -0.838148
      19A     -0.808814    20A     -0.738970    21A     -0.686547
      22A     -0.673753    23A     -0.666723    24A     -0.611867
      25A     -0.602429    26A     -0.596240    27A     -0.585508
      28A     -0.576327    29A     -0.554879    30A     -0.548631
      31A     -0.524299    32A     -0.517912    33A     -0.488636
      34A     -0.477859    35A     -0.456105    36A     -0.330478
      37A     -0.309409

  @DF-RHF Final Energy:  -458.65647113751106

   => Energetics <=

    Nuclear Repulsion Energy =            507.5644307592766609
    One-Electron Energy =               -1631.1292267548778909
    Two-Electron Energy =                 664.9083248580902819
    Total Energy =                       -458.6564711375110619
  Basis Set: (AUG-CC-PVTZ AUX)
    Blend: AUG-CC-PVTZ-RI
    Molecular point group: c1

    Geometry (in Angstrom), charge = 0, multiplicity = 1:

       Center              X                  Y                   Z               Mass
    ------------   -----------------  -----------------  -----------------  -----------------
         O           -1.739442345951     2.381405405928     0.143560714033    15.994914619570
         O           -1.707786345951    -2.398153594072     0.126173714033    15.994914619570
         C            1.021114654049    -0.029380594072    -0.361768285967    12.000000000000
         C            2.515148654049    -0.055582594072    -0.563667285967    12.000000000000
         C            0.333181254049    -1.178039394072    -0.234920185967    12.000000000000
         C            0.351960654049     1.195136405928    -0.231210285967    12.000000000000
         C            3.270563654049    -0.025281594072     0.768537714033    12.000000000000
         C           -1.020005345951     1.215217405928     0.015159714033    12.000000000000
         C           -1.067473345951    -1.185837594072     0.017414714033    12.000000000000
         C           -1.741092345951     0.026691405928     0.145767714033    12.000000000000
         H            2.790225654049    -0.957140594072    -1.122937285967     1.007825032230
         H            2.816779654049     0.800770405928    -1.178594285967     1.007825032230
         H            0.797992654049    -2.185943594072    -0.329759285967     1.007825032230
         H            0.903086654049     2.129775405928    -0.338034285967     1.007825032230
         H            3.023013654049     0.880051405928     1.330251714033     1.007825032230
         H            4.353333654049    -0.046460594072     0.609945714033     1.007825032230
         H            2.995255654049    -0.887107594072     1.382837714033     1.007825032230
         H           -2.811600345951     0.075386405928     0.333183714033     1.007825032230
         H           -1.125797345951     3.128698405928     0.031701714033     1.007825032230
         H           -2.651719345951    -2.230759594072     0.295325714033     1.007825032230

  Basis Set: AUG-CC-PVTZ
    Blend: AUG-CC-PVTZ
  Basis Set: (AUG-CC-PVTZ AUX)
    Blend: AUG-CC-PVTZ-JKFIT
	 Reference Energy          =    -458.6564711375110619 [Eh]
	 Singles Energy            =      -0.0000000000000000 [Eh]
	 Same-Spin Energy          =      -0.4816918739545165 [Eh]
	 Opposite-Spin Energy      =      -1.5055742103382292 [Eh]
	 Correlation Energy        =      -1.9872660842927456 [Eh]
	 Total Energy              =    -460.6437372218038035 [Eh]

	 ================> DF-SCS-MP2 Energies <==================
	-----------------------------------------------------------
	 SCS Same-Spin Scale       =       0.3333333333333333 [-]
	 SCS Opposite-Spin Scale   =       1.2000000000000000 [-]
	 SCS Same-Spin Energy      =      -0.1605639579848388 [Eh]
	 SCS Opposite-Spin Energy  =      -1.8066890524058750 [Eh]
	 SCS Correlation Energy    =      -1.9672530103907138 [Eh]
	 SCS Total Energy          =    -460.6237241479017825 [Eh]
	-----------------------------------------------------------

  Dipole Moment: [D]
     X:     0.4748      Y:     1.1593      Z:    -0.0101     Total:     1.2528

*** Psi4 exiting successfully. Buy a developer a beer!
