                               Psi4 1.3.2 release

  ==> Input File <==

--------------------------------------------------------------------------
#psi4
#
memory 32 gb

molecule  {
0 1
  O        1.7627890     2.3683800    -0.1458810
  O        1.6754140    -2.4069960    -0.1279020
  C       -1.0215720    -0.0077180     0.3641480
  C       -2.5139530    -0.0194410     0.5634370
  C       -0.3230660    -1.2073880     0.2343750
  C       -0.3370590     1.2052280     0.2348720
  C       -3.2735700    -0.0197480    -0.7643280
  C        1.0346870     1.2106680    -0.0181020
  C        1.0480560    -1.1910380    -0.0190010
  C        1.7368580     0.0147850    -0.1457440
  H       -2.7927850    -0.9030380     1.1483340
  H       -2.8082890     0.8538600     1.1573130
  H       -0.8312370    -2.1635460     0.3309200
  H       -0.8789600     2.1456520     0.3351900
  H       -3.0230990     0.8672620    -1.3527740
  H       -4.3574070    -0.0294260    -0.6053230
  H       -3.0076490    -0.8981260    -1.3586750
  H        2.8074370     0.0467670    -0.3362510
  H        1.1590650     3.1223080    -0.0299710
  H        2.4271074    -2.2857443    -0.2627429
units angstrom
no_reorient  #important for SAPT in psi4, default
symmetry c1  #important for SAPT in psi4, default
}

set PROPERTIES_ORIGIN ["COM"]
properties('MP2/aug-cc-pvtz', properties = ['dipole'])
--------------------------------------------------------------------------

    Molecular point group: c1
  Charge       = 0
  Multiplicity = 1
  Basis Set: AUG-CC-PVTZ
    Blend: AUG-CC-PVTZ
  Basis Set: (AUG-CC-PVTZ AUX)
    Blend: AUG-CC-PVTZ-JKFIT

    Orbital Energies [Eh]
    ---------------------

    Doubly Occupied:

       1A    -20.596530     2A    -20.573116     3A    -11.311722
       4A    -11.310774     5A    -11.252267     6A    -11.232886
       7A    -11.225952     8A    -11.224345     9A    -11.220411
      10A    -11.217348    11A     -1.461791    12A     -1.405603
      13A     -1.154584    14A     -1.066942    15A     -1.010880
      16A     -0.989346    17A     -0.882835    18A     -0.846584
      19A     -0.823911    20A     -0.753435    21A     -0.692157
      22A     -0.685410    23A     -0.669736    24A     -0.613409
      25A     -0.605175    26A     -0.597315    27A     -0.593791
      28A     -0.581222    29A     -0.558506    30A     -0.550289
      31A     -0.525866    32A     -0.522896    33A     -0.488738
      34A     -0.483889    35A     -0.456536    36A     -0.327574
      37A     -0.313288

  @DF-RHF Final Energy:  -458.61424553161135

   => Energetics <=

    Nuclear Repulsion Energy =            508.9412035058838342
    One-Electron Energy =               -1633.4567839537660348
    Two-Electron Energy =                 665.9013349162709119
    Total Energy =                       -458.6142455316113455
  Basis Set: (AUG-CC-PVTZ AUX)
    Blend: AUG-CC-PVTZ-RI
    Molecular point group: c1

    Geometry (in Angstrom), charge = 0, multiplicity = 1:

       Center              X                  Y                   Z               Mass
    ------------   -----------------  -----------------  -----------------  -----------------
         O            1.764208224126     2.368608868567    -0.146135562580    15.994914619570
         O            1.676833224126    -2.406767131433    -0.128156562580    15.994914619570
         C           -1.020152775874    -0.007489131433     0.363893437420    12.000000000000
         C           -2.512533775874    -0.019212131433     0.563182437420    12.000000000000
         C           -0.321646775874    -1.207159131433     0.234120437420    12.000000000000
         C           -0.335639775874     1.205456868567     0.234617437420    12.000000000000
         C           -3.272150775874    -0.019519131433    -0.764582562580    12.000000000000
         C            1.036106224126     1.210896868567    -0.018356562580    12.000000000000
         C            1.049475224126    -1.190809131433    -0.019255562580    12.000000000000
         C            1.738277224126     0.015013868567    -0.145998562580    12.000000000000
         H           -2.791365775874    -0.902809131433     1.148079437420     1.007825032230
         H           -2.806869775874     0.854088868567     1.157058437420     1.007825032230
         H           -0.829817775874    -2.163317131433     0.330665437420     1.007825032230
         H           -0.877540775874     2.145880868567     0.334935437420     1.007825032230
         H           -3.021679775874     0.867490868567    -1.353028562580     1.007825032230
         H           -4.355987775874    -0.029197131433    -0.605577562580     1.007825032230
         H           -3.006229775874    -0.897897131433    -1.358929562580     1.007825032230
         H            2.808856224126     0.046995868567    -0.336505562580     1.007825032230
         H            1.160484224126     3.122536868567    -0.030225562580     1.007825032230
         H            2.428526624126    -2.285515431433    -0.262997462580     1.007825032230

  Basis Set: AUG-CC-PVTZ
    Blend: AUG-CC-PVTZ
  Basis Set: (AUG-CC-PVTZ AUX)
    Blend: AUG-CC-PVTZ-JKFIT
	 Reference Energy          =    -458.6142455316113455 [Eh]
	 Singles Energy            =      -0.0000000000000000 [Eh]
	 Same-Spin Energy          =      -0.4793251941186636 [Eh]
	 Opposite-Spin Energy      =      -1.4996270828282667 [Eh]
	 Correlation Energy        =      -1.9789522769469303 [Eh]
	 Total Energy              =    -460.5931978085582728 [Eh]

	 ================> DF-SCS-MP2 Energies <==================
	-----------------------------------------------------------
	 SCS Same-Spin Scale       =       0.3333333333333333 [-]
	 SCS Opposite-Spin Scale   =       1.2000000000000000 [-]
	 SCS Same-Spin Energy      =      -0.1597750647062212 [Eh]
	 SCS Opposite-Spin Energy  =      -1.7995524993939200 [Eh]
	 SCS Correlation Energy    =      -1.9593275641001413 [Eh]
	 SCS Total Energy          =    -460.5735730957114811 [Eh]
	-----------------------------------------------------------

  Dipole Moment: [D]
     X:    -0.7275      Y:     1.3057      Z:     0.0481     Total:     1.4955

*** Psi4 exiting successfully. Buy a developer a beer!
