                               Psi4 1.3.2 release

  ==> Input File <==

--------------------------------------------------------------------------
#psi4
#
memory 32 gb

molecule  {
0 1
  O        1.7627890     2.3683800    -0.1458810
  O        1.6754140    -2.4069960    -0.1279020
  C       -1.0215720    -0.0077180     0.3641480
  C       -2.5139530    -0.0194410     0.5634370
  C       -0.3230660    -1.2073880     0.2343750
  C       -0.3370590     1.2052280     0.2348720
  C       -3.2735700    -0.0197480    -0.7643280
  C        1.0346870     1.2106680    -0.0181020
  C        1.0272672    -1.2023356    -0.0152499
  C        1.7368580     0.0147850    -0.1457440
  H       -2.7927850    -0.9030380     1.1483340
  H       -2.8082890     0.8538600     1.1573130
  H       -0.8312370    -2.1635460     0.3309200
  H       -0.8789600     2.1456520     0.3351900
  H       -3.0230990     0.8672620    -1.3527740
  H       -4.3574070    -0.0294260    -0.6053230
  H       -3.0076490    -0.8981260    -1.3586750
  H        2.8074370     0.0467670    -0.3362510
  H        1.1590650     3.1223080    -0.0299710
  H        2.6240158    -2.2711817    -0.2980174
units angstrom
no_reorient  #important for SAPT in psi4, default
symmetry c1  #important for SAPT in psi4, default
}

set PROPERTIES_ORIGIN ["COM"]
properties('MP2/aug-cc-pvtz', properties = ['dipole'])
--------------------------------------------------------------------------

    Molecular point group: c1
  Charge       = 0
  Multiplicity = 1
  Basis Set: AUG-CC-PVTZ
    Blend: AUG-CC-PVTZ
  Basis Set: (AUG-CC-PVTZ AUX)
    Blend: AUG-CC-PVTZ-JKFIT

    Orbital Energies [Eh]
    ---------------------

    Doubly Occupied:

       1A    -20.595085     2A    -20.591767     3A    -11.309567
       4A    -11.308692     5A    -11.252333     6A    -11.232567
       7A    -11.224692     8A    -11.223107     9A    -11.220078
      10A    -11.214294    11A     -1.404614    12A     -1.400135
      13A     -1.150933    14A     -1.062606    15A     -1.005153
      16A     -0.986250    17A     -0.877548    18A     -0.834344
      19A     -0.809047    20A     -0.740188    21A     -0.686070
      22A     -0.676158    23A     -0.668341    24A     -0.611975
      25A     -0.601944    26A     -0.594689    27A     -0.586926
      28A     -0.575895    29A     -0.552176    30A     -0.549021
      31A     -0.523471    32A     -0.518229    33A     -0.488541
      34A     -0.483871    35A     -0.453990    36A     -0.322922
      37A     -0.314008

  @DF-RHF Final Energy:  -458.65951510424787

   => Energetics <=

    Nuclear Repulsion Energy =            507.4997021239875608
    One-Electron Energy =               -1631.0159873406421411
    Two-Electron Energy =                 664.8567701124067071
    Total Energy =                       -458.6595151042478165
  Basis Set: (AUG-CC-PVTZ AUX)
    Blend: AUG-CC-PVTZ-RI
    Molecular point group: c1

    Geometry (in Angstrom), charge = 0, multiplicity = 1:

       Center              X                  Y                   Z               Mass
    ------------   -----------------  -----------------  -----------------  -----------------
         O            1.764577725792     2.369484484767    -0.146204098885    15.994914619570
         O            1.677202725792    -2.405891515233    -0.128225098885    15.994914619570
         C           -1.019783274208    -0.006613515233     0.363824901115    12.000000000000
         C           -2.512164274208    -0.018336515233     0.563113901115    12.000000000000
         C           -0.321277274208    -1.206283515233     0.234051901115    12.000000000000
         C           -0.335270274208     1.206332484767     0.234548901115    12.000000000000
         C           -3.271781274208    -0.018643515233    -0.764651098885    12.000000000000
         C            1.036475725792     1.211772484767    -0.018425098885    12.000000000000
         C            1.029055925792    -1.201231115233    -0.015572998885    12.000000000000
         C            1.738646725792     0.015889484767    -0.146067098885    12.000000000000
         H           -2.790996274208    -0.901933515233     1.148010901115     1.007825032230
         H           -2.806500274208     0.854964484767     1.156989901115     1.007825032230
         H           -0.829448274208    -2.162441515233     0.330596901115     1.007825032230
         H           -0.877171274208     2.146756484767     0.334866901115     1.007825032230
         H           -3.021310274208     0.868366484767    -1.353097098885     1.007825032230
         H           -4.355618274208    -0.028321515233    -0.605646098885     1.007825032230
         H           -3.005860274208    -0.897021515233    -1.358998098885     1.007825032230
         H            2.809225725792     0.047871484767    -0.336574098885     1.007825032230
         H            1.160853725792     3.123412484767    -0.030294098885     1.007825032230
         H            2.625804525792    -2.270077215233    -0.298340498885     1.007825032230

  Basis Set: AUG-CC-PVTZ
    Blend: AUG-CC-PVTZ
  Basis Set: (AUG-CC-PVTZ AUX)
    Blend: AUG-CC-PVTZ-JKFIT
	 Reference Energy          =    -458.6595151042478733 [Eh]
	 Singles Energy            =      -0.0000000000000000 [Eh]
	 Same-Spin Energy          =      -0.4816728899723975 [Eh]
	 Opposite-Spin Energy      =      -1.5050712496392196 [Eh]
	 Correlation Energy        =      -1.9867441396116172 [Eh]
	 Total Energy              =    -460.6462592438595038 [Eh]

	 ================> DF-SCS-MP2 Energies <==================
	-----------------------------------------------------------
	 SCS Same-Spin Scale       =       0.3333333333333333 [-]
	 SCS Opposite-Spin Scale   =       1.2000000000000000 [-]
	 SCS Same-Spin Energy      =      -0.1605576299907992 [Eh]
	 SCS Opposite-Spin Energy  =      -1.8060854995670634 [Eh]
	 SCS Correlation Energy    =      -1.9666431295578626 [Eh]
	 SCS Total Energy          =    -460.6261582338057110 [Eh]
	-----------------------------------------------------------

  Dipole Moment: [D]
     X:    -0.5211      Y:     1.1999      Z:     0.0130     Total:     1.3082

*** Psi4 exiting successfully. Buy a developer a beer!
