                               Psi4 1.3.2 release

  ==> Input File <==

--------------------------------------------------------------------------
#psi4
#
memory 32 gb

molecule  {
0 1
  O        1.7627890     2.3683800    -0.1458810
  O        1.6754140    -2.4069960    -0.1279020
  C       -1.0215720    -0.0077180     0.3641480
  C       -2.5139530    -0.0194410     0.5634370
  C       -0.3230660    -1.2073880     0.2343750
  C       -0.3370590     1.2052280     0.2348720
  C       -3.2735700    -0.0197480    -0.7643280
  C        1.0346870     1.2106680    -0.0181020
  C        1.0480560    -1.1910380    -0.0190010
  C        1.7368580     0.0147850    -0.1457440
  H       -2.7927850    -0.9030380     1.1483340
  H       -2.8082890     0.8538600     1.1573130
  H       -0.8312370    -2.1635460     0.3309200
  H       -0.8789600     2.1456520     0.3351900
  H       -3.0230990     0.8672620    -1.3527740
  H       -4.3574070    -0.0294260    -0.6053230
  H       -3.0076490    -0.8981260    -1.3586750
  H        2.8074370     0.0467670    -0.3362510
  H        1.2831868     2.9673052    -0.0538014
  H        2.6215300    -2.2543830    -0.2976190
units angstrom
no_reorient  #important for SAPT in psi4, default
symmetry c1  #important for SAPT in psi4, default
}

set PROPERTIES_ORIGIN ["COM"]
properties('MP2/aug-cc-pvtz', properties = ['dipole'])
--------------------------------------------------------------------------

    Molecular point group: c1
  Charge       = 0
  Multiplicity = 1
  Basis Set: AUG-CC-PVTZ
    Blend: AUG-CC-PVTZ
  Basis Set: (AUG-CC-PVTZ AUX)
    Blend: AUG-CC-PVTZ-JKFIT

    Orbital Energies [Eh]
    ---------------------

    Doubly Occupied:

       1A    -20.594152     2A    -20.575479     3A    -11.312453
       4A    -11.309685     5A    -11.252524     6A    -11.232754
       7A    -11.225387     8A    -11.224636     9A    -11.220191
      10A    -11.217539    11A     -1.464216    12A     -1.403364
      13A     -1.154591    14A     -1.067936    15A     -1.008537
      16A     -0.990021    17A     -0.878140    18A     -0.861104
      19A     -0.812588    20A     -0.754757    21A     -0.693677
      22A     -0.684925    23A     -0.667658    24A     -0.616936
      25A     -0.607301    26A     -0.597702    27A     -0.590222
      28A     -0.580558    29A     -0.557491    30A     -0.551253
      31A     -0.524918    32A     -0.522248    33A     -0.488458
      34A     -0.484391    35A     -0.456574    36A     -0.327234
      37A     -0.313506

  @DF-RHF Final Energy:  -458.61389132653164

   => Energetics <=

    Nuclear Repulsion Energy =            508.9224532974632211
    One-Electron Energy =               -1633.4224812746579119
    Two-Electron Energy =                 665.8861366506631612
    Total Energy =                       -458.6138913265316432
  Basis Set: (AUG-CC-PVTZ AUX)
    Blend: AUG-CC-PVTZ-RI
    Molecular point group: c1

    Geometry (in Angstrom), charge = 0, multiplicity = 1:

       Center              X                  Y                   Z               Mass
    ------------   -----------------  -----------------  -----------------  -----------------
         O            1.761883016002     2.369511387086    -0.145707035723    15.994914619570
         O            1.674508016002    -2.405864612914    -0.127728035723    15.994914619570
         C           -1.022477983998    -0.006586612914     0.364321964277    12.000000000000
         C           -2.514858983998    -0.018309612914     0.563610964277    12.000000000000
         C           -0.323971983998    -1.206256612914     0.234548964277    12.000000000000
         C           -0.337964983998     1.206359387086     0.235045964277    12.000000000000
         C           -3.274475983998    -0.018616612914    -0.764154035723    12.000000000000
         C            1.033781016002     1.211799387086    -0.017928035723    12.000000000000
         C            1.047150016002    -1.189906612914    -0.018827035723    12.000000000000
         C            1.735952016002     0.015916387086    -0.145570035723    12.000000000000
         H           -2.793690983998    -0.901906612914     1.148507964277     1.007825032230
         H           -2.809194983998     0.854991387086     1.157486964277     1.007825032230
         H           -0.832142983998    -2.162414612914     0.331093964277     1.007825032230
         H           -0.879865983998     2.146783387086     0.335363964277     1.007825032230
         H           -3.024004983998     0.868393387086    -1.352600035723     1.007825032230
         H           -4.358312983998    -0.028294612914    -0.605149035723     1.007825032230
         H           -3.008554983998    -0.896994612914    -1.358501035723     1.007825032230
         H            2.806531016002     0.047898387086    -0.336077035723     1.007825032230
         H            1.282280816002     2.968436587086    -0.053627435723     1.007825032230
         H            2.620624016002    -2.253251612914    -0.297445035723     1.007825032230

  Basis Set: AUG-CC-PVTZ
    Blend: AUG-CC-PVTZ
  Basis Set: (AUG-CC-PVTZ AUX)
    Blend: AUG-CC-PVTZ-JKFIT
	 Reference Energy          =    -458.6138913265316432 [Eh]
	 Singles Energy            =      -0.0000000000000000 [Eh]
	 Same-Spin Energy          =      -0.4793253180949102 [Eh]
	 Opposite-Spin Energy      =      -1.4996411779821051 [Eh]
	 Correlation Energy        =      -1.9789664960770152 [Eh]
	 Total Energy              =    -460.5928578226086643 [Eh]

	 ================> DF-SCS-MP2 Energies <==================
	-----------------------------------------------------------
	 SCS Same-Spin Scale       =       0.3333333333333333 [-]
	 SCS Opposite-Spin Scale   =       1.2000000000000000 [-]
	 SCS Same-Spin Energy      =      -0.1597751060316367 [Eh]
	 SCS Opposite-Spin Energy  =      -1.7995694135785261 [Eh]
	 SCS Correlation Energy    =      -1.9593445196101629 [Eh]
	 SCS Total Energy          =    -460.5732358461418130 [Eh]
	-----------------------------------------------------------

  Dipole Moment: [D]
     X:    -0.4652      Y:     0.9859      Z:    -0.0009     Total:     1.0901

*** Psi4 exiting successfully. Buy a developer a beer!
