                               Psi4 1.3.2 release

  ==> Input File <==

--------------------------------------------------------------------------
#psi4
#
memory 32 gb

molecule  {
0 1
  O        1.7627890     2.3683800    -0.1458810
  O        1.6754140    -2.4069960    -0.1279020
  C       -1.0215720    -0.0077180     0.3641480
  C       -2.5139530    -0.0194410     0.5634370
  C       -0.3230660    -1.2073880     0.2343750
  C       -0.3370590     1.2052280     0.2348720
  C       -3.2735700    -0.0197480    -0.7643280
  C        1.0346870     1.2106680    -0.0181020
  C        0.9868444    -1.1527320    -0.0082498
  C        1.7368580     0.0147850    -0.1457440
  H       -2.7927850    -0.9030380     1.1483340
  H       -2.8082890     0.8538600     1.1573130
  H       -0.8312370    -2.1635460     0.3309200
  H       -0.8789600     2.1456520     0.3351900
  H       -3.0230990     0.8672620    -1.3527740
  H       -4.3574070    -0.0294260    -0.6053230
  H       -3.0076490    -0.8981260    -1.3586750
  H        2.8042873     0.1036328    -0.3358910
  H        1.1590650     3.1223080    -0.0299710
  H        2.6215300    -2.2543830    -0.2976190
units angstrom
no_reorient  #important for SAPT in psi4, default
symmetry c1  #important for SAPT in psi4, default
}

set PROPERTIES_ORIGIN ["COM"]
properties('MP2/aug-cc-pvtz', properties = ['dipole'])
--------------------------------------------------------------------------

    Molecular point group: c1
  Charge       = 0
  Multiplicity = 1
  Basis Set: AUG-CC-PVTZ
    Blend: AUG-CC-PVTZ
  Basis Set: (AUG-CC-PVTZ AUX)
    Blend: AUG-CC-PVTZ-JKFIT

    Orbital Energies [Eh]
    ---------------------

    Doubly Occupied:

       1A    -20.597057     2A    -20.578853     3A    -11.310487
       4A    -11.303974     5A    -11.254992     6A    -11.234373
       7A    -11.226377     8A    -11.225932     9A    -11.221839
      10A    -11.213960    11A     -1.406406    12A     -1.369135
      13A     -1.159456    14A     -1.066805    15A     -1.012900
      16A     -0.989806    17A     -0.880287    18A     -0.834425
      19A     -0.804991    20A     -0.735147    21A     -0.688663
      22A     -0.671801    23A     -0.663638    24A     -0.612746
      25A     -0.602032    26A     -0.594308    27A     -0.585329
      28A     -0.564008    29A     -0.556925    30A     -0.549155
      31A     -0.525987    32A     -0.516607    33A     -0.489760
      34A     -0.486964    35A     -0.458151    36A     -0.326480
      37A     -0.321880

  @DF-RHF Final Energy:  -458.65198340963042

   => Energetics <=

    Nuclear Repulsion Energy =            508.0828800923174526
    One-Electron Energy =               -1632.1864596580858233
    Two-Electron Energy =                 665.4515961561378390
    Total Energy =                       -458.6519834096304749
  Basis Set: (AUG-CC-PVTZ AUX)
    Blend: AUG-CC-PVTZ-RI
    Molecular point group: c1

    Geometry (in Angstrom), charge = 0, multiplicity = 1:

       Center              X                  Y                   Z               Mass
    ------------   -----------------  -----------------  -----------------  -----------------
         O            1.768132154879     2.364635542642    -0.146818039013    15.994914619570
         O            1.680757154879    -2.410740457358    -0.128839039013    15.994914619570
         C           -1.016228845121    -0.011462457358     0.363210960987    12.000000000000
         C           -2.508609845121    -0.023185457358     0.562499960987    12.000000000000
         C           -0.317722845121    -1.211132457358     0.233437960987    12.000000000000
         C           -0.331715845121     1.201483542642     0.233934960987    12.000000000000
         C           -3.268226845121    -0.023492457358    -0.765265039013    12.000000000000
         C            1.040030154879     1.206923542642    -0.019039039013    12.000000000000
         C            0.992187554879    -1.156476457358    -0.009186839013    12.000000000000
         C            1.742201154879     0.011040542642    -0.146681039013    12.000000000000
         H           -2.787441845121    -0.906782457358     1.147396960987     1.007825032230
         H           -2.802945845121     0.850115542642     1.156375960987     1.007825032230
         H           -0.825893845121    -2.167290457358     0.329982960987     1.007825032230
         H           -0.873616845121     2.141907542642     0.334252960987     1.007825032230
         H           -3.017755845121     0.863517542642    -1.353711039013     1.007825032230
         H           -4.352063845121    -0.033170457358    -0.606260039013     1.007825032230
         H           -3.002305845121    -0.901870457358    -1.359612039013     1.007825032230
         H            2.809630454879     0.099888342642    -0.336828039013     1.007825032230
         H            1.164408154879     3.118563542642    -0.030908039013     1.007825032230
         H            2.626873154879    -2.258127457358    -0.298556039013     1.007825032230

  Basis Set: AUG-CC-PVTZ
    Blend: AUG-CC-PVTZ
  Basis Set: (AUG-CC-PVTZ AUX)
    Blend: AUG-CC-PVTZ-JKFIT
	 Reference Energy          =    -458.6519834096304180 [Eh]
	 Singles Energy            =      -0.0000000000000000 [Eh]
	 Same-Spin Energy          =      -0.4819691547874828 [Eh]
	 Opposite-Spin Energy      =      -1.5061062917463806 [Eh]
	 Correlation Energy        =      -1.9880754465338635 [Eh]
	 Total Energy              =    -460.6400588561642735 [Eh]

	 ================> DF-SCS-MP2 Energies <==================
	-----------------------------------------------------------
	 SCS Same-Spin Scale       =       0.3333333333333333 [-]
	 SCS Opposite-Spin Scale   =       1.2000000000000000 [-]
	 SCS Same-Spin Energy      =      -0.1606563849291609 [Eh]
	 SCS Opposite-Spin Energy  =      -1.8073275500956565 [Eh]
	 SCS Correlation Energy    =      -1.9679839350248174 [Eh]
	 SCS Total Energy          =    -460.6199673446552083 [Eh]
	-----------------------------------------------------------

  Dipole Moment: [D]
     X:    -0.7953      Y:     1.6237      Z:     0.0535     Total:     1.8088

*** Psi4 exiting successfully. Buy a developer a beer!
