                               Psi4 1.3.2 release

  ==> Input File <==

--------------------------------------------------------------------------
#psi4
#
memory 32 gb

molecule  {
0 1
  O        1.7627890     2.3683800    -0.1458810
  O        1.6754140    -2.4069960    -0.1279020
  C       -1.0215720    -0.0077180     0.3641480
  C       -2.5139530    -0.0194410     0.5634370
  C       -0.3230660    -1.2073880     0.2343750
  C       -0.3370590     1.2052280     0.2348720
  C       -3.2735700    -0.0197480    -0.7643280
  C        1.0346870     1.2106680    -0.0181020
  C        1.0480560    -1.1910380    -0.0190010
  C        1.7368580     0.0147850    -0.1457440
  H       -2.7927850    -0.9030380     1.1483340
  H       -2.8082890     0.8538600     1.1573130
  H       -0.7377463    -1.9876369     0.3131581
  H       -0.8789600     2.1456520     0.3351900
  H       -3.0230990     0.8672620    -1.3527740
  H       -4.3574070    -0.0294260    -0.6053230
  H       -3.0076490    -0.8981260    -1.3586750
  H        2.8074370     0.0467670    -0.3362510
  H        1.1590650     3.1223080    -0.0299710
  H        2.6215300    -2.2543830    -0.2976190
units angstrom
no_reorient  #important for SAPT in psi4, default
symmetry c1  #important for SAPT in psi4, default
}

set PROPERTIES_ORIGIN ["COM"]
properties('MP2/aug-cc-pvtz', properties = ['dipole'])
--------------------------------------------------------------------------

    Molecular point group: c1
  Charge       = 0
  Multiplicity = 1
  Basis Set: AUG-CC-PVTZ
    Blend: AUG-CC-PVTZ
  Basis Set: (AUG-CC-PVTZ AUX)
    Blend: AUG-CC-PVTZ-JKFIT

    Orbital Energies [Eh]
    ---------------------

    Doubly Occupied:

       1A    -20.595382     2A    -20.593421     3A    -11.310143
       4A    -11.307401     5A    -11.250156     6A    -11.232286
       7A    -11.222794     8A    -11.221570     9A    -11.220010
      10A    -11.192223    11A     -1.405138    12A     -1.401929
      13A     -1.151536    14A     -1.063904    15A     -1.010955
      16A     -0.988407    17A     -0.877354    18A     -0.846697
      19A     -0.808406    20A     -0.742065    21A     -0.707542
      22A     -0.679495    23A     -0.668982    24A     -0.611797
      25A     -0.602099    26A     -0.599501    27A     -0.594631
      28A     -0.576321    29A     -0.552652    30A     -0.550433
      31A     -0.530742    32A     -0.522907    33A     -0.487817
      34A     -0.483330    35A     -0.453330    36A     -0.325163
      37A     -0.310932

  @DF-RHF Final Energy:  -458.62555128017988

   => Energetics <=

    Nuclear Repulsion Energy =            508.7039812712473008
    One-Electron Energy =               -1633.2601621252049426
    Two-Electron Energy =                 665.9306295737777646
    Total Energy =                       -458.6255512801798204
  Basis Set: (AUG-CC-PVTZ AUX)
    Blend: AUG-CC-PVTZ-RI
    Molecular point group: c1

    Geometry (in Angstrom), charge = 0, multiplicity = 1:

       Center              X                  Y                   Z               Mass
    ------------   -----------------  -----------------  -----------------  -----------------
         O            1.762106607070     2.367095902657    -0.145751332611    15.994914619570
         O            1.674731607070    -2.408280097343    -0.127772332611    15.994914619570
         C           -1.022254392930    -0.009002097343     0.364277667389    12.000000000000
         C           -2.514635392930    -0.020725097343     0.563566667389    12.000000000000
         C           -0.323748392930    -1.208672097343     0.234504667389    12.000000000000
         C           -0.337741392930     1.203943902657     0.235001667389    12.000000000000
         C           -3.274252392930    -0.021032097343    -0.764198332611    12.000000000000
         C            1.034004607070     1.209383902657    -0.017972332611    12.000000000000
         C            1.047373607070    -1.192322097343    -0.018871332611    12.000000000000
         C            1.736175607070     0.013500902657    -0.145614332611    12.000000000000
         H           -2.793467392930    -0.904322097343     1.148463667389     1.007825032230
         H           -2.808971392930     0.852575902657     1.157442667389     1.007825032230
         H           -0.738428692930    -1.988920997343     0.313287767389     1.007825032230
         H           -0.879642392930     2.144367902657     0.335319667389     1.007825032230
         H           -3.023781392930     0.865977902657    -1.352644332611     1.007825032230
         H           -4.358089392930    -0.030710097343    -0.605193332611     1.007825032230
         H           -3.008331392930    -0.899410097343    -1.358545332611     1.007825032230
         H            2.806754607070     0.045482902657    -0.336121332611     1.007825032230
         H            1.158382607070     3.121023902657    -0.029841332611     1.007825032230
         H            2.620847607070    -2.255667097343    -0.297489332611     1.007825032230

  Basis Set: AUG-CC-PVTZ
    Blend: AUG-CC-PVTZ
  Basis Set: (AUG-CC-PVTZ AUX)
    Blend: AUG-CC-PVTZ-JKFIT
	 Reference Energy          =    -458.6255512801798773 [Eh]
	 Singles Energy            =      -0.0000000000000000 [Eh]
	 Same-Spin Energy          =      -0.4813915215683136 [Eh]
	 Opposite-Spin Energy      =      -1.5045672032632282 [Eh]
	 Correlation Energy        =      -1.9859587248315418 [Eh]
	 Total Energy              =    -460.6115100050114393 [Eh]

	 ================> DF-SCS-MP2 Energies <==================
	-----------------------------------------------------------
	 SCS Same-Spin Scale       =       0.3333333333333333 [-]
	 SCS Opposite-Spin Scale   =       1.2000000000000000 [-]
	 SCS Same-Spin Energy      =      -0.1604638405227712 [Eh]
	 SCS Opposite-Spin Energy  =      -1.8054806439158737 [Eh]
	 SCS Correlation Energy    =      -1.9659444844386449 [Eh]
	 SCS Total Energy          =    -460.5914957646185144 [Eh]
	-----------------------------------------------------------

  Dipole Moment: [D]
     X:    -0.5106      Y:     1.2097      Z:     0.0117     Total:     1.3131

*** Psi4 exiting successfully. Buy a developer a beer!
