                               Psi4 1.3.2 release

  ==> Input File <==

--------------------------------------------------------------------------
#psi4
#
memory 32 gb

molecule  {
0 1
  O        1.7627890     2.3683800    -0.1458810
  O        1.6754140    -2.4069960    -0.1279020
  C       -1.0627953     0.0173321     0.3716870
  C       -2.5139530    -0.0194410     0.5634370
  C       -0.3230660    -1.2073880     0.2343750
  C       -0.3370590     1.2052280     0.2348720
  C       -3.2735700    -0.0197480    -0.7643280
  C        1.0336429     1.2593451    -0.0180317
  C        1.0480560    -1.1910380    -0.0190010
  C        1.7368580     0.0147850    -0.1457440
  H       -2.7927850    -0.9030380     1.1483340
  H       -2.8082890     0.8538600     1.1573130
  H       -0.8312370    -2.1635460     0.3309200
  H       -0.8789600     2.1456520     0.3351900
  H       -3.0230990     0.8672620    -1.3527740
  H       -4.3574070    -0.0294260    -0.6053230
  H       -3.0076490    -0.8981260    -1.3586750
  H        2.8074370     0.0467670    -0.3362510
  H        1.1590650     3.1223080    -0.0299710
  H        2.6215300    -2.2543830    -0.2976190
units angstrom
no_reorient  #important for SAPT in psi4, default
symmetry c1  #important for SAPT in psi4, default
}

set PROPERTIES_ORIGIN ["COM"]
properties('MP2/aug-cc-pvtz', properties = ['dipole'])
--------------------------------------------------------------------------

    Molecular point group: c1
  Charge       = 0
  Multiplicity = 1
  Basis Set: AUG-CC-PVTZ
    Blend: AUG-CC-PVTZ
  Basis Set: (AUG-CC-PVTZ AUX)
    Blend: AUG-CC-PVTZ-JKFIT

    Orbital Energies [Eh]
    ---------------------

    Doubly Occupied:

       1A    -20.605332     2A    -20.590435     3A    -11.315153
       4A    -11.305479     5A    -11.254611     6A    -11.230712
       7A    -11.224502     8A    -11.222942     9A    -11.220526
      10A    -11.217026    11A     -1.428744    12A     -1.399486
      13A     -1.143662    14A     -1.064885    15A     -0.998463
      16A     -0.981767    17A     -0.880623    18A     -0.838192
      19A     -0.807033    20A     -0.746632    21A     -0.685013
      22A     -0.677319    23A     -0.664822    24A     -0.619147
      25A     -0.609040    26A     -0.598094    27A     -0.589874
      28A     -0.579607    29A     -0.550138    30A     -0.545982
      31A     -0.522679    32A     -0.512699    33A     -0.492911
      34A     -0.483255    35A     -0.447740    36A     -0.321011
      37A     -0.304587

  @DF-RHF Final Energy:  -458.65243309937682

   => Energetics <=

    Nuclear Repulsion Energy =            506.8717731315329615
    One-Electron Energy =               -1629.6881649781321357
    Two-Electron Energy =                 664.1639587472222956
    Total Energy =                       -458.6524330993768217
  Basis Set: (AUG-CC-PVTZ AUX)
    Blend: AUG-CC-PVTZ-RI
    Molecular point group: c1

    Geometry (in Angstrom), charge = 0, multiplicity = 1:

       Center              X                  Y                   Z               Mass
    ------------   -----------------  -----------------  -----------------  -----------------
         O            1.766462654244     2.361972047760    -0.146542337221    15.994914619570
         O            1.679087654244    -2.413403952240    -0.128563337221    15.994914619570
         C           -1.059121645756     0.010924147760     0.371025662779    12.000000000000
         C           -2.510279345756    -0.025848952240     0.562775662779    12.000000000000
         C           -0.319392345756    -1.213795952240     0.233713662779    12.000000000000
         C           -0.333385345756     1.198820047760     0.234210662779    12.000000000000
         C           -3.269896345756    -0.026155952240    -0.764989337221    12.000000000000
         C            1.037316554244     1.252937147760    -0.018693037221    12.000000000000
         C            1.051729654244    -1.197445952240    -0.019662337221    12.000000000000
         C            1.740531654244     0.008377047760    -0.146405337221    12.000000000000
         H           -2.789111345756    -0.909445952240     1.147672662779     1.007825032230
         H           -2.804615345756     0.847452047760     1.156651662779     1.007825032230
         H           -0.827563345756    -2.169953952240     0.330258662779     1.007825032230
         H           -0.875286345756     2.139244047760     0.334528662779     1.007825032230
         H           -3.019425345756     0.860854047760    -1.353435337221     1.007825032230
         H           -4.353733345756    -0.035833952240    -0.605984337221     1.007825032230
         H           -3.003975345756    -0.904533952240    -1.359336337221     1.007825032230
         H            2.811110654244     0.040359047760    -0.336912337221     1.007825032230
         H            1.162738654244     3.115900047760    -0.030632337221     1.007825032230
         H            2.625203654244    -2.260790952240    -0.298280337221     1.007825032230

  Basis Set: AUG-CC-PVTZ
    Blend: AUG-CC-PVTZ
  Basis Set: (AUG-CC-PVTZ AUX)
    Blend: AUG-CC-PVTZ-JKFIT
	 Reference Energy          =    -458.6524330993768217 [Eh]
	 Singles Energy            =      -0.0000000000000000 [Eh]
	 Same-Spin Energy          =      -0.4824785119539159 [Eh]
	 Opposite-Spin Energy      =      -1.5061868738850248 [Eh]
	 Correlation Energy        =      -1.9886653858389407 [Eh]
	 Total Energy              =    -460.6410984852157640 [Eh]

	 ================> DF-SCS-MP2 Energies <==================
	-----------------------------------------------------------
	 SCS Same-Spin Scale       =       0.3333333333333333 [-]
	 SCS Opposite-Spin Scale   =       1.2000000000000000 [-]
	 SCS Same-Spin Energy      =      -0.1608261706513053 [Eh]
	 SCS Opposite-Spin Energy  =      -1.8074242486620298 [Eh]
	 SCS Correlation Energy    =      -1.9682504193133350 [Eh]
	 SCS Total Energy          =    -460.6206835186901571 [Eh]
	-----------------------------------------------------------

  Dipole Moment: [D]
     X:    -0.4418      Y:     1.5200      Z:    -0.0072     Total:     1.5830

*** Psi4 exiting successfully. Buy a developer a beer!
