                               Psi4 1.3.2 release

  ==> Input File <==

--------------------------------------------------------------------------
#psi4
#
memory 32 gb

molecule  {
0 1
  O        1.7627890     2.3683800    -0.1458810
  O        1.6754140    -2.4069960    -0.1279020
  C       -1.0215720    -0.0077180     0.3641480
  C       -2.5139530    -0.0194410     0.5634370
  C       -0.3230660    -1.2073880     0.2343750
  C       -0.3370590     1.2052280     0.2348720
  C       -3.2735700    -0.0197480    -0.7643280
  C        1.0346870     1.2106680    -0.0181020
  C        1.0480560    -1.1910380    -0.0190010
  C        1.7368580     0.0147850    -0.1457440
  H       -2.7927850    -0.9030380     1.1483340
  H       -2.8082890     0.8538600     1.1573130
  H       -0.9247277    -2.3394551     0.3486819
  H       -0.8789600     2.1456520     0.3351900
  H       -3.0230990     0.8672620    -1.3527740
  H       -4.3574070    -0.0294260    -0.6053230
  H       -3.0076490    -0.8981260    -1.3586750
  H        2.8074370     0.0467670    -0.3362510
  H        1.1590650     3.1223080    -0.0299710
  H        2.6215300    -2.2543830    -0.2976190
units angstrom
no_reorient  #important for SAPT in psi4, default
symmetry c1  #important for SAPT in psi4, default
}

set PROPERTIES_ORIGIN ["COM"]
properties('MP2/aug-cc-pvtz', properties = ['dipole'])
--------------------------------------------------------------------------

    Molecular point group: c1
  Charge       = 0
  Multiplicity = 1
  Basis Set: AUG-CC-PVTZ
    Blend: AUG-CC-PVTZ
  Basis Set: (AUG-CC-PVTZ AUX)
    Blend: AUG-CC-PVTZ-JKFIT

    Orbital Energies [Eh]
    ---------------------

    Doubly Occupied:

       1A    -20.596537     2A    -20.593525     3A    -11.311556
       4A    -11.311277     5A    -11.253671     6A    -11.237142
       7A    -11.232035     8A    -11.225688     9A    -11.224493
      10A    -11.219456    11A     -1.406152    12A     -1.402127
      13A     -1.151102    14A     -1.064548    15A     -0.998468
      16A     -0.987745    17A     -0.876796    18A     -0.832668
      19A     -0.808313    20A     -0.739823    21A     -0.684692
      22A     -0.673278    23A     -0.655788    24A     -0.612352
      25A     -0.602964    26A     -0.595864    27A     -0.577081
      28A     -0.576549    29A     -0.553633    30A     -0.547950
      31A     -0.523440    32A     -0.503991    33A     -0.487857
      34A     -0.479268    35A     -0.455170    36A     -0.327285
      37A     -0.312713

  @DF-RHF Final Energy:  -458.63787778823672

   => Energetics <=

    Nuclear Repulsion Energy =            506.5418809944385430
    One-Electron Energy =               -1629.0735210499296954
    Two-Electron Energy =                 663.8937622672544876
    Total Energy =                       -458.6378777882366649
  Basis Set: (AUG-CC-PVTZ AUX)
    Blend: AUG-CC-PVTZ-RI
    Molecular point group: c1

    Geometry (in Angstrom), charge = 0, multiplicity = 1:

       Center              X                  Y                   Z               Mass
    ------------   -----------------  -----------------  -----------------  -----------------
         O            1.763471473852     2.369663992182    -0.146010637839    15.994914619570
         O            1.676096473852    -2.405712007818    -0.128031637839    15.994914619570
         C           -1.020889526148    -0.006434007818     0.364018362161    12.000000000000
         C           -2.513270526148    -0.018157007818     0.563307362161    12.000000000000
         C           -0.322383526148    -1.206104007818     0.234245362161    12.000000000000
         C           -0.336376526148     1.206511992182     0.234742362161    12.000000000000
         C           -3.272887526148    -0.018464007818    -0.764457637839    12.000000000000
         C            1.035369473852     1.211951992182    -0.018231637839    12.000000000000
         C            1.048738473852    -1.189754007818    -0.019130637839    12.000000000000
         C            1.737540473852     0.016068992182    -0.145873637839    12.000000000000
         H           -2.792102526148    -0.901754007818     1.148204362161     1.007825032230
         H           -2.807606526148     0.855143992182     1.157183362161     1.007825032230
         H           -0.924045226148    -2.338171107818     0.348552262161     1.007825032230
         H           -0.878277526148     2.146935992182     0.335060362161     1.007825032230
         H           -3.022416526148     0.868545992182    -1.352903637839     1.007825032230
         H           -4.356724526148    -0.028142007818    -0.605452637839     1.007825032230
         H           -3.006966526148    -0.896842007818    -1.358804637839     1.007825032230
         H            2.808119473852     0.048050992182    -0.336380637839     1.007825032230
         H            1.159747473852     3.123591992182    -0.030100637839     1.007825032230
         H            2.622212473852    -2.253099007818    -0.297748637839     1.007825032230

  Basis Set: AUG-CC-PVTZ
    Blend: AUG-CC-PVTZ
  Basis Set: (AUG-CC-PVTZ AUX)
    Blend: AUG-CC-PVTZ-JKFIT
	 Reference Energy          =    -458.6378777882367217 [Eh]
	 Singles Energy            =      -0.0000000000000000 [Eh]
	 Same-Spin Energy          =      -0.4823426449787765 [Eh]
	 Opposite-Spin Energy      =      -1.5073960605020595 [Eh]
	 Correlation Energy        =      -1.9897387054808360 [Eh]
	 Total Energy              =    -460.6276164937175395 [Eh]

	 ================> DF-SCS-MP2 Energies <==================
	-----------------------------------------------------------
	 SCS Same-Spin Scale       =       0.3333333333333333 [-]
	 SCS Opposite-Spin Scale   =       1.2000000000000000 [-]
	 SCS Same-Spin Energy      =      -0.1607808816595922 [Eh]
	 SCS Opposite-Spin Energy  =      -1.8088752726024713 [Eh]
	 SCS Correlation Energy    =      -1.9696561542620634 [Eh]
	 SCS Total Energy          =    -460.6075339424987760 [Eh]
	-----------------------------------------------------------

  Dipole Moment: [D]
     X:    -0.4623      Y:     1.2726      Z:     0.0024     Total:     1.3540

*** Psi4 exiting successfully. Buy a developer a beer!
