                               Psi4 1.3.2 release

  ==> Input File <==

--------------------------------------------------------------------------
#psi4
#
memory 32 gb

molecule  {
0 1
  O        1.7627890     2.3683800    -0.1458810
  O        1.6754140    -2.4069960    -0.1279020
  C       -1.0215720    -0.0077180     0.3641480
  C       -2.3157187    -0.0178838     0.5369653
  C       -0.3230660    -1.2073880     0.2343750
  C       -0.3370590     1.2052280     0.2348720
  C       -3.2735700    -0.0197480    -0.7643280
  C        1.0346870     1.2106680    -0.0181020
  C        1.0480560    -1.1910380    -0.0190010
  C        1.7368580     0.0147850    -0.1457440
  H       -2.7927850    -0.9030380     1.1483340
  H       -2.8082890     0.8538600     1.1573130
  H       -0.8312370    -2.1635460     0.3309200
  H       -0.8789600     2.1456520     0.3351900
  H       -3.0230990     0.8672620    -1.3527740
  H       -4.3574070    -0.0294260    -0.6053230
  H       -3.0076490    -0.8981260    -1.3586750
  H        2.8074370     0.0467670    -0.3362510
  H        1.1590650     3.1223080    -0.0299710
  H        2.6215300    -2.2543830    -0.2976190
units angstrom
no_reorient  #important for SAPT in psi4, default
symmetry c1  #important for SAPT in psi4, default
}

set PROPERTIES_ORIGIN ["COM"]
properties('MP2/aug-cc-pvtz', properties = ['dipole'])
--------------------------------------------------------------------------

    Molecular point group: c1
  Charge       = 0
  Multiplicity = 1
  Basis Set: AUG-CC-PVTZ
    Blend: AUG-CC-PVTZ
  Basis Set: (AUG-CC-PVTZ AUX)
    Blend: AUG-CC-PVTZ-JKFIT

    Orbital Energies [Eh]
    ---------------------

    Doubly Occupied:

       1A    -20.596504     2A    -20.594132     3A    -11.311394
       4A    -11.309648     5A    -11.240508     6A    -11.236856
       7A    -11.227603     8A    -11.225334     9A    -11.223923
      10A    -11.217361    11A     -1.406214    12A     -1.402683
      13A     -1.167294    14A     -1.078898    15A     -1.003579
      16A     -0.977027    17A     -0.896002    18A     -0.840311
      19A     -0.801318    20A     -0.739550    21A     -0.689680
      22A     -0.677540    23A     -0.671658    24A     -0.624991
      25A     -0.602862    26A     -0.592440    27A     -0.582647
      28A     -0.577269    29A     -0.562254    30A     -0.552523
      31A     -0.525391    32A     -0.515126    33A     -0.507976
      34A     -0.454088    35A     -0.439805    36A     -0.319978
      37A     -0.312650

  @DF-RHF Final Energy:  -458.60739661260504

   => Energetics <=

    Nuclear Repulsion Energy =            510.6492442098523270
    One-Electron Energy =               -1637.1032485242808434
    Two-Electron Energy =                 667.8466077018233591
    Total Energy =                       -458.6073966126050436
  Basis Set: (AUG-CC-PVTZ AUX)
    Blend: AUG-CC-PVTZ-RI
    Molecular point group: c1

    Geometry (in Angstrom), charge = 0, multiplicity = 1:

       Center              X                  Y                   Z               Mass
    ------------   -----------------  -----------------  -----------------  -----------------
         O            1.745559774960     2.368244605492    -0.143580233298    15.994914619570
         O            1.658184774960    -2.407131394508    -0.125601233298    15.994914619570
         C           -1.038801225040    -0.007853394508     0.366448766702    12.000000000000
         C           -2.332947925040    -0.018019194508     0.539266066702    12.000000000000
         C           -0.340295225040    -1.207523394508     0.236675766702    12.000000000000
         C           -0.354288225040     1.205092605492     0.237172766702    12.000000000000
         C           -3.290799225040    -0.019883394508    -0.762027233298    12.000000000000
         C            1.017457774960     1.210532605492    -0.015801233298    12.000000000000
         C            1.030826774960    -1.191173394508    -0.016700233298    12.000000000000
         C            1.719628774960     0.014649605492    -0.143443233298    12.000000000000
         H           -2.810014225040    -0.903173394508     1.150634766702     1.007825032230
         H           -2.825518225040     0.853724605492     1.159613766702     1.007825032230
         H           -0.848466225040    -2.163681394508     0.333220766702     1.007825032230
         H           -0.896189225040     2.145516605492     0.337490766702     1.007825032230
         H           -3.040328225040     0.867126605492    -1.350473233298     1.007825032230
         H           -4.374636225040    -0.029561394508    -0.603022233298     1.007825032230
         H           -3.024878225040    -0.898261394508    -1.356374233298     1.007825032230
         H            2.790207774960     0.046631605492    -0.333950233298     1.007825032230
         H            1.141835774960     3.122172605492    -0.027670233298     1.007825032230
         H            2.604300774960    -2.254518394508    -0.295318233298     1.007825032230

  Basis Set: AUG-CC-PVTZ
    Blend: AUG-CC-PVTZ
  Basis Set: (AUG-CC-PVTZ AUX)
    Blend: AUG-CC-PVTZ-JKFIT
	 Reference Energy          =    -458.6073966126050436 [Eh]
	 Singles Energy            =      -0.0000000000000000 [Eh]
	 Same-Spin Energy          =      -0.4851834689698104 [Eh]
	 Opposite-Spin Energy      =      -1.5102579273540362 [Eh]
	 Correlation Energy        =      -1.9954413963238467 [Eh]
	 Total Energy              =    -460.6028380089288703 [Eh]

	 ================> DF-SCS-MP2 Energies <==================
	-----------------------------------------------------------
	 SCS Same-Spin Scale       =       0.3333333333333333 [-]
	 SCS Opposite-Spin Scale   =       1.2000000000000000 [-]
	 SCS Same-Spin Energy      =      -0.1617278229899368 [Eh]
	 SCS Opposite-Spin Energy  =      -1.8123095128248434 [Eh]
	 SCS Correlation Energy    =      -1.9740373358147802 [Eh]
	 SCS Total Energy          =    -460.5814339484198285 [Eh]
	-----------------------------------------------------------

  Dipole Moment: [D]
     X:    -0.4045      Y:     1.2182      Z:    -0.0326     Total:     1.2840

*** Psi4 exiting successfully. Buy a developer a beer!
