                               Psi4 1.3.2 release

  ==> Input File <==

--------------------------------------------------------------------------
#psi4
#
memory 32 gb

molecule  {
0 1
  O        1.7627890     2.3683800    -0.1458810
  O        1.6754140    -2.4069960    -0.1279020
  C       -1.0215720    -0.0077180     0.3641480
  C       -2.5139530    -0.0194410     0.5634370
  C       -0.3731647    -1.1213445     0.2436827
  C       -0.3370590     1.2052280     0.2348720
  C       -3.2735700    -0.0197480    -0.7643280
  C        1.0346870     1.2106680    -0.0181020
  C        1.0480560    -1.1910380    -0.0190010
  C        1.7368580     0.0147850    -0.1457440
  H       -2.7927850    -0.9030380     1.1483340
  H       -2.8082890     0.8538600     1.1573130
  H       -0.8312370    -2.1635460     0.3309200
  H       -0.8789600     2.1456520     0.3351900
  H       -3.0230990     0.8672620    -1.3527740
  H       -4.3574070    -0.0294260    -0.6053230
  H       -3.0076490    -0.8981260    -1.3586750
  H        2.8074370     0.0467670    -0.3362510
  H        1.1590650     3.1223080    -0.0299710
  H        2.6215300    -2.2543830    -0.2976190
units angstrom
no_reorient  #important for SAPT in psi4, default
symmetry c1  #important for SAPT in psi4, default
}

set PROPERTIES_ORIGIN ["COM"]
properties('MP2/aug-cc-pvtz', properties = ['dipole'])
--------------------------------------------------------------------------

    Molecular point group: c1
  Charge       = 0
  Multiplicity = 1
  Basis Set: AUG-CC-PVTZ
    Blend: AUG-CC-PVTZ
  Basis Set: (AUG-CC-PVTZ AUX)
    Blend: AUG-CC-PVTZ-JKFIT

    Orbital Energies [Eh]
    ---------------------

    Doubly Occupied:

       1A    -20.600169     2A    -20.594271     3A    -11.316800
       4A    -11.308812     5A    -11.236070     6A    -11.229962
       7A    -11.224946     8A    -11.219242     9A    -11.218281
      10A    -11.217447    11A     -1.407120    12A     -1.402922
      13A     -1.159470    14A     -1.065453    15A     -0.997511
      16A     -0.990286    17A     -0.874140    18A     -0.841587
      19A     -0.809591    20A     -0.739484    21A     -0.687577
      22A     -0.675854    23A     -0.666001    24A     -0.612701
      25A     -0.602775    26A     -0.597566    27A     -0.584002
      28A     -0.577518    29A     -0.555964    30A     -0.549353
      31A     -0.525120    32A     -0.514282    33A     -0.487828
      34A     -0.470592    35A     -0.459121    36A     -0.336169
      37A     -0.306418

  @DF-RHF Final Energy:  -458.64605216283428

   => Energetics <=

    Nuclear Repulsion Energy =            508.5066755415014654
    One-Electron Energy =               -1632.9806409912794152
    Two-Electron Energy =                 665.8279132869437262
    Total Energy =                       -458.6460521628342804
  Basis Set: (AUG-CC-PVTZ AUX)
    Blend: AUG-CC-PVTZ-RI
    Molecular point group: c1

    Geometry (in Angstrom), charge = 0, multiplicity = 1:

       Center              X                  Y                   Z               Mass
    ------------   -----------------  -----------------  -----------------  -----------------
         O            1.767143301069     2.360901593239    -0.146689951355    15.994914619570
         O            1.679768301069    -2.414474406761    -0.128710951355    15.994914619570
         C           -1.017217698931    -0.015196406761     0.363339048645    12.000000000000
         C           -2.509598698931    -0.026919406761     0.562628048645    12.000000000000
         C           -0.368810398931    -1.128822906761     0.242873748645    12.000000000000
         C           -0.332704698931     1.197749593239     0.234063048645    12.000000000000
         C           -3.269215698931    -0.027226406761    -0.765136951355    12.000000000000
         C            1.039041301069     1.203189593239    -0.018910951355    12.000000000000
         C            1.052410301069    -1.198516406761    -0.019809951355    12.000000000000
         C            1.741212301069     0.007306593239    -0.146552951355    12.000000000000
         H           -2.788430698931    -0.910516406761     1.147525048645     1.007825032230
         H           -2.803934698931     0.846381593239     1.156504048645     1.007825032230
         H           -0.826882698931    -2.171024406761     0.330111048645     1.007825032230
         H           -0.874605698931     2.138173593239     0.334381048645     1.007825032230
         H           -3.018744698931     0.859783593239    -1.353582951355     1.007825032230
         H           -4.353052698931    -0.036904406761    -0.606131951355     1.007825032230
         H           -3.003294698931    -0.905604406761    -1.359483951355     1.007825032230
         H            2.811791301069     0.039288593239    -0.337059951355     1.007825032230
         H            1.163419301069     3.114829593239    -0.030779951355     1.007825032230
         H            2.625884301069    -2.261861406761    -0.298427951355     1.007825032230

  Basis Set: AUG-CC-PVTZ
    Blend: AUG-CC-PVTZ
  Basis Set: (AUG-CC-PVTZ AUX)
    Blend: AUG-CC-PVTZ-JKFIT
	 Reference Energy          =    -458.6460521628342804 [Eh]
	 Singles Energy            =      -0.0000000000000000 [Eh]
	 Same-Spin Energy          =      -0.4816707188631033 [Eh]
	 Opposite-Spin Energy      =      -1.5056416321620150 [Eh]
	 Correlation Energy        =      -1.9873123510251183 [Eh]
	 Total Energy              =    -460.6333645138594193 [Eh]

	 ================> DF-SCS-MP2 Energies <==================
	-----------------------------------------------------------
	 SCS Same-Spin Scale       =       0.3333333333333333 [-]
	 SCS Opposite-Spin Scale   =       1.2000000000000000 [-]
	 SCS Same-Spin Energy      =      -0.1605569062877011 [Eh]
	 SCS Opposite-Spin Energy  =      -1.8067699585944179 [Eh]
	 SCS Correlation Energy    =      -1.9673268648821189 [Eh]
	 SCS Total Energy          =    -460.6133790277164053 [Eh]
	-----------------------------------------------------------

  Dipole Moment: [D]
     X:    -0.3913      Y:     1.0978      Z:    -0.0059     Total:     1.1654

*** Psi4 exiting successfully. Buy a developer a beer!
