                               Psi4 1.3.2 release

  ==> Input File <==

--------------------------------------------------------------------------
#psi4
#
memory 32 gb

molecule  {
0 1
  O        1.7627890     2.3683800    -0.1458810
  O        1.6754140    -2.4069960    -0.1279020
  C       -1.0215720    -0.0077180     0.3641480
  C       -2.5139530    -0.0194410     0.5634370
  C       -0.3230660    -1.2073880     0.2343750
  C       -0.3370590     1.2052280     0.2348720
  C       -3.2735700    -0.0197480    -0.7643280
  C        1.0346870     1.2106680    -0.0181020
  C        1.0480560    -1.1910380    -0.0190010
  C        1.7368580     0.0147850    -0.1457440
  H       -2.7927850    -0.9030380     1.1483340
  H       -2.8082890     0.8538600     1.1573130
  H       -0.8312370    -2.1635460     0.3309200
  H       -0.8789600     2.1456520     0.3351900
  H       -3.0230990     0.8672620    -1.3527740
  H       -4.3574070    -0.0294260    -0.6053230
  H       -3.0076490    -0.8981260    -1.3586750
  H        2.9058478     0.0497069    -0.3537630
  H        1.1590650     3.1223080    -0.0299710
  H        2.6215300    -2.2543830    -0.2976190
units angstrom
no_reorient  #important for SAPT in psi4, default
symmetry c1  #important for SAPT in psi4, default
}

set PROPERTIES_ORIGIN ["COM"]
properties('MP2/aug-cc-pvtz', properties = ['dipole'])
--------------------------------------------------------------------------

    Molecular point group: c1
  Charge       = 0
  Multiplicity = 1
  Basis Set: AUG-CC-PVTZ
    Blend: AUG-CC-PVTZ
  Basis Set: (AUG-CC-PVTZ AUX)
    Blend: AUG-CC-PVTZ-JKFIT

    Orbital Energies [Eh]
    ---------------------

    Doubly Occupied:

       1A    -20.595828     2A    -20.593026     3A    -11.311653
       4A    -11.309830     5A    -11.251813     6A    -11.235098
       7A    -11.232425     8A    -11.223541     9A    -11.219977
      10A    -11.216736    11A     -1.405421    12A     -1.401694
      13A     -1.150862    14A     -1.063370    15A     -1.002045
      16A     -0.986016    17A     -0.874877    18A     -0.837125
      19A     -0.807305    20A     -0.739257    21A     -0.685759
      22A     -0.671314    23A     -0.661943    24A     -0.611850
      25A     -0.602237    26A     -0.594116    27A     -0.583823
      28A     -0.576439    29A     -0.552409    30A     -0.543923
      31A     -0.523478    32A     -0.520250    33A     -0.488061
      34A     -0.481926    35A     -0.454450    36A     -0.326504
      37A     -0.311942

  @DF-RHF Final Energy:  -458.65286962599123

   => Energetics <=

    Nuclear Repulsion Energy =            506.9935462249525813
    One-Electron Energy =               -1629.9961866738244680
    Two-Electron Energy =                 664.3497708228807141
    Total Energy =                       -458.6528696259912294
  Basis Set: (AUG-CC-PVTZ AUX)
    Blend: AUG-CC-PVTZ-RI
    Molecular point group: c1

    Geometry (in Angstrom), charge = 0, multiplicity = 1:

       Center              X                  Y                   Z               Mass
    ------------   -----------------  -----------------  -----------------  -----------------
         O            1.762070692904     2.368358487682    -0.145753156750    15.994914619570
         O            1.674695692904    -2.407017512318    -0.127774156750    15.994914619570
         C           -1.022290307096    -0.007739512318     0.364275843250    12.000000000000
         C           -2.514671307096    -0.019462512318     0.563564843250    12.000000000000
         C           -0.323784307096    -1.207409512318     0.234502843250    12.000000000000
         C           -0.337777307096     1.205206487682     0.234999843250    12.000000000000
         C           -3.274288307096    -0.019769512318    -0.764200156750    12.000000000000
         C            1.033968692904     1.210646487682    -0.017974156750    12.000000000000
         C            1.047337692904    -1.191059512318    -0.018873156750    12.000000000000
         C            1.736139692904     0.014763487682    -0.145616156750    12.000000000000
         H           -2.793503307096    -0.903059512318     1.148461843250     1.007825032230
         H           -2.809007307096     0.853838487682     1.157440843250     1.007825032230
         H           -0.831955307096    -2.163567512318     0.331047843250     1.007825032230
         H           -0.879678307096     2.145630487682     0.335317843250     1.007825032230
         H           -3.023817307096     0.867240487682    -1.352646156750     1.007825032230
         H           -4.358125307096    -0.029447512318    -0.605195156750     1.007825032230
         H           -3.008367307096    -0.898147512318    -1.358547156750     1.007825032230
         H            2.905129492904     0.049685387682    -0.353635156750     1.007825032230
         H            1.158346692904     3.122286487682    -0.029843156750     1.007825032230
         H            2.620811692904    -2.254404512318    -0.297491156750     1.007825032230

  Basis Set: AUG-CC-PVTZ
    Blend: AUG-CC-PVTZ
  Basis Set: (AUG-CC-PVTZ AUX)
    Blend: AUG-CC-PVTZ-JKFIT
	 Reference Energy          =    -458.6528696259912294 [Eh]
	 Singles Energy            =      -0.0000000000000000 [Eh]
	 Same-Spin Energy          =      -0.4819856107310905 [Eh]
	 Opposite-Spin Energy      =      -1.5060586286072262 [Eh]
	 Correlation Energy        =      -1.9880442393383166 [Eh]
	 Total Energy              =    -460.6409138653295372 [Eh]

	 ================> DF-SCS-MP2 Energies <==================
	-----------------------------------------------------------
	 SCS Same-Spin Scale       =       0.3333333333333333 [-]
	 SCS Opposite-Spin Scale   =       1.2000000000000000 [-]
	 SCS Same-Spin Energy      =      -0.1606618702436968 [Eh]
	 SCS Opposite-Spin Energy  =      -1.8072703543286712 [Eh]
	 SCS Correlation Energy    =      -1.9679322245723680 [Eh]
	 SCS Total Energy          =    -460.6208018505636232 [Eh]
	-----------------------------------------------------------

  Dipole Moment: [D]
     X:    -0.5256      Y:     1.2342      Z:     0.0136     Total:     1.3415

*** Psi4 exiting successfully. Buy a developer a beer!
