                               Psi4 1.3.2 release

  ==> Input File <==

--------------------------------------------------------------------------
#psi4
#
memory 32 gb

molecule  {
0 1
  O        1.7627890     2.3683800    -0.1458810
  O        1.6754140    -2.4069960    -0.1279020
  C       -1.0215720    -0.0077180     0.3641480
  C       -2.5139530    -0.0194410     0.5634370
  C       -0.3230660    -1.2073880     0.2343750
  C       -0.3370590     1.2052280     0.2348720
  C       -3.2735700    -0.0197480    -0.7643280
  C        1.0346870     1.2106680    -0.0181020
  C        1.1111556    -1.2260389    -0.0300996
  C        1.7368580     0.0147850    -0.1457440
  H       -2.7927850    -0.9030380     1.1483340
  H       -2.8082890     0.8538600     1.1573130
  H       -0.8312370    -2.1635460     0.3309200
  H       -0.8789600     2.1456520     0.3351900
  H       -3.0230990     0.8672620    -1.3527740
  H       -4.3574070    -0.0294260    -0.6053230
  H       -3.0076490    -0.8981260    -1.3586750
  H        2.8076523    -0.0101865    -0.3360888
  H        1.1590650     3.1223080    -0.0299710
  H        2.6215300    -2.2543830    -0.2976190
units angstrom
no_reorient  #important for SAPT in psi4, default
symmetry c1  #important for SAPT in psi4, default
}

set PROPERTIES_ORIGIN ["COM"]
properties('MP2/aug-cc-pvtz', properties = ['dipole'])
--------------------------------------------------------------------------

    Molecular point group: c1
  Charge       = 0
  Multiplicity = 1
  Basis Set: AUG-CC-PVTZ
    Blend: AUG-CC-PVTZ
  Basis Set: (AUG-CC-PVTZ AUX)
    Blend: AUG-CC-PVTZ-JKFIT

    Orbital Energies [Eh]
    ---------------------

    Doubly Occupied:

       1A    -20.608190     2A    -20.594439     3A    -11.314499
       4A    -11.310759     5A    -11.247865     6A    -11.229878
       7A    -11.222364     8A    -11.218900     9A    -11.217659
      10A    -11.217392    11A     -1.439614    12A     -1.403244
      13A     -1.142671    14A     -1.061429    15A     -0.992603
      16A     -0.984830    17A     -0.874093    18A     -0.839594
      19A     -0.815146    20A     -0.744082    21A     -0.693882
      22A     -0.671791    23A     -0.667519    24A     -0.615429
      25A     -0.609228    26A     -0.598673    27A     -0.593061
      28A     -0.583664    29A     -0.550392    30A     -0.543663
      31A     -0.525081    32A     -0.514905    33A     -0.485303
      34A     -0.474706    35A     -0.449505    36A     -0.325948
      37A     -0.300968

  @DF-RHF Final Energy:  -458.65301753775623

   => Energetics <=

    Nuclear Repulsion Energy =            507.0468386313544897
    One-Electron Energy =               -1630.0337791113913681
    Two-Electron Energy =                 664.3339229422807648
    Total Energy =                       -458.6530175377562273
  Basis Set: (AUG-CC-PVTZ AUX)
    Blend: AUG-CC-PVTZ-RI
    Molecular point group: c1

    Geometry (in Angstrom), charge = 0, multiplicity = 1:

       Center              X                  Y                   Z               Mass
    ------------   -----------------  -----------------  -----------------  -----------------
         O            1.757303252674     2.371837734074    -0.144917549424    15.994914619570
         O            1.669928252674    -2.403538265926    -0.126938549424    15.994914619570
         C           -1.027057747326    -0.004260265926     0.365111450576    12.000000000000
         C           -2.519438747326    -0.015983265926     0.564400450576    12.000000000000
         C           -0.328551747326    -1.203930265926     0.235338450576    12.000000000000
         C           -0.342544747326     1.208685734074     0.235835450576    12.000000000000
         C           -3.279055747326    -0.016290265926    -0.763364549424    12.000000000000
         C            1.029201252674     1.214125734074    -0.017138549424    12.000000000000
         C            1.105669852674    -1.222581165926    -0.029136149424    12.000000000000
         C            1.731372252674     0.018242734074    -0.144780549424    12.000000000000
         H           -2.798270747326    -0.899580265926     1.149297450576     1.007825032230
         H           -2.813774747326     0.857317734074     1.158276450576     1.007825032230
         H           -0.836722747326    -2.160088265926     0.331883450576     1.007825032230
         H           -0.884445747326     2.149109734074     0.336153450576     1.007825032230
         H           -3.028584747326     0.870719734074    -1.351810549424     1.007825032230
         H           -4.362892747326    -0.025968265926    -0.604359549424     1.007825032230
         H           -3.013134747326    -0.894668265926    -1.357711549424     1.007825032230
         H            2.802166552674    -0.006728765926    -0.335125349424     1.007825032230
         H            1.153579252674     3.125765734074    -0.029007549424     1.007825032230
         H            2.616044252674    -2.250925265926    -0.296655549424     1.007825032230

  Basis Set: AUG-CC-PVTZ
    Blend: AUG-CC-PVTZ
  Basis Set: (AUG-CC-PVTZ AUX)
    Blend: AUG-CC-PVTZ-JKFIT
	 Reference Energy          =    -458.6530175377562273 [Eh]
	 Singles Energy            =      -0.0000000000000000 [Eh]
	 Same-Spin Energy          =      -0.4817603324643278 [Eh]
	 Opposite-Spin Energy      =      -1.5051342165933124 [Eh]
	 Correlation Energy        =      -1.9868945490576402 [Eh]
	 Total Energy              =    -460.6399120868138652 [Eh]

	 ================> DF-SCS-MP2 Energies <==================
	-----------------------------------------------------------
	 SCS Same-Spin Scale       =       0.3333333333333333 [-]
	 SCS Opposite-Spin Scale   =       1.2000000000000000 [-]
	 SCS Same-Spin Energy      =      -0.1605867774881092 [Eh]
	 SCS Opposite-Spin Energy  =      -1.8061610599119748 [Eh]
	 SCS Correlation Energy    =      -1.9667478374000842 [Eh]
	 SCS Total Energy          =    -460.6197653751563053 [Eh]
	-----------------------------------------------------------

  Dipole Moment: [D]
     X:    -0.2151      Y:     0.8110      Z:    -0.0324     Total:     0.8396

*** Psi4 exiting successfully. Buy a developer a beer!
