                               Psi4 1.3.2 release

  ==> Input File <==

--------------------------------------------------------------------------
#psi4
#
memory 32 gb

molecule  {
0 1
  O        1.7627890     2.3683800    -0.1458810
  O        1.6754140    -2.4069960    -0.1279020
  C       -1.0215720    -0.0077180     0.3641480
  C       -2.5139530    -0.0194410     0.5634370
  C       -0.3230660    -1.2073880     0.2343750
  C       -0.3370590     1.2052280     0.2348720
  C       -3.2735700    -0.0197480    -0.7643280
  C        1.0325324     1.2836628    -0.0176751
  C        1.0480560    -1.1910380    -0.0190010
  C        1.7368580     0.0147850    -0.1457440
  H       -2.7927850    -0.9030380     1.1483340
  H       -2.8082890     0.8538600     1.1573130
  H       -0.8312370    -2.1635460     0.3309200
  H       -0.8298135     2.1732060     0.3261376
  H       -3.0230990     0.8672620    -1.3527740
  H       -4.3574070    -0.0294260    -0.6053230
  H       -3.0076490    -0.8981260    -1.3586750
  H        2.8074370     0.0467670    -0.3362510
  H        1.1590650     3.1223080    -0.0299710
  H        2.6215300    -2.2543830    -0.2976190
units angstrom
no_reorient  #important for SAPT in psi4, default
symmetry c1  #important for SAPT in psi4, default
}

set PROPERTIES_ORIGIN ["COM"]
properties('MP2/aug-cc-pvtz', properties = ['dipole'])
--------------------------------------------------------------------------

    Molecular point group: c1
  Charge       = 0
  Multiplicity = 1
  Basis Set: AUG-CC-PVTZ
    Blend: AUG-CC-PVTZ
  Basis Set: (AUG-CC-PVTZ AUX)
    Blend: AUG-CC-PVTZ-JKFIT

    Orbital Energies [Eh]
    ---------------------

    Doubly Occupied:

       1A    -20.609892     2A    -20.590480     3A    -11.315776
       4A    -11.305535     5A    -11.251559     6A    -11.231212
       7A    -11.224120     8A    -11.221232     9A    -11.218591
      10A    -11.213736    11A     -1.441065    12A     -1.399527
      13A     -1.143840    14A     -1.057005    15A     -1.000729
      16A     -0.981402    17A     -0.875565    18A     -0.841899
      19A     -0.809744    20A     -0.746948    21A     -0.687543
      22A     -0.679072    23A     -0.662875    24A     -0.617585
      25A     -0.614167    26A     -0.596760    27A     -0.589936
      28A     -0.580802    29A     -0.553731    30A     -0.543657
      31A     -0.520991    32A     -0.511350    33A     -0.487104
      34A     -0.480444    35A     -0.449851    36A     -0.320089
      37A     -0.306372

  @DF-RHF Final Energy:  -458.65280117256992

   => Energetics <=

    Nuclear Repulsion Energy =            507.0776743132591378
    One-Electron Energy =               -1630.0965772490046675
    Two-Electron Energy =                 664.3661017631754930
    Total Energy =                       -458.6528011725699798
  Basis Set: (AUG-CC-PVTZ AUX)
    Blend: AUG-CC-PVTZ-RI
    Molecular point group: c1

    Geometry (in Angstrom), charge = 0, multiplicity = 1:

       Center              X                  Y                   Z               Mass
    ------------   -----------------  -----------------  -----------------  -----------------
         O            1.762617560761     2.361834573472    -0.145852010857    15.994914619570
         O            1.675242560761    -2.413541426528    -0.127873010857    15.994914619570
         C           -1.021743439239    -0.014263426528     0.364176989143    12.000000000000
         C           -2.514124439239    -0.025986426528     0.563465989143    12.000000000000
         C           -0.323237439239    -1.213933426528     0.234403989143    12.000000000000
         C           -0.337230439239     1.198682573472     0.234900989143    12.000000000000
         C           -3.273741439239    -0.026293426528    -0.764299010857    12.000000000000
         C            1.032360960761     1.277117373472    -0.017646110857    12.000000000000
         C            1.047884560761    -1.197583426528    -0.018972010857    12.000000000000
         C            1.736686560761     0.008239573472    -0.145715010857    12.000000000000
         H           -2.792956439239    -0.909583426528     1.148362989143     1.007825032230
         H           -2.808460439239     0.847314573472     1.157341989143     1.007825032230
         H           -0.831408439239    -2.170091426528     0.330948989143     1.007825032230
         H           -0.829984939239     2.166660573472     0.326166589143     1.007825032230
         H           -3.023270439239     0.860716573472    -1.352745010857     1.007825032230
         H           -4.357578439239    -0.035971426528    -0.605294010857     1.007825032230
         H           -3.007820439239    -0.904671426528    -1.358646010857     1.007825032230
         H            2.807265560761     0.040221573472    -0.336222010857     1.007825032230
         H            1.158893560761     3.115762573472    -0.029942010857     1.007825032230
         H            2.621358560761    -2.260928426528    -0.297590010857     1.007825032230

  Basis Set: AUG-CC-PVTZ
    Blend: AUG-CC-PVTZ
  Basis Set: (AUG-CC-PVTZ AUX)
    Blend: AUG-CC-PVTZ-JKFIT
	 Reference Energy          =    -458.6528011725699230 [Eh]
	 Singles Energy            =      -0.0000000000000000 [Eh]
	 Same-Spin Energy          =      -0.4818472151302248 [Eh]
	 Opposite-Spin Energy      =      -1.5052818732710731 [Eh]
	 Correlation Energy        =      -1.9871290884012978 [Eh]
	 Total Energy              =    -460.6399302609711981 [Eh]

	 ================> DF-SCS-MP2 Energies <==================
	-----------------------------------------------------------
	 SCS Same-Spin Scale       =       0.3333333333333333 [-]
	 SCS Opposite-Spin Scale   =       1.2000000000000000 [-]
	 SCS Same-Spin Energy      =      -0.1606157383767416 [Eh]
	 SCS Opposite-Spin Energy  =      -1.8063382479252876 [Eh]
	 SCS Correlation Energy    =      -1.9669539863020291 [Eh]
	 SCS Total Energy          =    -460.6197551588719534 [Eh]
	-----------------------------------------------------------

  Dipole Moment: [D]
     X:    -0.3073      Y:     1.6342      Z:    -0.0169     Total:     1.6629

*** Psi4 exiting successfully. Buy a developer a beer!
