                               Psi4 1.3.2 release

  ==> Input File <==

--------------------------------------------------------------------------
#psi4
#
memory 32 gb

molecule  {
0 1
  O        1.7627890     2.3683800    -0.1458810
  O        1.6754140    -2.4069960    -0.1279020
  C       -1.0215720    -0.0077180     0.3641480
  C       -2.5139530    -0.0194410     0.5634370
  C       -0.3230660    -1.2073880     0.2343750
  C       -0.3370590     1.2052280     0.2348720
  C       -3.2735700    -0.0197480    -0.7643280
  C        0.8380051     1.2098880     0.0181696
  C        1.0480560    -1.1910380    -0.0190010
  C        1.7368580     0.0147850    -0.1457440
  H       -2.7927850    -0.9030380     1.1483340
  H       -2.8082890     0.8538600     1.1573130
  H       -0.8312370    -2.1635460     0.3309200
  H       -0.8789600     2.1456520     0.3351900
  H       -3.0230990     0.8672620    -1.3527740
  H       -4.3574070    -0.0294260    -0.6053230
  H       -3.0076490    -0.8981260    -1.3586750
  H        2.8074370     0.0467670    -0.3362510
  H        1.1590650     3.1223080    -0.0299710
  H        2.6215300    -2.2543830    -0.2976190
units angstrom
no_reorient  #important for SAPT in psi4, default
symmetry c1  #important for SAPT in psi4, default
}

set PROPERTIES_ORIGIN ["COM"]
properties('MP2/aug-cc-pvtz', properties = ['dipole'])
--------------------------------------------------------------------------

    Molecular point group: c1
  Charge       = 0
  Multiplicity = 1
  Basis Set: AUG-CC-PVTZ
    Blend: AUG-CC-PVTZ
  Basis Set: (AUG-CC-PVTZ AUX)
    Blend: AUG-CC-PVTZ-JKFIT

    Orbital Energies [Eh]
    ---------------------

    Doubly Occupied:

       1A    -20.591242     2A    -20.578818     3A    -11.305820
       4A    -11.294128     5A    -11.258324     6A    -11.237091
       7A    -11.232165     8A    -11.225991     9A    -11.224037
      10A    -11.209120    11A     -1.401206    12A     -1.355204
      13A     -1.173275    14A     -1.064471    15A     -1.039113
      16A     -0.978628    17A     -0.887511    18A     -0.821627
      19A     -0.807483    20A     -0.732416    21A     -0.696792
      22A     -0.674071    23A     -0.638819    24A     -0.613378
      25A     -0.601487    26A     -0.594880    27A     -0.582025
      28A     -0.563538    29A     -0.557462    30A     -0.550186
      31A     -0.529089    32A     -0.504768    33A     -0.492871
      34A     -0.486378    35A     -0.465290    36A     -0.347481
      37A     -0.313079

  @DF-RHF Final Energy:  -458.59541296917183

   => Energetics <=

    Nuclear Repulsion Energy =            508.6328231933761685
    One-Electron Energy =               -1633.1979441451883304
    Two-Electron Energy =                 665.9697079826403296
    Total Energy =                       -458.5954129691717753
  Basis Set: (AUG-CC-PVTZ AUX)
    Blend: AUG-CC-PVTZ-RI
    Molecular point group: c1

    Geometry (in Angstrom), charge = 0, multiplicity = 1:

       Center              X                  Y                   Z               Mass
    ------------   -----------------  -----------------  -----------------  -----------------
         O            1.779883381221     2.368447740062    -0.149033482177    15.994914619570
         O            1.692508381221    -2.406928259938    -0.131054482177    15.994914619570
         C           -1.004477618779    -0.007650259938     0.360995517823    12.000000000000
         C           -2.496858618779    -0.019373259938     0.560284517823    12.000000000000
         C           -0.305971618779    -1.207320259938     0.231222517823    12.000000000000
         C           -0.319964618779     1.205295740062     0.231719517823    12.000000000000
         C           -3.256475618779    -0.019680259938    -0.767480482177    12.000000000000
         C            0.855099481221     1.209955740062     0.015017117823    12.000000000000
         C            1.065150381221    -1.190970259938    -0.022153482177    12.000000000000
         C            1.753952381221     0.014852740062    -0.148896482177    12.000000000000
         H           -2.775690618779    -0.902970259938     1.145181517823     1.007825032230
         H           -2.791194618779     0.853927740062     1.154160517823     1.007825032230
         H           -0.814142618779    -2.163478259938     0.327767517823     1.007825032230
         H           -0.861865618779     2.145719740062     0.332037517823     1.007825032230
         H           -3.006004618779     0.867329740062    -1.355926482177     1.007825032230
         H           -4.340312618779    -0.029358259938    -0.608475482177     1.007825032230
         H           -2.990554618779    -0.898058259938    -1.361827482177     1.007825032230
         H            2.824531381221     0.046834740062    -0.339403482177     1.007825032230
         H            1.176159381221     3.122375740062    -0.033123482177     1.007825032230
         H            2.638624381221    -2.254315259938    -0.300771482177     1.007825032230

  Basis Set: AUG-CC-PVTZ
    Blend: AUG-CC-PVTZ
  Basis Set: (AUG-CC-PVTZ AUX)
    Blend: AUG-CC-PVTZ-JKFIT
	 Reference Energy          =    -458.5954129691718322 [Eh]
	 Singles Energy            =      -0.0000000000000000 [Eh]
	 Same-Spin Energy          =      -0.4816766289081509 [Eh]
	 Opposite-Spin Energy      =      -1.5095455473403940 [Eh]
	 Correlation Energy        =      -1.9912221762485449 [Eh]
	 Total Energy              =    -460.5866351454203595 [Eh]

	 ================> DF-SCS-MP2 Energies <==================
	-----------------------------------------------------------
	 SCS Same-Spin Scale       =       0.3333333333333333 [-]
	 SCS Opposite-Spin Scale   =       1.2000000000000000 [-]
	 SCS Same-Spin Energy      =      -0.1605588763027170 [Eh]
	 SCS Opposite-Spin Energy  =      -1.8114546568084728 [Eh]
	 SCS Correlation Energy    =      -1.9720135331111899 [Eh]
	 SCS Total Energy          =    -460.5674265022830127 [Eh]
	-----------------------------------------------------------

  Dipole Moment: [D]
     X:    -1.1051      Y:     0.7145      Z:     0.1041     Total:     1.3201

*** Psi4 exiting successfully. Buy a developer a beer!
