                               Psi4 1.3.2 release

  ==> Input File <==

--------------------------------------------------------------------------
#psi4
#
memory 32 gb

molecule  {
0 1
  O        1.7627890     2.3683800    -0.1458810
  O        1.6754140    -2.4069960    -0.1279020
  C       -1.0215720    -0.0077180     0.3641480
  C       -2.5139530    -0.0194410     0.5634370
  C       -0.3230660    -1.2073880     0.2343750
  C       -0.3370590     1.2052280     0.2348720
  C       -3.2735700    -0.0197480    -0.7643280
  C        1.0449787     1.2168504    -0.0199881
  C        1.0584339    -1.1971038    -0.0208950
  C        1.7368580     0.0147850    -0.1457440
  H       -2.7927850    -0.9030380     1.1483340
  H       -2.8082890     0.8538600     1.1573130
  H       -0.8312370    -2.1635460     0.3309200
  H       -0.8789600     2.1456520     0.3351900
  H       -3.0230990     0.8672620    -1.3527740
  H       -4.3574070    -0.0294260    -0.6053230
  H       -3.0076490    -0.8981260    -1.3586750
  H        2.8074370     0.0467670    -0.3362510
  H        1.1590650     3.1223080    -0.0299710
  H        2.6215300    -2.2543830    -0.2976190
units angstrom
no_reorient  #important for SAPT in psi4, default
symmetry c1  #important for SAPT in psi4, default
}

set PROPERTIES_ORIGIN ["COM"]
properties('MP2/aug-cc-pvtz', properties = ['dipole'])
--------------------------------------------------------------------------

    Molecular point group: c1
  Charge       = 0
  Multiplicity = 1
  Basis Set: AUG-CC-PVTZ
    Blend: AUG-CC-PVTZ
  Basis Set: (AUG-CC-PVTZ AUX)
    Blend: AUG-CC-PVTZ-JKFIT

    Orbital Energies [Eh]
    ---------------------

    Doubly Occupied:

       1A    -20.597516     2A    -20.595573     3A    -11.311505
       4A    -11.309686     5A    -11.250330     6A    -11.231397
       7A    -11.223221     8A    -11.222351     9A    -11.219064
      10A    -11.215545    11A     -1.410801    12A     -1.407558
      13A     -1.147647    14A     -1.063166    15A     -0.998056
      16A     -0.987185    17A     -0.875332    18A     -0.838515
      19A     -0.808979    20A     -0.741389    21A     -0.688476
      22A     -0.676991    23A     -0.666053    24A     -0.612185
      25A     -0.604020    26A     -0.595730    27A     -0.589034
      28A     -0.580010    29A     -0.551962    30A     -0.547363
      31A     -0.523006    32A     -0.520295    33A     -0.487050
      34A     -0.480779    35A     -0.452368    36A     -0.325840
      37A     -0.307767

  @DF-RHF Final Energy:  -458.65998186606146

   => Energetics <=

    Nuclear Repulsion Energy =            507.3413268312192486
    One-Electron Energy =               -1630.6751262741424853
    Two-Electron Energy =                 664.6738175768617793
    Total Energy =                       -458.6599818660614574
  Basis Set: (AUG-CC-PVTZ AUX)
    Blend: AUG-CC-PVTZ-RI
    Molecular point group: c1

    Geometry (in Angstrom), charge = 0, multiplicity = 1:

       Center              X                  Y                   Z               Mass
    ------------   -----------------  -----------------  -----------------  -----------------
         O            1.760992570193     2.368369813289    -0.145552442957    15.994914619570
         O            1.673617570193    -2.407006186711    -0.127573442957    15.994914619570
         C           -1.023368429807    -0.007728186711     0.364476557043    12.000000000000
         C           -2.515749429807    -0.019451186711     0.563765557043    12.000000000000
         C           -0.324862429807    -1.207398186711     0.234703557043    12.000000000000
         C           -0.338855429807     1.205217813289     0.235200557043    12.000000000000
         C           -3.275366429807    -0.019758186711    -0.763999442957    12.000000000000
         C            1.043182270193     1.216840213289    -0.019659542957    12.000000000000
         C            1.056637470193    -1.197113986711    -0.020566442957    12.000000000000
         C            1.735061570193     0.014774813289    -0.145415442957    12.000000000000
         H           -2.794581429807    -0.903048186711     1.148662557043     1.007825032230
         H           -2.810085429807     0.853849813289     1.157641557043     1.007825032230
         H           -0.833033429807    -2.163556186711     0.331248557043     1.007825032230
         H           -0.880756429807     2.145641813289     0.335518557043     1.007825032230
         H           -3.024895429807     0.867251813289    -1.352445442957     1.007825032230
         H           -4.359203429807    -0.029436186711    -0.604994442957     1.007825032230
         H           -3.009445429807    -0.898136186711    -1.358346442957     1.007825032230
         H            2.805640570193     0.046756813289    -0.335922442957     1.007825032230
         H            1.157268570193     3.122297813289    -0.029642442957     1.007825032230
         H            2.619733570193    -2.254393186711    -0.297290442957     1.007825032230

  Basis Set: AUG-CC-PVTZ
    Blend: AUG-CC-PVTZ
  Basis Set: (AUG-CC-PVTZ AUX)
    Blend: AUG-CC-PVTZ-JKFIT
	 Reference Energy          =    -458.6599818660614574 [Eh]
	 Singles Energy            =      -0.0000000000000000 [Eh]
	 Same-Spin Energy          =      -0.4817101091002224 [Eh]
	 Opposite-Spin Energy      =      -1.5050081053145572 [Eh]
	 Correlation Energy        =      -1.9867182144147795 [Eh]
	 Total Energy              =    -460.6467000804762506 [Eh]

	 ================> DF-SCS-MP2 Energies <==================
	-----------------------------------------------------------
	 SCS Same-Spin Scale       =       0.3333333333333333 [-]
	 SCS Opposite-Spin Scale   =       1.2000000000000000 [-]
	 SCS Same-Spin Energy      =      -0.1605700363667408 [Eh]
	 SCS Opposite-Spin Energy  =      -1.8060097263774686 [Eh]
	 SCS Correlation Energy    =      -1.9665797627442094 [Eh]
	 SCS Total Energy          =    -460.6265616288056890 [Eh]
	-----------------------------------------------------------

  Dipole Moment: [D]
     X:    -0.4052      Y:     1.2207      Z:    -0.0045     Total:     1.2862

*** Psi4 exiting successfully. Buy a developer a beer!
