                               Psi4 1.3.2 release

  ==> Input File <==

--------------------------------------------------------------------------
#psi4
#
memory 32 gb

molecule  {
0 1
  O        1.7627890     2.3683800    -0.1458810
  O        1.6754140    -2.4069960    -0.1279020
  C       -1.0215720    -0.0077180     0.3641480
  C       -2.5139530    -0.0194410     0.5634370
  C       -0.3230660    -1.2073880     0.2343750
  C       -0.3370590     1.2052280     0.2348720
  C       -3.2735700    -0.0197480    -0.7643280
  C        0.9940154     1.1850327    -0.0109186
  C        1.0480560    -1.1910380    -0.0190010
  C        1.7368580     0.0147850    -0.1457440
  H       -2.7927850    -0.9030380     1.1483340
  H       -2.8082890     0.8538600     1.1573130
  H       -0.8312370    -2.1635460     0.3309200
  H       -0.8789600     2.1456520     0.3351900
  H       -3.0230990     0.8672620    -1.3527740
  H       -4.3574070    -0.0294260    -0.6053230
  H       -3.0076490    -0.8981260    -1.3586750
  H        2.8078692     0.0087980    -0.3364119
  H        1.1590650     3.1223080    -0.0299710
  H        2.6215300    -2.2543830    -0.2976190
units angstrom
no_reorient  #important for SAPT in psi4, default
symmetry c1  #important for SAPT in psi4, default
}

set PROPERTIES_ORIGIN ["COM"]
properties('MP2/aug-cc-pvtz', properties = ['dipole'])
--------------------------------------------------------------------------

    Molecular point group: c1
  Charge       = 0
  Multiplicity = 1
  Basis Set: AUG-CC-PVTZ
    Blend: AUG-CC-PVTZ
  Basis Set: (AUG-CC-PVTZ AUX)
    Blend: AUG-CC-PVTZ-JKFIT

    Orbital Energies [Eh]
    ---------------------

    Doubly Occupied:

       1A    -20.594079     2A    -20.587651     3A    -11.308857
       4A    -11.306890     5A    -11.253239     6A    -11.233441
       7A    -11.225840     8A    -11.221527     9A    -11.221005
      10A    -11.218507    11A     -1.403564    12A     -1.383048
      13A     -1.156337    14A     -1.065654    15A     -1.008421
      16A     -0.989441    17A     -0.879841    18A     -0.832017
      19A     -0.808558    20A     -0.736732    21A     -0.690760
      22A     -0.669373    23A     -0.661866    24A     -0.611968
      25A     -0.600111    26A     -0.595095    27A     -0.584506
      28A     -0.569220    29A     -0.555205    30A     -0.552066
      31A     -0.527351    32A     -0.520117    33A     -0.489148
      34A     -0.485153    35A     -0.457275    36A     -0.326251
      37A     -0.318578

  @DF-RHF Final Energy:  -458.65650260317835

   => Energetics <=

    Nuclear Repulsion Energy =            507.8587934756554318
    One-Electron Energy =               -1631.7331999256134623
    Two-Electron Energy =                 665.2179038467796772
    Total Energy =                       -458.6565026031784100
  Basis Set: (AUG-CC-PVTZ AUX)
    Blend: AUG-CC-PVTZ-RI
    Molecular point group: c1

    Geometry (in Angstrom), charge = 0, multiplicity = 1:

       Center              X                  Y                   Z               Mass
    ------------   -----------------  -----------------  -----------------  -----------------
         O            1.766320802615     2.370885158687    -0.146504146213    15.994914619570
         O            1.678945802615    -2.404490841313    -0.128525146213    15.994914619570
         C           -1.018040197385    -0.005212841313     0.363524853787    12.000000000000
         C           -2.510421197385    -0.016935841313     0.562813853787    12.000000000000
         C           -0.319534197385    -1.204882841313     0.233751853787    12.000000000000
         C           -0.333527197385     1.207733158687     0.234248853787    12.000000000000
         C           -3.270038197385    -0.017242841313    -0.764951146213    12.000000000000
         C            0.997547202615     1.187537858687    -0.011541746213    12.000000000000
         C            1.051587802615    -1.188532841313    -0.019624146213    12.000000000000
         C            1.740389802615     0.017290158687    -0.146367146213    12.000000000000
         H           -2.789253197385    -0.900532841313     1.147710853787     1.007825032230
         H           -2.804757197385     0.856365158687     1.156689853787     1.007825032230
         H           -0.827705197385    -2.161040841313     0.330296853787     1.007825032230
         H           -0.875428197385     2.148157158687     0.334566853787     1.007825032230
         H           -3.019567197385     0.869767158687    -1.353397146213     1.007825032230
         H           -4.353875197385    -0.026920841313    -0.605946146213     1.007825032230
         H           -3.004117197385    -0.895620841313    -1.359298146213     1.007825032230
         H            2.811401002615     0.011303158687    -0.337035046213     1.007825032230
         H            1.162596802615     3.124813158687    -0.030594146213     1.007825032230
         H            2.625061802615    -2.251877841313    -0.298242146213     1.007825032230

  Basis Set: AUG-CC-PVTZ
    Blend: AUG-CC-PVTZ
  Basis Set: (AUG-CC-PVTZ AUX)
    Blend: AUG-CC-PVTZ-JKFIT
	 Reference Energy          =    -458.6565026031783532 [Eh]
	 Singles Energy            =      -0.0000000000000000 [Eh]
	 Same-Spin Energy          =      -0.4818511487242154 [Eh]
	 Opposite-Spin Energy      =      -1.5059396413276260 [Eh]
	 Correlation Energy        =      -1.9877907900518414 [Eh]
	 Total Energy              =    -460.6442933932302140 [Eh]

	 ================> DF-SCS-MP2 Energies <==================
	-----------------------------------------------------------
	 SCS Same-Spin Scale       =       0.3333333333333333 [-]
	 SCS Opposite-Spin Scale   =       1.2000000000000000 [-]
	 SCS Same-Spin Energy      =      -0.1606170495747384 [Eh]
	 SCS Opposite-Spin Energy  =      -1.8071275695931512 [Eh]
	 SCS Correlation Energy    =      -1.9677446191678896 [Eh]
	 SCS Total Energy          =    -460.6242472223462414 [Eh]
	-----------------------------------------------------------

  Dipole Moment: [D]
     X:    -0.6764      Y:     0.9574      Z:     0.0360     Total:     1.1728

*** Psi4 exiting successfully. Buy a developer a beer!
