                               Psi4 1.4a3.dev225

  ==> Input File <==

--------------------------------------------------------------------------
#psi4
#
memory 32 gb

molecule  {
0 1
  O       -1.8116000     2.3801270     0.1363720
  O       -1.7799440    -2.3994320     0.1189850
  C        0.9489570    -0.0306590    -0.3689570
  C        2.4429910    -0.0568610    -0.5708560
  C        0.2354480    -1.2220220    -0.2373930
  C        0.2798030     1.1938580    -0.2383990
  C        3.1984060    -0.0265600     0.7613490
  C       -1.0921630     1.2139390     0.0079710
  C       -1.1396310    -1.1871160     0.0102260
  C       -1.8132500     0.0254130     0.1385790
  H        2.7180680    -0.9584190    -1.1301260
  H        2.7446220     0.7994920    -1.1857830
  H        0.7258350    -2.1872220    -0.3369480
  H        0.8562036     2.1713595    -0.3501219
  H        2.9508560     0.8787730     1.3230630
  H        4.2811760    -0.0477390     0.6027570
  H        2.9230980    -0.8883860     1.3756490
  H       -2.8837580     0.0741080     0.3259950
  H       -1.1979550     3.1274200     0.0245130
  H       -2.7238770    -2.2320380     0.2881370
units angstrom
no_reorient  #important for SAPT in psi4, default
symmetry c1  #important for SAPT in psi4, default
}

set PROPERTIES_ORIGIN ["COM"]
properties('MP2/aug-cc-pvtz', properties = ['dipole'])
--------------------------------------------------------------------------

    Molecular point group: c1
  Charge       = 0
  Multiplicity = 1
  Basis Set: AUG-CC-PVTZ
    Blend: AUG-CC-PVTZ
  Basis Set: (AUG-CC-PVTZ AUX)
    Blend: AUG-CC-PVTZ-JKFIT

    Orbital Energies [Eh]
    ---------------------

    Doubly Occupied:

       1A    -20.595580     2A    -20.593618     3A    -11.311777
       4A    -11.309558     5A    -11.252995     6A    -11.232678
       7A    -11.229317     8A    -11.225040     9A    -11.219868
      10A    -11.217369    11A     -1.404254    12A     -1.401016
      13A     -1.149870    14A     -1.063733    15A     -1.000137
      16A     -0.987421    17A     -0.876037    18A     -0.834974
      19A     -0.807631    20A     -0.739258    21A     -0.684926
      22A     -0.674485    23A     -0.661834    24A     -0.611767
      25A     -0.601652    26A     -0.594474    27A     -0.587290
      28A     -0.575904    29A     -0.552307    30A     -0.548569
      31A     -0.521994    32A     -0.520171    33A     -0.488323
      34A     -0.482831    35A     -0.454068    36A     -0.326345
      37A     -0.311903

  @DF-RHF Final Energy:  -458.65720912932369

   => Energetics <=

    Nuclear Repulsion Energy =            506.8309409158912331
    One-Electron Energy =               -1629.6743570494481901
    Two-Electron Energy =                 664.1862070042333244
    Total Energy =                       -458.6572091293236326
  Basis Set: (AUG-CC-PVTZ AUX)
    Blend: AUG-CC-PVTZ-RI
    Molecular point group: c1

    Geometry (in Angstrom), charge = 0, multiplicity = 1:

       Center              X                  Y                   Z               Mass
    ------------   -----------------  -----------------  -----------------  -----------------
         O           -1.737403968751     2.384804109677     0.143186597394    15.994914619570
         O           -1.705747968751    -2.394754890323     0.125799597394    15.994914619570
         C            1.023153031249    -0.025981890323    -0.362142402606    12.000000000000
         C            2.517187031249    -0.052183890323    -0.564041402606    12.000000000000
         C            0.309644031249    -1.217344890323    -0.230578402606    12.000000000000
         C            0.353999031249     1.198535109677    -0.231584402606    12.000000000000
         C            3.272602031249    -0.021882890323     0.768163597394    12.000000000000
         C           -1.017966968751     1.218616109677     0.014785597394    12.000000000000
         C           -1.065434968751    -1.182438890323     0.017040597394    12.000000000000
         C           -1.739053968751     0.030090109677     0.145393597394    12.000000000000
         H            2.792264031249    -0.953741890323    -1.123311402606     1.007825032230
         H            2.818818031249     0.804169109677    -1.178968402606     1.007825032230
         H            0.800031031249    -2.182544890323    -0.330133402606     1.007825032230
         H            0.930399631249     2.176036609677    -0.343307302606     1.007825032230
         H            3.025052031249     0.883450109677     1.329877597394     1.007825032230
         H            4.355372031249    -0.043061890323     0.609571597394     1.007825032230
         H            2.997294031249    -0.883708890323     1.382463597394     1.007825032230
         H           -2.809561968751     0.078785109677     0.332809597394     1.007825032230
         H           -1.123758968751     3.132097109677     0.031327597394     1.007825032230
         H           -2.649680968751    -2.227360890323     0.294951597394     1.007825032230

  Basis Set: AUG-CC-PVTZ
    Blend: AUG-CC-PVTZ
  Basis Set: (AUG-CC-PVTZ AUX)
    Blend: AUG-CC-PVTZ-JKFIT
	 Reference Energy          =    -458.6572091293236895 [Eh]
	 Singles Energy            =      -0.0000000000000000 [Eh]
	 Same-Spin Energy          =      -0.4818603671772997 [Eh]
	 Opposite-Spin Energy      =      -1.5058822933552296 [Eh]
	 Correlation Energy        =      -1.9877426605325295 [Eh]
	 Total Energy              =    -460.6449517898562362 [Eh]

	 ================> DF-SCS-MP2 Energies <==================
	-----------------------------------------------------------
	 SCS Same-Spin Scale       =       0.3333333333333333 [-]
	 SCS Opposite-Spin Scale   =       1.2000000000000000 [-]
	 SCS Same-Spin Energy      =      -0.1606201223924332 [Eh]
	 SCS Opposite-Spin Energy  =      -1.8070587520262755 [Eh]
	 SCS Correlation Energy    =      -1.9676788744187088 [Eh]
	 SCS Total Energy          =    -460.6248880037423987 [Eh]
	-----------------------------------------------------------

  Dipole Moment: [D]
     X:     0.5222      Y:     1.1996      Z:    -0.0160     Total:     1.3084

*** Psi4 exiting successfully. Buy a developer a beer!
