                               Psi4 1.3.2 release

  ==> Input File <==

--------------------------------------------------------------------------
#psi4
#
memory 32 gb

molecule  {
0 1
  O        1.7627890     2.3683800    -0.1458810
  O        1.6754140    -2.4069960    -0.1279020
  C       -1.0215720    -0.0077180     0.3641480
  C       -2.5139530    -0.0194410     0.5634370
  C       -0.3230660    -1.2073880     0.2343750
  C       -0.3370590     1.2052280     0.2348720
  C       -3.2735700    -0.0197480    -0.7643280
  C        1.0346870     1.2106680    -0.0181020
  C        1.0480560    -1.1910380    -0.0190010
  C        1.7368580     0.0147850    -0.1457440
  H       -2.7927850    -0.9030380     1.1483340
  H       -2.8082890     0.8538600     1.1573130
  H       -0.8312370    -2.1635460     0.3309200
  H       -0.8292447     2.0593752     0.3259866
  H       -3.0230990     0.8672620    -1.3527740
  H       -4.3574070    -0.0294260    -0.6053230
  H       -3.0076490    -0.8981260    -1.3586750
  H        2.8074370     0.0467670    -0.3362510
  H        1.1590650     3.1223080    -0.0299710
  H        2.6215300    -2.2543830    -0.2976190
units angstrom
no_reorient  #important for SAPT in psi4, default
symmetry c1  #important for SAPT in psi4, default
}

set PROPERTIES_ORIGIN ["COM"]
properties('MP2/aug-cc-pvtz', properties = ['dipole'])
--------------------------------------------------------------------------

    Molecular point group: c1
  Charge       = 0
  Multiplicity = 1
  Basis Set: AUG-CC-PVTZ
    Blend: AUG-CC-PVTZ
  Basis Set: (AUG-CC-PVTZ AUX)
    Blend: AUG-CC-PVTZ-JKFIT

    Orbital Energies [Eh]
    ---------------------

    Doubly Occupied:

       1A    -20.595963     2A    -20.592960     3A    -11.309477
       4A    -11.308343     5A    -11.250304     6A    -11.232036
       7A    -11.223149     8A    -11.219780     9A    -11.215084
      10A    -11.210343    11A     -1.405512    12A     -1.401587
      13A     -1.150553    14A     -1.063748    15A     -1.004488
      16A     -0.988838    17A     -0.877766    18A     -0.839656
      19A     -0.808239    20A     -0.739804    21A     -0.695873
      22A     -0.674903    23A     -0.672020    24A     -0.611948
      25A     -0.603611    26A     -0.596663    27A     -0.587329
      28A     -0.576324    29A     -0.555179    30A     -0.548936
      31A     -0.527523    32A     -0.521245    33A     -0.487791
      34A     -0.482468    35A     -0.453426    36A     -0.325308
      37A     -0.310802

  @DF-RHF Final Energy:  -458.65451277751208

   => Energetics <=

    Nuclear Repulsion Energy =            508.0630708778828080
    One-Electron Energy =               -1632.0972077409555823
    Two-Electron Energy =                 665.3796240855606356
    Total Energy =                       -458.6545127775120818
  Basis Set: (AUG-CC-PVTZ AUX)
    Blend: AUG-CC-PVTZ-RI
    Molecular point group: c1

    Geometry (in Angstrom), charge = 0, multiplicity = 1:

       Center              X                  Y                   Z               Mass
    ------------   -----------------  -----------------  -----------------  -----------------
         O            1.762426144678     2.369009723100    -0.145813805201    15.994914619570
         O            1.675051144678    -2.406366276900    -0.127834805201    15.994914619570
         C           -1.021934855322    -0.007088276900     0.364215194799    12.000000000000
         C           -2.514315855322    -0.018811276900     0.563504194799    12.000000000000
         C           -0.323428855322    -1.206758276900     0.234442194799    12.000000000000
         C           -0.337421855322     1.205857723100     0.234939194799    12.000000000000
         C           -3.273932855322    -0.019118276900    -0.764260805201    12.000000000000
         C            1.034324144678     1.211297723100    -0.018034805201    12.000000000000
         C            1.047693144678    -1.190408276900    -0.018933805201    12.000000000000
         C            1.736495144678     0.015414723100    -0.145676805201    12.000000000000
         H           -2.793147855322    -0.902408276900     1.148401194799     1.007825032230
         H           -2.808651855322     0.854489723100     1.157380194799     1.007825032230
         H           -0.831599855322    -2.162916276900     0.330987194799     1.007825032230
         H           -0.829607555322     2.060004923100     0.326053794799     1.007825032230
         H           -3.023461855322     0.867891723100    -1.352706805201     1.007825032230
         H           -4.357769855322    -0.028796276900    -0.605255805201     1.007825032230
         H           -3.008011855322    -0.897496276900    -1.358607805201     1.007825032230
         H            2.807074144678     0.047396723100    -0.336183805201     1.007825032230
         H            1.158702144678     3.122937723100    -0.029903805201     1.007825032230
         H            2.621167144678    -2.253753276900    -0.297551805201     1.007825032230

  Basis Set: AUG-CC-PVTZ
    Blend: AUG-CC-PVTZ
  Basis Set: (AUG-CC-PVTZ AUX)
    Blend: AUG-CC-PVTZ-JKFIT
	 Reference Energy          =    -458.6545127775120818 [Eh]
	 Singles Energy            =      -0.0000000000000000 [Eh]
	 Same-Spin Energy          =      -0.4815282313608048 [Eh]
	 Opposite-Spin Energy      =      -1.5047073031547638 [Eh]
	 Correlation Energy        =      -1.9862355345155684 [Eh]
	 Total Energy              =    -460.6407483120276538 [Eh]

	 ================> DF-SCS-MP2 Energies <==================
	-----------------------------------------------------------
	 SCS Same-Spin Scale       =       0.3333333333333333 [-]
	 SCS Opposite-Spin Scale   =       1.2000000000000000 [-]
	 SCS Same-Spin Energy      =      -0.1605094104536016 [Eh]
	 SCS Opposite-Spin Energy  =      -1.8056487637857164 [Eh]
	 SCS Correlation Energy    =      -1.9661581742393179 [Eh]
	 SCS Total Energy          =    -460.6206709517513787 [Eh]
	-----------------------------------------------------------

  Dipole Moment: [D]
     X:    -0.5064      Y:     1.2601      Z:     0.0118     Total:     1.3581

*** Psi4 exiting successfully. Buy a developer a beer!
