                               Psi4 1.4a3.dev225

  ==> Input File <==

--------------------------------------------------------------------------
#psi4
#
memory 32 gb

molecule  {
0 1
  O       -1.8116000     2.3801270     0.1363720
  O       -1.7799440    -2.3994320     0.1189850
  C        0.9489570    -0.0306590    -0.3689570
  C        2.4429910    -0.0568610    -0.5708560
  C        0.2354480    -1.2220220    -0.2373930
  C        0.2798030     1.1938580    -0.2383990
  C        3.1984060    -0.0265600     0.7613490
  C       -1.0921630     1.2139390     0.0079710
  C       -1.1396310    -1.1871160     0.0102260
  C       -1.8235786     0.0083889     0.1404498
  H        2.7180680    -0.9584190    -1.1301260
  H        2.7446220     0.7994920    -1.1857830
  H        0.7258350    -2.1872220    -0.3369480
  H        0.8309290     2.1284970    -0.3452230
  H        2.9508560     0.8787730     1.3230630
  H        4.2811760    -0.0477390     0.6027570
  H        2.9230980    -0.8883860     1.3756490
  H       -2.8837580     0.0741080     0.3259950
  H       -1.1979550     3.1274200     0.0245130
  H       -2.7238770    -2.2320380     0.2881370
units angstrom
no_reorient  #important for SAPT in psi4, default
symmetry c1  #important for SAPT in psi4, default
}

set PROPERTIES_ORIGIN ["COM"]
properties('MP2/aug-cc-pvtz', properties = ['dipole'])
--------------------------------------------------------------------------

    Molecular point group: c1
  Charge       = 0
  Multiplicity = 1
  Basis Set: AUG-CC-PVTZ
    Blend: AUG-CC-PVTZ
  Basis Set: (AUG-CC-PVTZ AUX)
    Blend: AUG-CC-PVTZ-JKFIT

    Orbital Energies [Eh]
    ---------------------

    Doubly Occupied:

       1A    -20.596637     2A    -20.591831     3A    -11.313799
       4A    -11.307965     5A    -11.252643     6A    -11.232748
       7A    -11.224603     8A    -11.223556     9A    -11.219998
      10A    -11.216854    11A     -1.404566    12A     -1.400253
      13A     -1.149009    14A     -1.062992    15A     -1.000604
      16A     -0.987775    17A     -0.876550    18A     -0.835951
      19A     -0.807778    20A     -0.738896    21A     -0.686707
      22A     -0.674992    23A     -0.665944    24A     -0.611912
      25A     -0.602141    26A     -0.595583    27A     -0.586691
      28A     -0.575588    29A     -0.554665    30A     -0.548132
      31A     -0.522545    32A     -0.521770    33A     -0.488434
      34A     -0.483235    35A     -0.453207    36A     -0.326001
      37A     -0.311116

  @DF-RHF Final Energy:  -458.65918455645345

   => Energetics <=

    Nuclear Repulsion Energy =            506.9056921963276636
    One-Electron Energy =               -1629.8224154828199062
    Two-Electron Energy =                 664.2575387300387320
    Total Energy =                       -458.6591845564535106
  Basis Set: (AUG-CC-PVTZ AUX)
    Blend: AUG-CC-PVTZ-RI
    Molecular point group: c1

    Geometry (in Angstrom), charge = 0, multiplicity = 1:

       Center              X                  Y                   Z               Mass
    ------------   -----------------  -----------------  -----------------  -----------------
         O           -1.736321781072     2.386596610168     0.142988239930    15.994914619570
         O           -1.704665781072    -2.392962389832     0.125601239930    15.994914619570
         C            1.024235218928    -0.024189389832    -0.362340760070    12.000000000000
         C            2.518269218928    -0.050391389832    -0.564239760070    12.000000000000
         C            0.310726218928    -1.215552389832    -0.230776760070    12.000000000000
         C            0.355081218928     1.200327610168    -0.231782760070    12.000000000000
         C            3.273684218928    -0.020090389832     0.767965239930    12.000000000000
         C           -1.016884781072     1.220408610168     0.014587239930    12.000000000000
         C           -1.064352781072    -1.180646389832     0.016842239930    12.000000000000
         C           -1.748300381072     0.014858510168     0.147066039930    12.000000000000
         H            2.793346218928    -0.951949389832    -1.123509760070     1.007825032230
         H            2.819900218928     0.805961610168    -1.179166760070     1.007825032230
         H            0.801113218928    -2.180752389832    -0.330331760070     1.007825032230
         H            0.906207218928     2.134966610168    -0.338606760070     1.007825032230
         H            3.026134218928     0.885242610168     1.329679239930     1.007825032230
         H            4.356454218928    -0.041269389832     0.609373239930     1.007825032230
         H            2.998376218928    -0.881916389832     1.382265239930     1.007825032230
         H           -2.808479781072     0.080577610168     0.332611239930     1.007825032230
         H           -1.122676781072     3.133889610168     0.031129239930     1.007825032230
         H           -2.648598781072    -2.225568389832     0.294753239930     1.007825032230

  Basis Set: AUG-CC-PVTZ
    Blend: AUG-CC-PVTZ
  Basis Set: (AUG-CC-PVTZ AUX)
    Blend: AUG-CC-PVTZ-JKFIT
	 Reference Energy          =    -458.6591845564534538 [Eh]
	 Singles Energy            =      -0.0000000000000000 [Eh]
	 Same-Spin Energy          =      -0.4816325678903046 [Eh]
	 Opposite-Spin Energy      =      -1.5054564656304810 [Eh]
	 Correlation Energy        =      -1.9870890335207856 [Eh]
	 Total Energy              =    -460.6462735899742142 [Eh]

	 ================> DF-SCS-MP2 Energies <==================
	-----------------------------------------------------------
	 SCS Same-Spin Scale       =       0.3333333333333333 [-]
	 SCS Opposite-Spin Scale   =       1.2000000000000000 [-]
	 SCS Same-Spin Energy      =      -0.1605441892967682 [Eh]
	 SCS Opposite-Spin Energy  =      -1.8065477587565770 [Eh]
	 SCS Correlation Energy    =      -1.9670919480533453 [Eh]
	 SCS Total Energy          =    -460.6262765045067908 [Eh]
	-----------------------------------------------------------

  Dipole Moment: [D]
     X:     0.5355      Y:     1.2624      Z:    -0.0182     Total:     1.3715

*** Psi4 exiting successfully. Buy a developer a beer!
