                               Psi4 1.4a3.dev225

  ==> Input File <==

--------------------------------------------------------------------------
#psi4
#
memory 32 gb

molecule  {
0 1
  O       -1.8116000     2.3801270     0.1363720
  O       -1.7799440    -2.3994320     0.1189850
  C        0.9489570    -0.0306590    -0.3689570
  C        2.4429910    -0.0568610    -0.5708560
  C        0.2354480    -1.2220220    -0.2373930
  C        0.2798030     1.1938580    -0.2383990
  C        3.1984060    -0.0265600     0.7613490
  C       -1.0921630     1.2139390     0.0079710
  C       -1.1396310    -1.1871160     0.0102260
  C       -1.8132500     0.0254130     0.1385790
  H        2.7180680    -0.9584190    -1.1301260
  H        2.7446220     0.7994920    -1.1857830
  H        0.7258350    -2.1872220    -0.3369480
  H        0.8309290     2.1284970    -0.3452230
  H        2.9508560     0.8787730     1.3230630
  H        4.2811760    -0.0477390     0.6027570
  H        2.9230980    -0.8883860     1.3756490
  H       -2.8837580     0.0741080     0.3259950
  H       -1.2294755     3.0890345     0.0302588
  H       -2.7238770    -2.2320380     0.2881370
units angstrom
no_reorient  #important for SAPT in psi4, default
symmetry c1  #important for SAPT in psi4, default
}

set PROPERTIES_ORIGIN ["COM"]
properties('MP2/aug-cc-pvtz', properties = ['dipole'])
--------------------------------------------------------------------------

    Molecular point group: c1
  Charge       = 0
  Multiplicity = 1
  Basis Set: AUG-CC-PVTZ
    Blend: AUG-CC-PVTZ
  Basis Set: (AUG-CC-PVTZ AUX)
    Blend: AUG-CC-PVTZ-JKFIT

    Orbital Energies [Eh]
    ---------------------

    Doubly Occupied:

       1A    -20.593573     2A    -20.591382     3A    -11.311594
       4A    -11.309465     5A    -11.252621     6A    -11.232774
       7A    -11.224866     8A    -11.223824     9A    -11.219997
      10A    -11.217252    11A     -1.415270    12A     -1.401594
      13A     -1.150645    14A     -1.064341    15A     -1.002434
      16A     -0.988305    17A     -0.876634    18A     -0.840892
      19A     -0.808826    20A     -0.742979    21A     -0.688024
      22A     -0.678005    23A     -0.666023    24A     -0.612918
      25A     -0.603227    26A     -0.595880    27A     -0.588006
      28A     -0.576782    29A     -0.554470    30A     -0.549411
      31A     -0.523885    32A     -0.521740    33A     -0.488505
      34A     -0.483141    35A     -0.454330    36A     -0.326249
      37A     -0.312056

  @DF-RHF Final Energy:  -458.66039597738632

   => Energetics <=

    Nuclear Repulsion Energy =            507.3947972517703420
    One-Electron Energy =               -1630.7265462935990854
    Two-Electron Energy =                 664.6713530644424281
    Total Energy =                       -458.6603959773863153
  Basis Set: (AUG-CC-PVTZ AUX)
    Blend: AUG-CC-PVTZ-RI
    Molecular point group: c1

    Geometry (in Angstrom), charge = 0, multiplicity = 1:

       Center              X                  Y                   Z               Mass
    ------------   -----------------  -----------------  -----------------  -----------------
         O           -1.736989394117     2.385397177738     0.143108896631    15.994914619570
         O           -1.705333394117    -2.394161822262     0.125721896631    15.994914619570
         C            1.023567605883    -0.025388822262    -0.362220103369    12.000000000000
         C            2.517601605883    -0.051590822262    -0.564119103369    12.000000000000
         C            0.310058605883    -1.216751822262    -0.230656103369    12.000000000000
         C            0.354413605883     1.199128177738    -0.231662103369    12.000000000000
         C            3.273016605883    -0.021289822262     0.768085896631    12.000000000000
         C           -1.017552394117     1.219209177738     0.014707896631    12.000000000000
         C           -1.065020394117    -1.181845822262     0.016962896631    12.000000000000
         C           -1.738639394117     0.030683177738     0.145315896631    12.000000000000
         H            2.792678605883    -0.953148822262    -1.123389103369     1.007825032230
         H            2.819232605883     0.804762177738    -1.179046103369     1.007825032230
         H            0.800445605883    -2.181951822262    -0.330211103369     1.007825032230
         H            0.905539605883     2.133767177738    -0.338486103369     1.007825032230
         H            3.025466605883     0.884043177738     1.329799896631     1.007825032230
         H            4.355786605883    -0.042468822262     0.609493896631     1.007825032230
         H            2.997708605883    -0.883115822262     1.382385896631     1.007825032230
         H           -2.809147394117     0.079378177738     0.332731896631     1.007825032230
         H           -1.154864894117     3.094304677738     0.036995696631     1.007825032230
         H           -2.649266394117    -2.226767822262     0.294873896631     1.007825032230

  Basis Set: AUG-CC-PVTZ
    Blend: AUG-CC-PVTZ
  Basis Set: (AUG-CC-PVTZ AUX)
    Blend: AUG-CC-PVTZ-JKFIT
	 Reference Energy          =    -458.6603959773863153 [Eh]
	 Singles Energy            =      -0.0000000000000000 [Eh]
	 Same-Spin Energy          =      -0.4811091824514213 [Eh]
	 Opposite-Spin Energy      =      -1.5039622687205394 [Eh]
	 Correlation Energy        =      -1.9850714511719607 [Eh]
	 Total Energy              =    -460.6454674285582769 [Eh]

	 ================> DF-SCS-MP2 Energies <==================
	-----------------------------------------------------------
	 SCS Same-Spin Scale       =       0.3333333333333333 [-]
	 SCS Opposite-Spin Scale   =       1.2000000000000000 [-]
	 SCS Same-Spin Energy      =      -0.1603697274838071 [Eh]
	 SCS Opposite-Spin Energy  =      -1.8047547224646472 [Eh]
	 SCS Correlation Energy    =      -1.9651244499484544 [Eh]
	 SCS Total Energy          =    -460.6255204273347772 [Eh]
	-----------------------------------------------------------

  Dipole Moment: [D]
     X:     0.5175      Y:     1.1685      Z:    -0.0149     Total:     1.2780

*** Psi4 exiting successfully. Buy a developer a beer!
