                               Psi4 1.3.2 release

  ==> Input File <==

--------------------------------------------------------------------------
#psi4
#
memory 32 gb

molecule  {
0 1
  O        1.7627890     2.3683800    -0.1458810
  O        1.6754140    -2.4069960    -0.1279020
  C       -1.0215720    -0.0077180     0.3641480
  C       -2.5139530    -0.0194410     0.5634370
  C       -0.3230660    -1.2073880     0.2343750
  C       -0.3370590     1.2052280     0.2348720
  C       -3.2735700    -0.0197480    -0.7643280
  C        1.0340346     1.1619842    -0.0180014
  C        1.0480560    -1.1910380    -0.0190010
  C        1.7368580     0.0147850    -0.1457440
  H       -2.7927850    -0.9030380     1.1483340
  H       -2.8082890     0.8538600     1.1573130
  H       -0.8312370    -2.1635460     0.3309200
  H       -0.9109073     2.1258457     0.3410737
  H       -3.0230990     0.8672620    -1.3527740
  H       -4.3574070    -0.0294260    -0.6053230
  H       -3.0076490    -0.8981260    -1.3586750
  H        2.8074370     0.0467670    -0.3362510
  H        1.1590650     3.1223080    -0.0299710
  H        2.6215300    -2.2543830    -0.2976190
units angstrom
no_reorient  #important for SAPT in psi4, default
symmetry c1  #important for SAPT in psi4, default
}

set PROPERTIES_ORIGIN ["COM"]
properties('MP2/aug-cc-pvtz', properties = ['dipole'])
--------------------------------------------------------------------------

    Molecular point group: c1
  Charge       = 0
  Multiplicity = 1
  Basis Set: AUG-CC-PVTZ
    Blend: AUG-CC-PVTZ
  Basis Set: (AUG-CC-PVTZ AUX)
    Blend: AUG-CC-PVTZ-JKFIT

    Orbital Energies [Eh]
    ---------------------

    Doubly Occupied:

       1A    -20.595215     2A    -20.586499     3A    -11.310987
       4A    -11.307532     5A    -11.251370     6A    -11.232720
       7A    -11.223962     8A    -11.223514     9A    -11.220495
      10A    -11.217315    11A     -1.404581    12A     -1.382536
      13A     -1.155635    14A     -1.069274    15A     -1.002217
      16A     -0.992160    17A     -0.877665    18A     -0.835772
      19A     -0.806617    20A     -0.736196    21A     -0.688918
      22A     -0.670229    23A     -0.668528    24A     -0.611257
      25A     -0.600106    26A     -0.595614    27A     -0.584152
      28A     -0.568944    29A     -0.554507    30A     -0.550528
      31A     -0.528404    32A     -0.520815    33A     -0.488619
      34A     -0.481616    35A     -0.456693    36A     -0.331991
      37A     -0.312845

  @DF-RHF Final Energy:  -458.65646331772120

   => Energetics <=

    Nuclear Repulsion Energy =            507.8572490603295364
    One-Electron Energy =               -1631.7353679333377841
    Two-Electron Energy =                 665.2216555552869295
    Total Energy =                       -458.6564633177212045
  Basis Set: (AUG-CC-PVTZ AUX)
    Blend: AUG-CC-PVTZ-RI
    Molecular point group: c1

    Geometry (in Angstrom), charge = 0, multiplicity = 1:

       Center              X                  Y                   Z               Mass
    ------------   -----------------  -----------------  -----------------  -----------------
         O            1.763078941565     2.372755809580    -0.145932676681    15.994914619570
         O            1.675703941565    -2.402620190420    -0.127953676681    15.994914619570
         C           -1.021282058435    -0.003342190420     0.364096323319    12.000000000000
         C           -2.513663058435    -0.015065190420     0.563385323319    12.000000000000
         C           -0.322776058435    -1.203012190420     0.234323323319    12.000000000000
         C           -0.336769058435     1.209603809580     0.234820323319    12.000000000000
         C           -3.273280058435    -0.015372190420    -0.764379676681    12.000000000000
         C            1.034324541565     1.166360009580    -0.018053076681    12.000000000000
         C            1.048345941565    -1.186662190420    -0.019052676681    12.000000000000
         C            1.737147941565     0.019160809580    -0.145795676681    12.000000000000
         H           -2.792495058435    -0.898662190420     1.148282323319     1.007825032230
         H           -2.807999058435     0.858235809580     1.157261323319     1.007825032230
         H           -0.830947058435    -2.159170190420     0.330868323319     1.007825032230
         H           -0.910617358435     2.130221509580     0.341022023319     1.007825032230
         H           -3.022809058435     0.871637809580    -1.352825676681     1.007825032230
         H           -4.357117058435    -0.025050190420    -0.605374676681     1.007825032230
         H           -3.007359058435    -0.893750190420    -1.358726676681     1.007825032230
         H            2.807726941565     0.051142809580    -0.336302676681     1.007825032230
         H            1.159354941565     3.126683809580    -0.030022676681     1.007825032230
         H            2.621819941565    -2.250007190420    -0.297670676681     1.007825032230

  Basis Set: AUG-CC-PVTZ
    Blend: AUG-CC-PVTZ
  Basis Set: (AUG-CC-PVTZ AUX)
    Blend: AUG-CC-PVTZ-JKFIT
	 Reference Energy          =    -458.6564633177212045 [Eh]
	 Singles Energy            =      -0.0000000000000000 [Eh]
	 Same-Spin Energy          =      -0.4818097311189573 [Eh]
	 Opposite-Spin Energy      =      -1.5056433053028564 [Eh]
	 Correlation Energy        =      -1.9874530364218137 [Eh]
	 Total Energy              =    -460.6439163541430162 [Eh]

	 ================> DF-SCS-MP2 Energies <==================
	-----------------------------------------------------------
	 SCS Same-Spin Scale       =       0.3333333333333333 [-]
	 SCS Opposite-Spin Scale   =       1.2000000000000000 [-]
	 SCS Same-Spin Energy      =      -0.1606032437063191 [Eh]
	 SCS Opposite-Spin Energy  =      -1.8067719663634276 [Eh]
	 SCS Correlation Energy    =      -1.9673752100697468 [Eh]
	 SCS Total Energy          =    -460.6238385277909515 [Eh]
	-----------------------------------------------------------

  Dipole Moment: [D]
     X:    -0.6185      Y:     0.9422      Z:     0.0254     Total:     1.1274

*** Psi4 exiting successfully. Buy a developer a beer!
