                               Psi4 1.3.2 release

  ==> Input File <==

--------------------------------------------------------------------------
#psi4
#
memory 32 gb

molecule  {
0 1
  O        1.7627890     2.3683800    -0.1458810
  O        1.6754140    -2.4069960    -0.1279020
  C       -1.0215720    -0.0077180     0.3641480
  C       -2.5139530    -0.0194410     0.5634370
  C       -0.3230660    -1.2073880     0.2343750
  C       -0.3370590     1.2052280     0.2348720
  C       -3.2735700    -0.0197480    -0.7643280
  C        1.0244369     1.2043946    -0.0162912
  C        1.0480560    -1.1910380    -0.0190010
  C        1.7368580     0.0147850    -0.1457440
  H       -2.7927850    -0.9030380     1.1483340
  H       -2.8082890     0.8538600     1.1573130
  H       -0.8312370    -2.1635460     0.3309200
  H       -0.8789600     2.1456520     0.3351900
  H       -3.0230990     0.8672620    -1.3527740
  H       -4.3574070    -0.0294260    -0.6053230
  H       -3.0076490    -0.8981260    -1.3586750
  H        2.8076674     0.0372766    -0.3363130
  H        1.1590650     3.1223080    -0.0299710
  H        2.6215300    -2.2543830    -0.2976190
units angstrom
no_reorient  #important for SAPT in psi4, default
symmetry c1  #important for SAPT in psi4, default
}

set PROPERTIES_ORIGIN ["COM"]
properties('MP2/aug-cc-pvtz', properties = ['dipole'])
--------------------------------------------------------------------------

    Molecular point group: c1
  Charge       = 0
  Multiplicity = 1
  Basis Set: AUG-CC-PVTZ
    Blend: AUG-CC-PVTZ
  Basis Set: (AUG-CC-PVTZ AUX)
    Blend: AUG-CC-PVTZ-JKFIT

    Orbital Energies [Eh]
    ---------------------

    Doubly Occupied:

       1A    -20.593678     2A    -20.593508     3A    -11.309565
       4A    -11.308798     5A    -11.251838     6A    -11.232441
       7A    -11.224430     8A    -11.222456     9A    -11.220051
      10A    -11.216599    11A     -1.403216    12A     -1.398715
      13A     -1.151843    14A     -1.064411    15A     -1.002981
      16A     -0.988457    17A     -0.877440    18A     -0.835362
      19A     -0.808266    20A     -0.739037    21A     -0.688163
      22A     -0.672797    23A     -0.666098    24A     -0.611830
      25A     -0.601472    26A     -0.595120    27A     -0.586910
      28A     -0.574828    29A     -0.552808    30A     -0.550526
      31A     -0.524641    32A     -0.521001    33A     -0.488119
      34A     -0.483514    35A     -0.454804    36A     -0.325998
      37A     -0.313146

  @DF-RHF Final Energy:  -458.65989970610593

   => Energetics <=

    Nuclear Repulsion Energy =            507.5882747218814188
    One-Electron Energy =               -1631.1866118804102825
    Two-Electron Energy =                 664.9384374524229315
    Total Energy =                       -458.6598997061059890
  Basis Set: (AUG-CC-PVTZ AUX)
    Blend: AUG-CC-PVTZ-RI
    Molecular point group: c1

    Geometry (in Angstrom), charge = 0, multiplicity = 1:

       Center              X                  Y                   Z               Mass
    ------------   -----------------  -----------------  -----------------  -----------------
         O            1.763678232210     2.368994466452    -0.146037915885    15.994914619570
         O            1.676303232210    -2.406381533548    -0.128058915885    15.994914619570
         C           -1.020682767790    -0.007103533548     0.363991084115    12.000000000000
         C           -2.513063767790    -0.018826533548     0.563280084115    12.000000000000
         C           -0.322176767790    -1.206773533548     0.234218084115    12.000000000000
         C           -0.336169767790     1.205842466452     0.234715084115    12.000000000000
         C           -3.272680767790    -0.019133533548    -0.764484915885    12.000000000000
         C            1.025326132210     1.205009066452    -0.016448115885    12.000000000000
         C            1.048945232210    -1.190423533548    -0.019157915885    12.000000000000
         C            1.737747232210     0.015399466452    -0.145900915885    12.000000000000
         H           -2.791895767790    -0.902423533548     1.148177084115     1.007825032230
         H           -2.807399767790     0.854474466452     1.157156084115     1.007825032230
         H           -0.830347767790    -2.162931533548     0.330763084115     1.007825032230
         H           -0.878070767790     2.146266466452     0.335033084115     1.007825032230
         H           -3.022209767790     0.867876466452    -1.352930915885     1.007825032230
         H           -4.356517767790    -0.028811533548    -0.605479915885     1.007825032230
         H           -3.006759767790    -0.897511533548    -1.358831915885     1.007825032230
         H            2.808556632210     0.037891066452    -0.336469915885     1.007825032230
         H            1.159954232210     3.122922466452    -0.030127915885     1.007825032230
         H            2.622419232210    -2.253768533548    -0.297775915885     1.007825032230

  Basis Set: AUG-CC-PVTZ
    Blend: AUG-CC-PVTZ
  Basis Set: (AUG-CC-PVTZ AUX)
    Blend: AUG-CC-PVTZ-JKFIT
	 Reference Energy          =    -458.6598997061059322 [Eh]
	 Singles Energy            =      -0.0000000000000000 [Eh]
	 Same-Spin Energy          =      -0.4817504271903060 [Eh]
	 Opposite-Spin Energy      =      -1.5053574172289852 [Eh]
	 Correlation Energy        =      -1.9871078444192913 [Eh]
	 Total Energy              =    -460.6470075505252453 [Eh]

	 ================> DF-SCS-MP2 Energies <==================
	-----------------------------------------------------------
	 SCS Same-Spin Scale       =       0.3333333333333333 [-]
	 SCS Opposite-Spin Scale   =       1.2000000000000000 [-]
	 SCS Same-Spin Energy      =      -0.1605834757301020 [Eh]
	 SCS Opposite-Spin Energy  =      -1.8064289006747822 [Eh]
	 SCS Correlation Energy    =      -1.9670123764048841 [Eh]
	 SCS Total Energy          =    -460.6269120825108416 [Eh]
	-----------------------------------------------------------

  Dipole Moment: [D]
     X:    -0.5426      Y:     1.1542      Z:     0.0160     Total:     1.2755

*** Psi4 exiting successfully. Buy a developer a beer!
