                               Psi4 1.3.2 release

  ==> Input File <==

--------------------------------------------------------------------------
#psi4
#
memory 32 gb

molecule  {
0 1
  O        1.7727047     2.3618850    -0.1476637
  O        1.6754140    -2.4069960    -0.1279020
  C       -1.0215720    -0.0077180     0.3641480
  C       -2.5139530    -0.0194410     0.5634370
  C       -0.3230660    -1.2073880     0.2343750
  C       -0.3370590     1.2052280     0.2348720
  C       -3.2735700    -0.0197480    -0.7643280
  C        1.0346870     1.2106680    -0.0181020
  C        1.0480560    -1.1910380    -0.0190010
  C        1.7471068     0.0210584    -0.1475618
  H       -2.7927850    -0.9030380     1.1483340
  H       -2.8082890     0.8538600     1.1573130
  H       -0.8312370    -2.1635460     0.3309200
  H       -0.8789600     2.1456520     0.3351900
  H       -3.0230990     0.8672620    -1.3527740
  H       -4.3574070    -0.0294260    -0.6053230
  H       -3.0076490    -0.8981260    -1.3586750
  H        2.8074370     0.0467670    -0.3362510
  H        1.1590650     3.1223080    -0.0299710
  H        2.6215300    -2.2543830    -0.2976190
units angstrom
no_reorient  #important for SAPT in psi4, default
symmetry c1  #important for SAPT in psi4, default
}

set PROPERTIES_ORIGIN ["COM"]
properties('MP2/aug-cc-pvtz', properties = ['dipole'])
--------------------------------------------------------------------------

    Molecular point group: c1
  Charge       = 0
  Multiplicity = 1
  Basis Set: AUG-CC-PVTZ
    Blend: AUG-CC-PVTZ
  Basis Set: (AUG-CC-PVTZ AUX)
    Blend: AUG-CC-PVTZ-JKFIT

    Orbital Energies [Eh]
    ---------------------

    Doubly Occupied:

       1A    -20.596488     2A    -20.593419     3A    -11.310186
       4A    -11.310006     5A    -11.251853     6A    -11.232292
       7A    -11.223530     8A    -11.222912     9A    -11.219872
      10A    -11.215928    11A     -1.403959    12A     -1.401209
      13A     -1.149503    14A     -1.063267    15A     -1.000790
      16A     -0.987890    17A     -0.877165    18A     -0.834484
      19A     -0.807811    20A     -0.739129    21A     -0.687483
      22A     -0.672914    23A     -0.666513    24A     -0.612079
      25A     -0.602168    26A     -0.595367    27A     -0.588045
      28A     -0.576175    29A     -0.552517    30A     -0.550270
      31A     -0.523786    32A     -0.520351    33A     -0.487950
      34A     -0.483391    35A     -0.453369    36A     -0.324999
      37A     -0.311364

  @DF-RHF Final Energy:  -458.65896285714769

   => Energetics <=

    Nuclear Repulsion Energy =            507.2730038797473640
    One-Electron Energy =               -1630.5630639271241762
    Two-Electron Energy =                 664.6310971902290703
    Total Energy =                       -458.6589628571476851
  Basis Set: (AUG-CC-PVTZ AUX)
    Blend: AUG-CC-PVTZ-RI
    Molecular point group: c1

    Geometry (in Angstrom), charge = 0, multiplicity = 1:

       Center              X                  Y                   Z               Mass
    ------------   -----------------  -----------------  -----------------  -----------------
         O            1.770665265618     2.362092136297    -0.147299171324    15.994914619570
         O            1.673374565618    -2.406788863703    -0.127537471324    15.994914619570
         C           -1.023611434382    -0.007510863703     0.364512528676    12.000000000000
         C           -2.515992434382    -0.019233863703     0.563801528676    12.000000000000
         C           -0.325105434382    -1.207180863703     0.234739528676    12.000000000000
         C           -0.339098434382     1.205435136297     0.235236528676    12.000000000000
         C           -3.275609434382    -0.019540863703    -0.763963471324    12.000000000000
         C            1.032647565618     1.210875136297    -0.017737471324    12.000000000000
         C            1.046016565618    -1.190830863703    -0.018636471324    12.000000000000
         C            1.745067365618     0.021265536297    -0.147197271324    12.000000000000
         H           -2.794824434382    -0.902830863703     1.148698528676     1.007825032230
         H           -2.810328434382     0.854067136297     1.157677528676     1.007825032230
         H           -0.833276434382    -2.163338863703     0.331284528676     1.007825032230
         H           -0.880999434382     2.145859136297     0.335554528676     1.007825032230
         H           -3.025138434382     0.867469136297    -1.352409471324     1.007825032230
         H           -4.359446434382    -0.029218863703    -0.604958471324     1.007825032230
         H           -3.009688434382    -0.897918863703    -1.358310471324     1.007825032230
         H            2.805397565618     0.046974136297    -0.335886471324     1.007825032230
         H            1.157025565618     3.122515136297    -0.029606471324     1.007825032230
         H            2.619490565618    -2.254175863703    -0.297254471324     1.007825032230

  Basis Set: AUG-CC-PVTZ
    Blend: AUG-CC-PVTZ
  Basis Set: (AUG-CC-PVTZ AUX)
    Blend: AUG-CC-PVTZ-JKFIT
	 Reference Energy          =    -458.6589628571476851 [Eh]
	 Singles Energy            =      -0.0000000000000000 [Eh]
	 Same-Spin Energy          =      -0.4818716478480657 [Eh]
	 Opposite-Spin Energy      =      -1.5056603678797407 [Eh]
	 Correlation Energy        =      -1.9875320157278065 [Eh]
	 Total Energy              =    -460.6464948728755076 [Eh]

	 ================> DF-SCS-MP2 Energies <==================
	-----------------------------------------------------------
	 SCS Same-Spin Scale       =       0.3333333333333333 [-]
	 SCS Opposite-Spin Scale   =       1.2000000000000000 [-]
	 SCS Same-Spin Energy      =      -0.1606238826160219 [Eh]
	 SCS Opposite-Spin Energy  =      -1.8067924414556886 [Eh]
	 SCS Correlation Energy    =      -1.9674163240717104 [Eh]
	 SCS Total Energy          =    -460.6263791812194199 [Eh]
	-----------------------------------------------------------

  Dipole Moment: [D]
     X:    -0.5065      Y:     1.2176      Z:     0.0102     Total:     1.3188

*** Psi4 exiting successfully. Buy a developer a beer!
