                               Psi4 1.3.2 release

  ==> Input File <==

--------------------------------------------------------------------------
#psi4
#
memory 32 gb

molecule  {
0 1
  O        1.7627890     2.3683800    -0.1458810
  O        1.6754140    -2.4069960    -0.1279020
  C       -1.0830403     0.0304022     0.3756002
  C       -2.5139530    -0.0194410     0.5634370
  C       -0.3230660    -1.2073880     0.2343750
  C       -0.3370590     1.2052280     0.2348720
  C       -3.2735700    -0.0197480    -0.7643280
  C        1.0346870     1.2106680    -0.0181020
  C        1.0480560    -1.1910380    -0.0190010
  C        1.7368580     0.0147850    -0.1457440
  H       -2.7927850    -0.9030380     1.1483340
  H       -2.8082890     0.8538600     1.1573130
  H       -0.8312370    -2.1635460     0.3309200
  H       -0.9265914     2.1155205     0.3441278
  H       -3.0230990     0.8672620    -1.3527740
  H       -4.3574070    -0.0294260    -0.6053230
  H       -3.0076490    -0.8981260    -1.3586750
  H        2.8074370     0.0467670    -0.3362510
  H        1.1590650     3.1223080    -0.0299710
  H        2.6215300    -2.2543830    -0.2976190
units angstrom
no_reorient  #important for SAPT in psi4, default
symmetry c1  #important for SAPT in psi4, default
}

set PROPERTIES_ORIGIN ["COM"]
properties('MP2/aug-cc-pvtz', properties = ['dipole'])
--------------------------------------------------------------------------

    Molecular point group: c1
  Charge       = 0
  Multiplicity = 1
  Basis Set: AUG-CC-PVTZ
    Blend: AUG-CC-PVTZ
  Basis Set: (AUG-CC-PVTZ AUX)
    Blend: AUG-CC-PVTZ-JKFIT

    Orbital Energies [Eh]
    ---------------------

    Doubly Occupied:

       1A    -20.596139     2A    -20.591712     3A    -11.312213
       4A    -11.306872     5A    -11.255989     6A    -11.230956
       7A    -11.224641     8A    -11.224493     9A    -11.222177
      10A    -11.219572    11A     -1.405434    12A     -1.400491
      13A     -1.147283    14A     -1.072827    15A     -0.997812
      16A     -0.985349    17A     -0.884135    18A     -0.834242
      19A     -0.804929    20A     -0.743167    21A     -0.683642
      22A     -0.674525    23A     -0.667481    24A     -0.620246
      25A     -0.602233    26A     -0.596279    27A     -0.586241
      28A     -0.575857    29A     -0.553059    30A     -0.547770
      31A     -0.525829    32A     -0.514347    33A     -0.498398
      34A     -0.481595    35A     -0.449226    36A     -0.323468
      37A     -0.307310

  @DF-RHF Final Energy:  -458.65055816227920

   => Energetics <=

    Nuclear Repulsion Energy =            507.0216658738523279
    One-Electron Energy =               -1630.0085726056688600
    Two-Electron Energy =                 664.3363485695374493
    Total Energy =                       -458.6505581622791397
  Basis Set: (AUG-CC-PVTZ AUX)
    Blend: AUG-CC-PVTZ-RI
    Molecular point group: c1

    Geometry (in Angstrom), charge = 0, multiplicity = 1:

       Center              X                  Y                   Z               Mass
    ------------   -----------------  -----------------  -----------------  -----------------
         O            1.768479158842     2.365286726152    -0.146941578948    15.994914619570
         O            1.681104158842    -2.410089273848    -0.128962578948    15.994914619570
         C           -1.077350141158     0.027308926152     0.374539621052    12.000000000000
         C           -2.508262841158    -0.022534273848     0.562376421052    12.000000000000
         C           -0.317375841158    -1.210481273848     0.233314421052    12.000000000000
         C           -0.331368841158     1.202134726152     0.233811421052    12.000000000000
         C           -3.267879841158    -0.022841273848    -0.765388578948    12.000000000000
         C            1.040377158842     1.207574726152    -0.019162578948    12.000000000000
         C            1.053746158842    -1.194131273848    -0.020061578948    12.000000000000
         C            1.742548158842     0.011691726152    -0.146804578948    12.000000000000
         H           -2.787094841158    -0.906131273848     1.147273421052     1.007825032230
         H           -2.802598841158     0.850766726152     1.156252421052     1.007825032230
         H           -0.825546841158    -2.166639273848     0.329859421052     1.007825032230
         H           -0.920901241158     2.112427226152     0.343067221052     1.007825032230
         H           -3.017408841158     0.864168726152    -1.353834578948     1.007825032230
         H           -4.351716841158    -0.032519273848    -0.606383578948     1.007825032230
         H           -3.001958841158    -0.901219273848    -1.359735578948     1.007825032230
         H            2.813127158842     0.043673726152    -0.337311578948     1.007825032230
         H            1.164755158842     3.119214726152    -0.031031578948     1.007825032230
         H            2.627220158842    -2.257476273848    -0.298679578948     1.007825032230

  Basis Set: AUG-CC-PVTZ
    Blend: AUG-CC-PVTZ
  Basis Set: (AUG-CC-PVTZ AUX)
    Blend: AUG-CC-PVTZ-JKFIT
	 Reference Energy          =    -458.6505581622791965 [Eh]
	 Singles Energy            =      -0.0000000000000000 [Eh]
	 Same-Spin Energy          =      -0.4827514827689366 [Eh]
	 Opposite-Spin Energy      =      -1.5068694696326235 [Eh]
	 Correlation Energy        =      -1.9896209524015602 [Eh]
	 Total Energy              =    -460.6401791146807341 [Eh]

	 ================> DF-SCS-MP2 Energies <==================
	-----------------------------------------------------------
	 SCS Same-Spin Scale       =       0.3333333333333333 [-]
	 SCS Opposite-Spin Scale   =       1.2000000000000000 [-]
	 SCS Same-Spin Energy      =      -0.1609171609229789 [Eh]
	 SCS Opposite-Spin Energy  =      -1.8082433635591482 [Eh]
	 SCS Correlation Energy    =      -1.9691605244821271 [Eh]
	 SCS Total Energy          =    -460.6197186867613027 [Eh]
	-----------------------------------------------------------

  Dipole Moment: [D]
     X:    -0.6103      Y:     1.2565      Z:     0.0099     Total:     1.3969

*** Psi4 exiting successfully. Buy a developer a beer!
