                               Psi4 1.3.2 release

  ==> Input File <==

--------------------------------------------------------------------------
#psi4
#
memory 32 gb

molecule  {
0 1
  O        1.7627890     2.3683800    -0.1458810
  O        1.6754140    -2.4069960    -0.1279020
  C       -1.0215720    -0.0077180     0.3641480
  C       -2.5139530    -0.0194410     0.5634370
  C       -0.3230660    -1.2073880     0.2343750
  C       -0.3370590     1.2052280     0.2348720
  C       -3.2735700    -0.0197480    -0.7643280
  C        1.0346870     1.2106680    -0.0181020
  C        1.0475545    -1.1667060    -0.0189759
  C        1.7368580     0.0147850    -0.1457440
  H       -2.7927850    -0.9030380     1.1483340
  H       -2.8082890     0.8538600     1.1573130
  H       -0.8475737    -2.1543731     0.3339129
  H       -0.8789600     2.1456520     0.3351900
  H       -3.0230990     0.8672620    -1.3527740
  H       -4.3574070    -0.0294260    -0.6053230
  H       -3.0076490    -0.8981260    -1.3586750
  H        2.8074370     0.0467670    -0.3362510
  H        1.1590650     3.1223080    -0.0299710
  H        2.6215300    -2.2543830    -0.2976190
units angstrom
no_reorient  #important for SAPT in psi4, default
symmetry c1  #important for SAPT in psi4, default
}

set PROPERTIES_ORIGIN ["COM"]
properties('MP2/aug-cc-pvtz', properties = ['dipole'])
--------------------------------------------------------------------------

    Molecular point group: c1
  Charge       = 0
  Multiplicity = 1
  Basis Set: AUG-CC-PVTZ
    Blend: AUG-CC-PVTZ
  Basis Set: (AUG-CC-PVTZ AUX)
    Blend: AUG-CC-PVTZ-JKFIT

    Orbital Energies [Eh]
    ---------------------

    Doubly Occupied:

       1A    -20.596597     2A    -20.589375     3A    -11.311556
       4A    -11.307075     5A    -11.251260     6A    -11.232412
       7A    -11.223746     8A    -11.223588     9A    -11.220102
      10A    -11.216892    11A     -1.405842    12A     -1.391426
      13A     -1.152943    14A     -1.066529    15A     -1.001306
      16A     -0.990338    17A     -0.876718    18A     -0.838782
      19A     -0.805500    20A     -0.738068    21A     -0.689070
      22A     -0.674391    23A     -0.661965    24A     -0.611982
      25A     -0.602162    26A     -0.595283    27A     -0.585595
      28A     -0.572419    29A     -0.555099    30A     -0.549429
      31A     -0.524025    32A     -0.523113    33A     -0.487891
      34A     -0.483368    35A     -0.455404    36A     -0.329230
      37A     -0.312086

  @DF-RHF Final Energy:  -458.65909855694775

   => Energetics <=

    Nuclear Repulsion Energy =            507.6656209925177450
    One-Electron Energy =               -1631.3443104825967112
    Two-Electron Energy =                 665.0195909331313260
    Total Energy =                       -458.6590985569476970
  Basis Set: (AUG-CC-PVTZ AUX)
    Blend: AUG-CC-PVTZ-RI
    Molecular point group: c1

    Geometry (in Angstrom), charge = 0, multiplicity = 1:

       Center              X                  Y                   Z               Mass
    ------------   -----------------  -----------------  -----------------  -----------------
         O            1.762951877051     2.366198207229    -0.145905013367    15.994914619570
         O            1.675576877051    -2.409177792771    -0.127926013367    15.994914619570
         C           -1.021409122949    -0.009899792771     0.364123986633    12.000000000000
         C           -2.513790122949    -0.021622792771     0.563412986633    12.000000000000
         C           -0.322903122949    -1.209569792771     0.234350986633    12.000000000000
         C           -0.336896122949     1.203046207229     0.234847986633    12.000000000000
         C           -3.273407122949    -0.021929792771    -0.764352013367    12.000000000000
         C            1.034849877051     1.208486207229    -0.018126013367    12.000000000000
         C            1.047717377051    -1.168887792771    -0.018999913367    12.000000000000
         C            1.737020877051     0.012603207229    -0.145768013367    12.000000000000
         H           -2.792622122949    -0.905219792771     1.148309986633     1.007825032230
         H           -2.808126122949     0.851678207229     1.157288986633     1.007825032230
         H           -0.847410822949    -2.156554892771     0.333888886633     1.007825032230
         H           -0.878797122949     2.143470207229     0.335165986633     1.007825032230
         H           -3.022936122949     0.865080207229    -1.352798013367     1.007825032230
         H           -4.357244122949    -0.031607792771    -0.605347013367     1.007825032230
         H           -3.007486122949    -0.900307792771    -1.358699013367     1.007825032230
         H            2.807599877051     0.044585207229    -0.336275013367     1.007825032230
         H            1.159227877051     3.120126207229    -0.029995013367     1.007825032230
         H            2.621692877051    -2.256564792771    -0.297643013367     1.007825032230

  Basis Set: AUG-CC-PVTZ
    Blend: AUG-CC-PVTZ
  Basis Set: (AUG-CC-PVTZ AUX)
    Blend: AUG-CC-PVTZ-JKFIT
	 Reference Energy          =    -458.6590985569477539 [Eh]
	 Singles Energy            =      -0.0000000000000000 [Eh]
	 Same-Spin Energy          =      -0.4817915069524006 [Eh]
	 Opposite-Spin Energy      =      -1.5055313341727254 [Eh]
	 Correlation Energy        =      -1.9873228411251260 [Eh]
	 Total Energy              =    -460.6464213980729028 [Eh]

	 ================> DF-SCS-MP2 Energies <==================
	-----------------------------------------------------------
	 SCS Same-Spin Scale       =       0.3333333333333333 [-]
	 SCS Opposite-Spin Scale   =       1.2000000000000000 [-]
	 SCS Same-Spin Energy      =      -0.1605971689841335 [Eh]
	 SCS Opposite-Spin Energy  =      -1.8066376010072704 [Eh]
	 SCS Correlation Energy    =      -1.9672347699914039 [Eh]
	 SCS Total Energy          =    -460.6263333269391751 [Eh]
	-----------------------------------------------------------

  Dipole Moment: [D]
     X:    -0.5693      Y:     1.3590      Z:     0.0193     Total:     1.4735

*** Psi4 exiting successfully. Buy a developer a beer!
