                               Psi4 1.3.2 release

  ==> Input File <==

--------------------------------------------------------------------------
#psi4
#
memory 32 gb

molecule  {
0 1
  O        1.7627890     2.3683800    -0.1458810
  O        1.6754140    -2.4069960    -0.1279020
  C       -1.0215720    -0.0077180     0.3641480
  C       -2.5139530    -0.0194410     0.5634370
  C       -0.3230660    -1.2073880     0.2343750
  C       -0.3370590     1.2052280     0.2348720
  C       -3.2735700    -0.0197480    -0.7643280
  C        1.0346870     1.2106680    -0.0181020
  C        1.0066758    -1.2140002    -0.0115331
  C        1.7368580     0.0147850    -0.1457440
  H       -2.7927850    -0.9030380     1.1483340
  H       -2.8082890     0.8538600     1.1573130
  H       -0.8312370    -2.1635460     0.3309200
  H       -0.8789600     2.1456520     0.3351900
  H       -3.0230990     0.8672620    -1.3527740
  H       -4.3574070    -0.0294260    -0.6053230
  H       -3.0076490    -0.8981260    -1.3586750
  H        2.8074370     0.0467670    -0.3362510
  H        1.1590650     3.1223080    -0.0299710
  H        2.6262126    -2.2880219    -0.2983640
units angstrom
no_reorient  #important for SAPT in psi4, default
symmetry c1  #important for SAPT in psi4, default
}

set PROPERTIES_ORIGIN ["COM"]
properties('MP2/aug-cc-pvtz', properties = ['dipole'])
--------------------------------------------------------------------------

    Molecular point group: c1
  Charge       = 0
  Multiplicity = 1
  Basis Set: AUG-CC-PVTZ
    Blend: AUG-CC-PVTZ
  Basis Set: (AUG-CC-PVTZ AUX)
    Blend: AUG-CC-PVTZ-JKFIT

    Orbital Energies [Eh]
    ---------------------

    Doubly Occupied:

       1A    -20.594460     2A    -20.590172     3A    -11.308593
       4A    -11.308463     5A    -11.253253     6A    -11.233019
       7A    -11.225345     8A    -11.223556     9A    -11.220415
      10A    -11.212584    11A     -1.403907    12A     -1.398320
      13A     -1.151608    14A     -1.061369    15A     -1.009150
      16A     -0.984360    17A     -0.878387    18A     -0.832228
      19A     -0.809627    20A     -0.740582    21A     -0.685342
      22A     -0.677751    23A     -0.669200    24A     -0.612057
      25A     -0.601600    26A     -0.594199    27A     -0.586496
      28A     -0.575349    29A     -0.551482    30A     -0.548894
      31A     -0.523827    32A     -0.514026    33A     -0.489404
      34A     -0.484678    35A     -0.454080    36A     -0.320726
      37A     -0.316129

  @DF-RHF Final Energy:  -458.65710392999893

   => Energetics <=

    Nuclear Repulsion Energy =            507.4966488641670708
    One-Electron Energy =               -1631.0182295020235870
    Two-Electron Energy =                 664.8644767078575342
    Total Energy =                       -458.6571039299989252
  Basis Set: (AUG-CC-PVTZ AUX)
    Blend: AUG-CC-PVTZ-RI
    Molecular point group: c1

    Geometry (in Angstrom), charge = 0, multiplicity = 1:

       Center              X                  Y                   Z               Mass
    ------------   -----------------  -----------------  -----------------  -----------------
         O            1.766351363918     2.370621222350    -0.146524609520    15.994914619570
         O            1.678976363918    -2.404754777650    -0.128545609520    15.994914619570
         C           -1.018009636082    -0.005476777650     0.363504390480    12.000000000000
         C           -2.510390636082    -0.017199777650     0.562793390480    12.000000000000
         C           -0.319503636082    -1.205146777650     0.233731390480    12.000000000000
         C           -0.333496636082     1.207469222350     0.234228390480    12.000000000000
         C           -3.270007636082    -0.017506777650    -0.764971609520    12.000000000000
         C            1.038249363918     1.212909222350    -0.018745609520    12.000000000000
         C            1.010238163918    -1.211758977650    -0.012176709520    12.000000000000
         C            1.740420363918     0.017026222350    -0.146387609520    12.000000000000
         H           -2.789222636082    -0.900796777650     1.147690390480     1.007825032230
         H           -2.804726636082     0.856101222350     1.156669390480     1.007825032230
         H           -0.827674636082    -2.161304777650     0.330276390480     1.007825032230
         H           -0.875397636082     2.147893222350     0.334546390480     1.007825032230
         H           -3.019536636082     0.869503222350    -1.353417609520     1.007825032230
         H           -4.353844636082    -0.027184777650    -0.605966609520     1.007825032230
         H           -3.004086636082    -0.895884777650    -1.359318609520     1.007825032230
         H            2.810999363918     0.049008222350    -0.336894609520     1.007825032230
         H            1.162627363918     3.124549222350    -0.030614609520     1.007825032230
         H            2.629774963918    -2.285780677650    -0.299007609520     1.007825032230

  Basis Set: AUG-CC-PVTZ
    Blend: AUG-CC-PVTZ
  Basis Set: (AUG-CC-PVTZ AUX)
    Blend: AUG-CC-PVTZ-JKFIT
	 Reference Energy          =    -458.6571039299989252 [Eh]
	 Singles Energy            =      -0.0000000000000000 [Eh]
	 Same-Spin Energy          =      -0.4815937505579163 [Eh]
	 Opposite-Spin Energy      =      -1.5050241082908122 [Eh]
	 Correlation Energy        =      -1.9866178588487284 [Eh]
	 Total Energy              =    -460.6437217888476425 [Eh]

	 ================> DF-SCS-MP2 Energies <==================
	-----------------------------------------------------------
	 SCS Same-Spin Scale       =       0.3333333333333333 [-]
	 SCS Opposite-Spin Scale   =       1.2000000000000000 [-]
	 SCS Same-Spin Energy      =      -0.1605312501859721 [Eh]
	 SCS Opposite-Spin Energy  =      -1.8060289299489747 [Eh]
	 SCS Correlation Energy    =      -1.9665601801349468 [Eh]
	 SCS Total Energy          =    -460.6236641101338591 [Eh]
	-----------------------------------------------------------

  Dipole Moment: [D]
     X:    -0.5449      Y:     1.1776      Z:     0.0168     Total:     1.2976

*** Psi4 exiting successfully. Buy a developer a beer!
