                               Psi4 1.3.2 release

  ==> Input File <==

--------------------------------------------------------------------------
#psi4
#
memory 32 gb

molecule  {
0 1
  O        1.7627890     2.3683800    -0.1458810
  O        1.6754140    -2.4069960    -0.1279020
  C       -1.0215720    -0.0077180     0.3641480
  C       -2.5139530    -0.0194410     0.5634370
  C       -0.3230660    -1.2073880     0.2343750
  C       -0.3370590     1.2052280     0.2348720
  C       -3.2735700    -0.0197480    -0.7643280
  C        0.9740159     1.1716784    -0.0073880
  C        1.0480560    -1.1910380    -0.0190010
  C        1.7368580     0.0147850    -0.1457440
  H       -2.7927850    -0.9030380     1.1483340
  H       -2.8082890     0.8538600     1.1573130
  H       -0.8312370    -2.1635460     0.3309200
  H       -0.8789600     2.1456520     0.3351900
  H       -3.0230990     0.8672620    -1.3527740
  H       -4.3574070    -0.0294260    -0.6053230
  H       -3.0076490    -0.8981260    -1.3586750
  H        2.8075960    -0.0101867    -0.3364053
  H        1.1590650     3.1223080    -0.0299710
  H        2.6215300    -2.2543830    -0.2976190
units angstrom
no_reorient  #important for SAPT in psi4, default
symmetry c1  #important for SAPT in psi4, default
}

set PROPERTIES_ORIGIN ["COM"]
properties('MP2/aug-cc-pvtz', properties = ['dipole'])
--------------------------------------------------------------------------

    Molecular point group: c1
  Charge       = 0
  Multiplicity = 1
  Basis Set: AUG-CC-PVTZ
    Blend: AUG-CC-PVTZ
  Basis Set: (AUG-CC-PVTZ AUX)
    Blend: AUG-CC-PVTZ-JKFIT

    Orbital Energies [Eh]
    ---------------------

    Doubly Occupied:

       1A    -20.594468     2A    -20.583638     3A    -11.308924
       4A    -11.305249     5A    -11.254196     6A    -11.234111
       7A    -11.226801     8A    -11.221641     9A    -11.220841
      10A    -11.219716    11A     -1.404021    12A     -1.372919
      13A     -1.159525    14A     -1.066510    15A     -1.012354
      16A     -0.989945    17A     -0.881443    18A     -0.830295
      19A     -0.808698    20A     -0.735245    21A     -0.692819
      22A     -0.669986    23A     -0.656298    24A     -0.612379
      25A     -0.600022    26A     -0.595344    27A     -0.582570
      28A     -0.565762    29A     -0.557707    30A     -0.551410
      31A     -0.528722    32A     -0.519257    33A     -0.489879
      34A     -0.485599    35A     -0.458849    36A     -0.326475
      37A     -0.322174

  @DF-RHF Final Energy:  -458.65218006784676

   => Energetics <=

    Nuclear Repulsion Energy =            508.0570338435496751
    One-Electron Energy =               -1632.1268434619748859
    Two-Electron Energy =                 665.4176295505783401
    Total Energy =                       -458.6521800678467571
  Basis Set: (AUG-CC-PVTZ AUX)
    Blend: AUG-CC-PVTZ-RI
    Molecular point group: c1

    Geometry (in Angstrom), charge = 0, multiplicity = 1:

       Center              X                  Y                   Z               Mass
    ------------   -----------------  -----------------  -----------------  -----------------
         O            1.768061026268     2.372184407989    -0.146811051703    15.994914619570
         O            1.680686026268    -2.403191592011    -0.128832051703    15.994914619570
         C           -1.016299973732    -0.003913592011     0.363217948297    12.000000000000
         C           -2.508680973732    -0.015636592011     0.562506948297    12.000000000000
         C           -0.317793973732    -1.203583592011     0.233444948297    12.000000000000
         C           -0.331786973732     1.209032407989     0.233941948297    12.000000000000
         C           -3.268297973732    -0.015943592011    -0.765258051703    12.000000000000
         C            0.979287926268     1.175482807989    -0.008318051703    12.000000000000
         C            1.053328026268    -1.187233592011    -0.019931051703    12.000000000000
         C            1.742130026268     0.018589407989    -0.146674051703    12.000000000000
         H           -2.787512973732    -0.899233592011     1.147403948297     1.007825032230
         H           -2.803016973732     0.857664407989     1.156382948297     1.007825032230
         H           -0.825964973732    -2.159741592011     0.329989948297     1.007825032230
         H           -0.873687973732     2.149456407989     0.334259948297     1.007825032230
         H           -3.017826973732     0.871066407989    -1.353704051703     1.007825032230
         H           -4.352134973732    -0.025621592011    -0.606253051703     1.007825032230
         H           -3.002376973732    -0.894321592011    -1.359605051703     1.007825032230
         H            2.812868026268    -0.006382292011    -0.337335351703     1.007825032230
         H            1.164337026268     3.126112407989    -0.030901051703     1.007825032230
         H            2.626802026268    -2.250578592011    -0.298549051703     1.007825032230

  Basis Set: AUG-CC-PVTZ
    Blend: AUG-CC-PVTZ
  Basis Set: (AUG-CC-PVTZ AUX)
    Blend: AUG-CC-PVTZ-JKFIT
	 Reference Energy          =    -458.6521800678467571 [Eh]
	 Singles Energy            =      -0.0000000000000000 [Eh]
	 Same-Spin Energy          =      -0.4819576792266774 [Eh]
	 Opposite-Spin Energy      =      -1.5064360266203296 [Eh]
	 Correlation Energy        =      -1.9883937058470069 [Eh]
	 Total Energy              =    -460.6405737736937454 [Eh]

	 ================> DF-SCS-MP2 Energies <==================
	-----------------------------------------------------------
	 SCS Same-Spin Scale       =       0.3333333333333333 [-]
	 SCS Opposite-Spin Scale   =       1.2000000000000000 [-]
	 SCS Same-Spin Energy      =      -0.1606525597422258 [Eh]
	 SCS Opposite-Spin Energy  =      -1.8077232319443954 [Eh]
	 SCS Correlation Energy    =      -1.9683757916866211 [Eh]
	 SCS Total Energy          =    -460.6205558595333969 [Eh]
	-----------------------------------------------------------

  Dipole Moment: [D]
     X:    -0.7661      Y:     0.8291      Z:     0.0493     Total:     1.1300

*** Psi4 exiting successfully. Buy a developer a beer!
