                               Psi4 1.3.2 release

  ==> Input File <==

--------------------------------------------------------------------------
#psi4
#
memory 32 gb

molecule  {
0 1
  O        1.7627890     2.3683800    -0.1458810
  O        1.6754140    -2.4069960    -0.1279020
  C       -1.0215720    -0.0077180     0.3641480
  C       -2.5139530    -0.0194410     0.5634370
  C       -0.3230660    -1.2073880     0.2343750
  C       -0.3370590     1.2052280     0.2348720
  C       -3.2735700    -0.0197480    -0.7643280
  C        1.0346870     1.2106680    -0.0181020
  C        1.0585225    -1.1855279    -0.0208891
  C        1.7368580     0.0147850    -0.1457440
  H       -2.7927850    -0.9030380     1.1483340
  H       -2.8082890     0.8538600     1.1573130
  H       -0.8312370    -2.1635460     0.3309200
  H       -0.8789600     2.1456520     0.3351900
  H       -3.0230990     0.8672620    -1.3527740
  H       -4.3574070    -0.0294260    -0.6053230
  H       -3.0076490    -0.8981260    -1.3586750
  H        2.8074370     0.0467670    -0.3362510
  H        1.1590650     3.1223080    -0.0299710
  H        2.6201790    -2.2460007    -0.2974004
units angstrom
no_reorient  #important for SAPT in psi4, default
symmetry c1  #important for SAPT in psi4, default
}

set PROPERTIES_ORIGIN ["COM"]
properties('MP2/aug-cc-pvtz', properties = ['dipole'])
--------------------------------------------------------------------------

    Molecular point group: c1
  Charge       = 0
  Multiplicity = 1
  Basis Set: AUG-CC-PVTZ
    Blend: AUG-CC-PVTZ
  Basis Set: (AUG-CC-PVTZ AUX)
    Blend: AUG-CC-PVTZ-JKFIT

    Orbital Energies [Eh]
    ---------------------

    Doubly Occupied:

       1A    -20.596003     2A    -20.594078     3A    -11.310962
       4A    -11.308785     5A    -11.250887     6A    -11.231874
       7A    -11.223575     8A    -11.222573     9A    -11.219558
      10A    -11.216732    11A     -1.405826    12A     -1.402674
      13A     -1.150223    14A     -1.064768    15A     -0.999603
      16A     -0.988780    17A     -0.876171    18A     -0.837920
      19A     -0.807613    20A     -0.739646    21A     -0.688553
      22A     -0.675013    23A     -0.664550    24A     -0.611952
      25A     -0.602598    26A     -0.595615    27A     -0.587834
      28A     -0.576773    29A     -0.553126    30A     -0.549110
      31A     -0.524344    32A     -0.521636    33A     -0.487454
      34A     -0.481996    35A     -0.453976    36A     -0.327532
      37A     -0.309997

  @DF-RHF Final Energy:  -458.65990346448950

   => Energetics <=

    Nuclear Repulsion Energy =            507.5090821308224349
    One-Electron Energy =               -1631.0173543027312917
    Two-Electron Energy =                 664.8483687074193540
    Total Energy =                       -458.6599034644895028
  Basis Set: (AUG-CC-PVTZ AUX)
    Blend: AUG-CC-PVTZ-RI
    Molecular point group: c1

    Geometry (in Angstrom), charge = 0, multiplicity = 1:

       Center              X                  Y                   Z               Mass
    ------------   -----------------  -----------------  -----------------  -----------------
         O            1.761889220396     2.367839858124    -0.145718479238    15.994914619570
         O            1.674514220396    -2.407536141876    -0.127739479238    15.994914619570
         C           -1.022471779604    -0.008258141876     0.364310520762    12.000000000000
         C           -2.514852779604    -0.019981141876     0.563599520762    12.000000000000
         C           -0.323965779604    -1.207928141876     0.234537520762    12.000000000000
         C           -0.337958779604     1.204687858124     0.235034520762    12.000000000000
         C           -3.274469779604    -0.020288141876    -0.764165479238    12.000000000000
         C            1.033787220396     1.210127858124    -0.017939479238    12.000000000000
         C            1.057622720396    -1.186068041876    -0.020726579238    12.000000000000
         C            1.735958220396     0.014244858124    -0.145581479238    12.000000000000
         H           -2.793684779604    -0.903578141876     1.148496520762     1.007825032230
         H           -2.809188779604     0.853319858124     1.157475520762     1.007825032230
         H           -0.832136779604    -2.164086141876     0.331082520762     1.007825032230
         H           -0.879859779604     2.145111858124     0.335352520762     1.007825032230
         H           -3.023998779604     0.866721858124    -1.352611479238     1.007825032230
         H           -4.358306779604    -0.029966141876    -0.605160479238     1.007825032230
         H           -3.008548779604    -0.898666141876    -1.358512479238     1.007825032230
         H            2.806537220396     0.046226858124    -0.336088479238     1.007825032230
         H            1.158165220396     3.121767858124    -0.029808479238     1.007825032230
         H            2.619279220396    -2.246540841876    -0.297237879238     1.007825032230

  Basis Set: AUG-CC-PVTZ
    Blend: AUG-CC-PVTZ
  Basis Set: (AUG-CC-PVTZ AUX)
    Blend: AUG-CC-PVTZ-JKFIT
	 Reference Energy          =    -458.6599034644895028 [Eh]
	 Singles Energy            =      -0.0000000000000000 [Eh]
	 Same-Spin Energy          =      -0.4817530190632831 [Eh]
	 Opposite-Spin Energy      =      -1.5053067704176846 [Eh]
	 Correlation Energy        =      -1.9870597894809676 [Eh]
	 Total Energy              =    -460.6469632539704548 [Eh]

	 ================> DF-SCS-MP2 Energies <==================
	-----------------------------------------------------------
	 SCS Same-Spin Scale       =       0.3333333333333333 [-]
	 SCS Opposite-Spin Scale   =       1.2000000000000000 [-]
	 SCS Same-Spin Energy      =      -0.1605843396877610 [Eh]
	 SCS Opposite-Spin Energy  =      -1.8063681245012213 [Eh]
	 SCS Correlation Energy    =      -1.9669524641889824 [Eh]
	 SCS Total Energy          =    -460.6268559286784807 [Eh]
	-----------------------------------------------------------

  Dipole Moment: [D]
     X:    -0.4868      Y:     1.2313      Z:     0.0077     Total:     1.3241

*** Psi4 exiting successfully. Buy a developer a beer!
