                               Psi4 1.3.2 release

  ==> Input File <==

--------------------------------------------------------------------------
#psi4
#
memory 32 gb

molecule  {
0 1
  O        1.7627890     2.3683800    -0.1458810
  O        1.6754140    -2.4069960    -0.1279020
  C       -1.0215720    -0.0077180     0.3641480
  C       -2.5139530    -0.0194410     0.5634370
  C       -0.3230660    -1.2073880     0.2343750
  C       -0.3370590     1.2052280     0.2348720
  C       -3.2735700    -0.0197480    -0.7643280
  C        1.0346870     1.2106680    -0.0181020
  C        1.0480560    -1.1910380    -0.0190010
  C        1.7368580     0.0147850    -0.1457440
  H       -2.7927850    -0.9030380     1.1483340
  H       -2.8082890     0.8538600     1.1573130
  H       -0.8312370    -2.1635460     0.3309200
  H       -0.8789600     2.1456520     0.3351900
  H       -3.0230990     0.8672620    -1.3527740
  H       -4.3574070    -0.0294260    -0.6053230
  H       -3.0076490    -0.8981260    -1.3586750
  H        2.7090262     0.0438271    -0.3187390
  H        1.1590650     3.1223080    -0.0299710
  H        2.6215300    -2.2543830    -0.2976190
units angstrom
no_reorient  #important for SAPT in psi4, default
symmetry c1  #important for SAPT in psi4, default
}

set PROPERTIES_ORIGIN ["COM"]
properties('MP2/aug-cc-pvtz', properties = ['dipole'])
--------------------------------------------------------------------------

    Molecular point group: c1
  Charge       = 0
  Multiplicity = 1
  Basis Set: AUG-CC-PVTZ
    Blend: AUG-CC-PVTZ
  Basis Set: (AUG-CC-PVTZ AUX)
    Blend: AUG-CC-PVTZ-JKFIT

    Orbital Energies [Eh]
    ---------------------

    Doubly Occupied:

       1A    -20.595651     2A    -20.593657     3A    -11.309620
       4A    -11.308008     5A    -11.251099     6A    -11.231883
       7A    -11.222056     8A    -11.219565     9A    -11.215275
      10A    -11.212066    11A     -1.405456    12A     -1.402077
      13A     -1.150283    14A     -1.065403    15A     -1.000829
      16A     -0.991138    17A     -0.879375    18A     -0.836440
      19A     -0.809552    20A     -0.741078    21A     -0.695465
      22A     -0.679612    23A     -0.667229    24A     -0.612249
      25A     -0.603085    26A     -0.597521    27A     -0.589622
      28A     -0.576555    29A     -0.555044    30A     -0.550698
      31A     -0.523908    32A     -0.521092    33A     -0.487593
      34A     -0.483129    35A     -0.453607    36A     -0.325618
      37A     -0.310850

  @DF-RHF Final Energy:  -458.65436203707179

   => Energetics <=

    Nuclear Repulsion Energy =            508.0756127871435410
    One-Electron Energy =               -1632.1131766477544716
    Two-Electron Energy =                 665.3832018235392525
    Total Energy =                       -458.6543620370717917
  Basis Set: (AUG-CC-PVTZ AUX)
    Blend: AUG-CC-PVTZ-RI
    Molecular point group: c1

    Geometry (in Angstrom), charge = 0, multiplicity = 1:

       Center              X                  Y                   Z               Mass
    ------------   -----------------  -----------------  -----------------  -----------------
         O            1.763507388019     2.368401407158    -0.146008813699    15.994914619570
         O            1.676132388019    -2.406974592842    -0.128029813699    15.994914619570
         C           -1.020853611981    -0.007696592842     0.364020186301    12.000000000000
         C           -2.513234611981    -0.019419592842     0.563309186301    12.000000000000
         C           -0.322347611981    -1.207366592842     0.234247186301    12.000000000000
         C           -0.336340611981     1.205249407158     0.234744186301    12.000000000000
         C           -3.272851611981    -0.019726592842    -0.764455813699    12.000000000000
         C            1.035405388019     1.210689407158    -0.018229813699    12.000000000000
         C            1.048774388019    -1.191016592842    -0.019128813699    12.000000000000
         C            1.737576388019     0.014806407158    -0.145871813699    12.000000000000
         H           -2.792066611981    -0.903016592842     1.148206186301     1.007825032230
         H           -2.807570611981     0.853881407158     1.157185186301     1.007825032230
         H           -0.830518611981    -2.163524592842     0.330792186301     1.007825032230
         H           -0.878241611981     2.145673407158     0.335062186301     1.007825032230
         H           -3.022380611981     0.867283407158    -1.352901813699     1.007825032230
         H           -4.356688611981    -0.029404592842    -0.605450813699     1.007825032230
         H           -3.006930611981    -0.898104592842    -1.358802813699     1.007825032230
         H            2.709744588019     0.043848507158    -0.318866813699     1.007825032230
         H            1.159783388019     3.122329407158    -0.030098813699     1.007825032230
         H            2.622248388019    -2.254361592842    -0.297746813699     1.007825032230

  Basis Set: AUG-CC-PVTZ
    Blend: AUG-CC-PVTZ
  Basis Set: (AUG-CC-PVTZ AUX)
    Blend: AUG-CC-PVTZ-JKFIT
	 Reference Energy          =    -458.6543620370717917 [Eh]
	 Singles Energy            =      -0.0000000000000000 [Eh]
	 Same-Spin Energy          =      -0.4815411501786341 [Eh]
	 Opposite-Spin Energy      =      -1.5047380878234038 [Eh]
	 Correlation Energy        =      -1.9862792380020378 [Eh]
	 Total Energy              =    -460.6406412750738468 [Eh]

	 ================> DF-SCS-MP2 Energies <==================
	-----------------------------------------------------------
	 SCS Same-Spin Scale       =       0.3333333333333333 [-]
	 SCS Opposite-Spin Scale   =       1.2000000000000000 [-]
	 SCS Same-Spin Energy      =      -0.1605137167262113 [Eh]
	 SCS Opposite-Spin Energy  =      -1.8056857053880844 [Eh]
	 SCS Correlation Energy    =      -1.9661994221142958 [Eh]
	 SCS Total Energy          =    -460.6205614591860922 [Eh]
	-----------------------------------------------------------

  Dipole Moment: [D]
     X:    -0.4817      Y:     1.2086      Z:     0.0069     Total:     1.3011

*** Psi4 exiting successfully. Buy a developer a beer!
