                               Psi4 1.4a3.dev225

  ==> Input File <==

--------------------------------------------------------------------------
#psi4
#
memory 32 gb

molecule  {
0 1
  O       -1.8116000     2.3801270     0.1363720
  O       -1.7799440    -2.3994320     0.1189850
  C        0.9489570    -0.0306590    -0.3689570
  C        2.4429910    -0.0568610    -0.5708560
  C        0.2354480    -1.2220220    -0.2373930
  C        0.2798030     1.1938580    -0.2383990
  C        3.1984060    -0.0265600     0.7613490
  C       -1.0921630     1.2139390     0.0079710
  C       -1.1396310    -1.1871160     0.0102260
  C       -1.8229214     0.0428218     0.1404218
  H        2.7180680    -0.9584190    -1.1301260
  H        2.7446220     0.7994920    -1.1857830
  H        0.7258350    -2.1872220    -0.3369480
  H        0.8309290     2.1284970    -0.3452230
  H        2.9508560     0.8787730     1.3230630
  H        4.2811760    -0.0477390     0.6027570
  H        2.9230980    -0.8883860     1.3756490
  H       -2.8837580     0.0741080     0.3259950
  H       -1.1979550     3.1274200     0.0245130
  H       -2.7238770    -2.2320380     0.2881370
units angstrom
no_reorient  #important for SAPT in psi4, default
symmetry c1  #important for SAPT in psi4, default
}

set PROPERTIES_ORIGIN ["COM"]
properties('MP2/aug-cc-pvtz', properties = ['dipole'])
--------------------------------------------------------------------------

    Molecular point group: c1
  Charge       = 0
  Multiplicity = 1
  Basis Set: AUG-CC-PVTZ
    Blend: AUG-CC-PVTZ
  Basis Set: (AUG-CC-PVTZ AUX)
    Blend: AUG-CC-PVTZ-JKFIT

    Orbital Energies [Eh]
    ---------------------

    Doubly Occupied:

       1A    -20.594435     2A    -20.594402     3A    -11.311855
       4A    -11.309696     5A    -11.252777     6A    -11.232764
       7A    -11.224493     8A    -11.223222     9A    -11.220012
      10A    -11.216935    11A     -1.403898    12A     -1.401065
      13A     -1.149018    14A     -1.063113    15A     -1.000897
      16A     -0.987644    17A     -0.876963    18A     -0.834556
      19A     -0.807706    20A     -0.739109    21A     -0.687667
      22A     -0.673351    23A     -0.666004    24A     -0.611669
      25A     -0.601850    26A     -0.595309    27A     -0.588372
      28A     -0.575670    29A     -0.552417    30A     -0.550329
      31A     -0.524228    32A     -0.520448    33A     -0.488483
      34A     -0.483080    35A     -0.453231    36A     -0.325187
      37A     -0.311490

  @DF-RHF Final Energy:  -458.65907207702367

   => Energetics <=

    Nuclear Repulsion Energy =            506.9097427949049006
    One-Electron Energy =               -1629.8309403930670669
    Two-Electron Energy =                 664.2621255211383868
    Total Energy =                       -458.6590720770236658
  Basis Set: (AUG-CC-PVTZ AUX)
    Blend: AUG-CC-PVTZ-RI
    Molecular point group: c1

    Geometry (in Angstrom), charge = 0, multiplicity = 1:

       Center              X                  Y                   Z               Mass
    ------------   -----------------  -----------------  -----------------  -----------------
         O           -1.736378900719     2.383603921334     0.142990673512    15.994914619570
         O           -1.704722900719    -2.395955078666     0.125603673512    15.994914619570
         C            1.024178099281    -0.027182078666    -0.362338326488    12.000000000000
         C            2.518212099281    -0.053384078666    -0.564237326488    12.000000000000
         C            0.310669099281    -1.218545078666    -0.230774326488    12.000000000000
         C            0.355024099281     1.197334921334    -0.231780326488    12.000000000000
         C            3.273627099281    -0.023083078666     0.767967673512    12.000000000000
         C           -1.016941900719     1.217415921334     0.014589673512    12.000000000000
         C           -1.064409900719    -1.183639078666     0.016844673512    12.000000000000
         C           -1.747700300719     0.046298721334     0.147040473512    12.000000000000
         H            2.793289099281    -0.954942078666    -1.123507326488     1.007825032230
         H            2.819843099281     0.802968921334    -1.179164326488     1.007825032230
         H            0.801056099281    -2.183745078666    -0.330329326488     1.007825032230
         H            0.906150099281     2.131973921334    -0.338604326488     1.007825032230
         H            3.026077099281     0.882249921334     1.329681673512     1.007825032230
         H            4.356397099281    -0.044262078666     0.609375673512     1.007825032230
         H            2.998319099281    -0.884909078666     1.382267673512     1.007825032230
         H           -2.808536900719     0.077584921334     0.332613673512     1.007825032230
         H           -1.122733900719     3.130896921334     0.031131673512     1.007825032230
         H           -2.648655900719    -2.228561078666     0.294755673512     1.007825032230

  Basis Set: AUG-CC-PVTZ
    Blend: AUG-CC-PVTZ
  Basis Set: (AUG-CC-PVTZ AUX)
    Blend: AUG-CC-PVTZ-JKFIT
	 Reference Energy          =    -458.6590720770236658 [Eh]
	 Singles Energy            =      -0.0000000000000000 [Eh]
	 Same-Spin Energy          =      -0.4817188803971729 [Eh]
	 Opposite-Spin Energy      =      -1.5055396043582614 [Eh]
	 Correlation Energy        =      -1.9872584847554342 [Eh]
	 Total Energy              =    -460.6463305617791093 [Eh]

	 ================> DF-SCS-MP2 Energies <==================
	-----------------------------------------------------------
	 SCS Same-Spin Scale       =       0.3333333333333333 [-]
	 SCS Opposite-Spin Scale   =       1.2000000000000000 [-]
	 SCS Same-Spin Energy      =      -0.1605729601323910 [Eh]
	 SCS Opposite-Spin Energy  =      -1.8066475252299137 [Eh]
	 SCS Correlation Energy    =      -1.9672204853623045 [Eh]
	 SCS Total Energy          =    -460.6262925623859701 [Eh]
	-----------------------------------------------------------

  Dipole Moment: [D]
     X:     0.5278      Y:     1.1832      Z:    -0.0171     Total:     1.2957

*** Psi4 exiting successfully. Buy a developer a beer!
