                               Psi4 1.4a3.dev225

  ==> Input File <==

--------------------------------------------------------------------------
#psi4
#
memory 32 gb

molecule  {
0 1
  O       -1.8116000     2.3801270     0.1363720
  O       -1.7799440    -2.3994320     0.1189850
  C        0.9489570    -0.0306590    -0.3689570
  C        2.4429910    -0.0568610    -0.5708560
  C        0.2354480    -1.2220220    -0.2373930
  C        0.2798030     1.1938580    -0.2383990
  C        3.1984060    -0.0265600     0.7613490
  C       -1.0921630     1.2139390     0.0079710
  C       -1.1303196    -1.1694866     0.0086444
  C       -1.8132500     0.0254130     0.1385790
  H        2.7180680    -0.9584190    -1.1301260
  H        2.7446220     0.7994920    -1.1857830
  H        0.7258350    -2.1872220    -0.3369480
  H        0.8309290     2.1284970    -0.3452230
  H        2.9508560     0.8787730     1.3230630
  H        4.2811760    -0.0477390     0.6027570
  H        2.9230980    -0.8883860     1.3756490
  H       -2.8837580     0.0741080     0.3259950
  H       -1.1979550     3.1274200     0.0245130
  H       -2.7238770    -2.2320380     0.2881370
units angstrom
no_reorient  #important for SAPT in psi4, default
symmetry c1  #important for SAPT in psi4, default
}

set PROPERTIES_ORIGIN ["COM"]
properties('MP2/aug-cc-pvtz', properties = ['dipole'])
--------------------------------------------------------------------------

    Molecular point group: c1
  Charge       = 0
  Multiplicity = 1
  Basis Set: AUG-CC-PVTZ
    Blend: AUG-CC-PVTZ
  Basis Set: (AUG-CC-PVTZ AUX)
    Blend: AUG-CC-PVTZ-JKFIT

    Orbital Energies [Eh]
    ---------------------

    Doubly Occupied:

       1A    -20.596316     2A    -20.589365     3A    -11.311810
       4A    -11.307396     5A    -11.252954     6A    -11.233077
       7A    -11.224722     8A    -11.224443     9A    -11.220357
      10A    -11.217064    11A     -1.404432    12A     -1.390956
      13A     -1.152228    14A     -1.065182    15A     -1.002543
      16A     -0.989294    17A     -0.876893    18A     -0.836738
      19A     -0.805782    20A     -0.737403    21A     -0.687695
      22A     -0.673479    23A     -0.663412    24A     -0.611784
      25A     -0.601846    26A     -0.594932    27A     -0.585545
      28A     -0.571987    29A     -0.555311    30A     -0.548967
      31A     -0.523443    32A     -0.523049    33A     -0.488722
      34A     -0.483757    35A     -0.455105    36A     -0.327705
      37A     -0.313401

  @DF-RHF Final Energy:  -458.65892985193318

   => Energetics <=

    Nuclear Repulsion Energy =            507.2425046732806209
    One-Electron Energy =               -1630.5046845015883719
    Two-Electron Energy =                 664.6032499763746273
    Total Energy =                       -458.6589298519331805
  Basis Set: (AUG-CC-PVTZ AUX)
    Blend: AUG-CC-PVTZ-RI
    Molecular point group: c1

    Geometry (in Angstrom), charge = 0, multiplicity = 1:

       Center              X                  Y                   Z               Mass
    ------------   -----------------  -----------------  -----------------  -----------------
         O           -1.738028765052     2.383584748184     0.143288300597    15.994914619570
         O           -1.706372765052    -2.395974251816     0.125901300597    15.994914619570
         C            1.022528234948    -0.027201251816    -0.362040699403    12.000000000000
         C            2.516562234948    -0.053403251816    -0.563939699403    12.000000000000
         C            0.309019234948    -1.218564251816    -0.230476699403    12.000000000000
         C            0.353374234948     1.197315748184    -0.231482699403    12.000000000000
         C            3.271977234948    -0.023102251816     0.768265300597    12.000000000000
         C           -1.018591765052     1.217396748184     0.014887300597    12.000000000000
         C           -1.056748365052    -1.166028851816     0.015560700597    12.000000000000
         C           -1.739678765052     0.028870748184     0.145495300597    12.000000000000
         H            2.791639234948    -0.954961251816    -1.123209699403     1.007825032230
         H            2.818193234948     0.802949748184    -1.178866699403     1.007825032230
         H            0.799406234948    -2.183764251816    -0.330031699403     1.007825032230
         H            0.904500234948     2.131954748184    -0.338306699403     1.007825032230
         H            3.024427234948     0.882230748184     1.329979300597     1.007825032230
         H            4.354747234948    -0.044281251816     0.609673300597     1.007825032230
         H            2.996669234948    -0.884928251816     1.382565300597     1.007825032230
         H           -2.810186765052     0.077565748184     0.332911300597     1.007825032230
         H           -1.124383765052     3.130877748184     0.031429300597     1.007825032230
         H           -2.650305765052    -2.228580251816     0.295053300597     1.007825032230

  Basis Set: AUG-CC-PVTZ
    Blend: AUG-CC-PVTZ
  Basis Set: (AUG-CC-PVTZ AUX)
    Blend: AUG-CC-PVTZ-JKFIT
	 Reference Energy          =    -458.6589298519331805 [Eh]
	 Singles Energy            =      -0.0000000000000000 [Eh]
	 Same-Spin Energy          =      -0.4817795502231794 [Eh]
	 Opposite-Spin Energy      =      -1.5057249653949099 [Eh]
	 Correlation Energy        =      -1.9875045156180893 [Eh]
	 Total Energy              =    -460.6464343675512509 [Eh]

	 ================> DF-SCS-MP2 Energies <==================
	-----------------------------------------------------------
	 SCS Same-Spin Scale       =       0.3333333333333333 [-]
	 SCS Opposite-Spin Scale   =       1.2000000000000000 [-]
	 SCS Same-Spin Energy      =      -0.1605931834077264 [Eh]
	 SCS Opposite-Spin Energy  =      -1.8068699584738916 [Eh]
	 SCS Correlation Energy    =      -1.9674631418816182 [Eh]
	 SCS Total Energy          =    -460.6263929938148181 [Eh]
	-----------------------------------------------------------

  Dipole Moment: [D]
     X:     0.6059      Y:     1.3450      Z:    -0.0285     Total:     1.4755

*** Psi4 exiting successfully. Buy a developer a beer!
