                               Psi4 1.3.2 release

  ==> Input File <==

--------------------------------------------------------------------------
#psi4
#
memory 32 gb

molecule  {
0 1
  O        1.7627890     2.3683800    -0.1458810
  O        1.6754140    -2.4069960    -0.1279020
  C       -1.0215720    -0.0077180     0.3641480
  C       -2.5139530    -0.0194410     0.5634370
  C       -0.3230660    -1.2073880     0.2343750
  C       -0.3370590     1.2052280     0.2348720
  C       -3.2735700    -0.0197480    -0.7643280
  C        1.0346870     1.2106680    -0.0181020
  C        1.0480560    -1.1910380    -0.0190010
  C        1.7368580     0.0147850    -0.1457440
  H       -2.7927850    -0.9030380     1.1483340
  H       -2.8082890     0.8538600     1.1573130
  H       -0.8312370    -2.1635460     0.3309200
  H       -0.8789600     2.1456520     0.3351900
  H       -3.0230990     0.8672620    -1.3527740
  H       -4.3574070    -0.0294260    -0.6053230
  H       -3.0076490    -0.8981260    -1.3586750
  H        2.8074370     0.0467670    -0.3362510
  H        1.1590650     3.1223080    -0.0299710
  H        2.6215300    -2.2543830    -0.2976190
units angstrom
no_reorient  #important for SAPT in psi4, default
symmetry c1  #important for SAPT in psi4, default
}

set PROPERTIES_ORIGIN ["COM"]
properties('MP2/aug-cc-pvtz', properties = ['dipole'])
--------------------------------------------------------------------------

    Molecular point group: c1
  Charge       = 0
  Multiplicity = 1
  Basis Set: AUG-CC-PVTZ
    Blend: AUG-CC-PVTZ
  Basis Set: (AUG-CC-PVTZ AUX)
    Blend: AUG-CC-PVTZ-JKFIT

    Orbital Energies [Eh]
    ---------------------

    Doubly Occupied:

       1A    -20.595700     2A    -20.593319     3A    -11.310506
       4A    -11.308788     5A    -11.251376     6A    -11.232106
       7A    -11.223964     8A    -11.222731     9A    -11.219732
      10A    -11.215938    11A     -1.405390    12A     -1.401864
      13A     -1.150418    14A     -1.064009    15A     -1.001352
      16A     -0.988015    17A     -0.876645    18A     -0.836689
      19A     -0.808156    20A     -0.739823    21A     -0.687618
      22A     -0.675238    23A     -0.666050    24A     -0.611942
      25A     -0.602363    26A     -0.595275    27A     -0.587481
      28A     -0.576473    29A     -0.552835    30A     -0.549104
      31A     -0.523580    32A     -0.521174    33A     -0.487786
      34A     -0.482714    35A     -0.453964    36A     -0.325928
      37A     -0.311336

  @DF-RHF Final Energy:  -458.66020421573631

   => Energetics <=

    Nuclear Repulsion Energy =            507.5053158739386845
    One-Electron Energy =               -1631.0162726866967660
    Two-Electron Energy =                 664.8507525970219376
    Total Energy =                       -458.6602042157362575
  Basis Set: (AUG-CC-PVTZ AUX)
    Blend: AUG-CC-PVTZ-RI
    Molecular point group: c1

    Geometry (in Angstrom), charge = 0, multiplicity = 1:

       Center              X                  Y                   Z               Mass
    ------------   -----------------  -----------------  -----------------  -----------------
         O            1.762789040461     2.368379947420    -0.145880985225    15.994914619570
         O            1.675414040461    -2.406996052580    -0.127901985225    15.994914619570
         C           -1.021571959539    -0.007718052580     0.364148014775    12.000000000000
         C           -2.513952959539    -0.019441052580     0.563437014775    12.000000000000
         C           -0.323065959539    -1.207388052580     0.234375014775    12.000000000000
         C           -0.337058959539     1.205227947420     0.234872014775    12.000000000000
         C           -3.273569959539    -0.019748052580    -0.764327985225    12.000000000000
         C            1.034687040461     1.210667947420    -0.018101985225    12.000000000000
         C            1.048056040461    -1.191038052580    -0.019000985225    12.000000000000
         C            1.736858040461     0.014784947420    -0.145743985225    12.000000000000
         H           -2.792784959539    -0.903038052580     1.148334014775     1.007825032230
         H           -2.808288959539     0.853859947420     1.157313014775     1.007825032230
         H           -0.831236959539    -2.163546052580     0.330920014775     1.007825032230
         H           -0.878959959539     2.145651947420     0.335190014775     1.007825032230
         H           -3.023098959539     0.867261947420    -1.352773985225     1.007825032230
         H           -4.357406959539    -0.029426052580    -0.605322985225     1.007825032230
         H           -3.007648959539    -0.898126052580    -1.358674985225     1.007825032230
         H            2.807437040461     0.046766947420    -0.336250985225     1.007825032230
         H            1.159065040461     3.122307947420    -0.029970985225     1.007825032230
         H            2.621530040461    -2.254383052580    -0.297618985225     1.007825032230

  Basis Set: AUG-CC-PVTZ
    Blend: AUG-CC-PVTZ
  Basis Set: (AUG-CC-PVTZ AUX)
    Blend: AUG-CC-PVTZ-JKFIT
	 Reference Energy          =    -458.6602042157363144 [Eh]
	 Singles Energy            =      -0.0000000000000000 [Eh]
	 Same-Spin Energy          =      -0.4817313750313841 [Eh]
	 Opposite-Spin Energy      =      -1.5052060368567073 [Eh]
	 Correlation Energy        =      -1.9869374118880914 [Eh]
	 Total Energy              =    -460.6471416276244213 [Eh]

	 ================> DF-SCS-MP2 Energies <==================
	-----------------------------------------------------------
	 SCS Same-Spin Scale       =       0.3333333333333333 [-]
	 SCS Opposite-Spin Scale   =       1.2000000000000000 [-]
	 SCS Same-Spin Energy      =      -0.1605771250104613 [Eh]
	 SCS Opposite-Spin Energy  =      -1.8062472442280486 [Eh]
	 SCS Correlation Energy    =      -1.9668243692385099 [Eh]
	 SCS Total Energy          =    -460.6270285849748234 [Eh]
	-----------------------------------------------------------

  Dipole Moment: [D]
     X:    -0.4981      Y:     1.2211      Z:     0.0094     Total:     1.3188

*** Psi4 exiting successfully. Buy a developer a beer!
