                               Psi4 1.3.2 release

  ==> Input File <==

--------------------------------------------------------------------------
#psi4
#
memory 32 gb

molecule  {
0 1
  O        1.7627890     2.3683800    -0.1458810
  O        1.6754140    -2.4069960    -0.1279020
  C       -0.9795402    -0.0312905     0.3563144
  C       -2.5139530    -0.0194410     0.5634370
  C       -0.3230660    -1.2073880     0.2343750
  C       -0.3370590     1.2052280     0.2348720
  C       -3.2735700    -0.0197480    -0.7643280
  C        1.0346870     1.2106680    -0.0181020
  C        1.0480560    -1.1910380    -0.0190010
  C        1.7368580     0.0147850    -0.1457440
  H       -2.7927850    -0.9030380     1.1483340
  H       -2.8082890     0.8538600     1.1573130
  H       -0.8312370    -2.1635460     0.3309200
  H       -0.8463723     2.1643125     0.3290772
  H       -3.0230990     0.8672620    -1.3527740
  H       -4.3574070    -0.0294260    -0.6053230
  H       -3.0076490    -0.8981260    -1.3586750
  H        2.8074370     0.0467670    -0.3362510
  H        1.1590650     3.1223080    -0.0299710
  H        2.6215300    -2.2543830    -0.2976190
units angstrom
no_reorient  #important for SAPT in psi4, default
symmetry c1  #important for SAPT in psi4, default
}

set PROPERTIES_ORIGIN ["COM"]
properties('MP2/aug-cc-pvtz', properties = ['dipole'])
--------------------------------------------------------------------------

    Molecular point group: c1
  Charge       = 0
  Multiplicity = 1
  Basis Set: AUG-CC-PVTZ
    Blend: AUG-CC-PVTZ
  Basis Set: (AUG-CC-PVTZ AUX)
    Blend: AUG-CC-PVTZ-JKFIT

    Orbital Energies [Eh]
    ---------------------

    Doubly Occupied:

       1A    -20.595408     2A    -20.594346     3A    -11.310001
       4A    -11.309401     5A    -11.248353     6A    -11.232759
       7A    -11.223557     8A    -11.221756     9A    -11.218306
      10A    -11.213102    11A     -1.405521    12A     -1.402594
      13A     -1.153941    14A     -1.058688    15A     -1.005250
      16A     -0.988593    17A     -0.872311    18A     -0.838582
      19A     -0.809545    20A     -0.737687    21A     -0.690584
      22A     -0.676044    23A     -0.664913    24A     -0.607884
      25A     -0.602389    26A     -0.593838    27A     -0.588606
      28A     -0.576815    29A     -0.557400    30A     -0.547343
      31A     -0.527871    32A     -0.519956    33A     -0.488556
      34A     -0.470305    35A     -0.457584    36A     -0.329198
      37A     -0.312547

  @DF-RHF Final Energy:  -458.65821421945822

   => Energetics <=

    Nuclear Repulsion Energy =            507.8855215367255482
    One-Electron Energy =               -1631.7843975251560096
    Two-Electron Energy =                 665.2406617689723589
    Total Energy =                       -458.6582142194581593
  Basis Set: (AUG-CC-PVTZ AUX)
    Blend: AUG-CC-PVTZ-RI
    Molecular point group: c1

    Geometry (in Angstrom), charge = 0, multiplicity = 1:

       Center              X                  Y                   Z               Mass
    ------------   -----------------  -----------------  -----------------  -----------------
         O            1.758898030305     2.370292507381    -0.145155518244    15.994914619570
         O            1.671523030305    -2.405083492619    -0.127176518244    15.994914619570
         C           -0.983431169695    -0.029377992619     0.357039881756    12.000000000000
         C           -2.517843969695    -0.017528492619     0.564162481756    12.000000000000
         C           -0.326956969695    -1.205475492619     0.235100481756    12.000000000000
         C           -0.340949969695     1.207140507381     0.235597481756    12.000000000000
         C           -3.277460969695    -0.017835492619    -0.763602518244    12.000000000000
         C            1.030796030305     1.212580507381    -0.017376518244    12.000000000000
         C            1.044165030305    -1.189125492619    -0.018275518244    12.000000000000
         C            1.732967030305     0.016697507381    -0.145018518244    12.000000000000
         H           -2.796675969695    -0.901125492619     1.149059481756     1.007825032230
         H           -2.812179969695     0.855772507381     1.158038481756     1.007825032230
         H           -0.835127969695    -2.161633492619     0.331645481756     1.007825032230
         H           -0.850263269695     2.166225007381     0.329802681756     1.007825032230
         H           -3.026989969695     0.869174507381    -1.352048518244     1.007825032230
         H           -4.361297969695    -0.027513492619    -0.604597518244     1.007825032230
         H           -3.011539969695    -0.896213492619    -1.357949518244     1.007825032230
         H            2.803546030305     0.048679507381    -0.335525518244     1.007825032230
         H            1.155174030305     3.124220507381    -0.029245518244     1.007825032230
         H            2.617639030305    -2.252470492619    -0.296893518244     1.007825032230

  Basis Set: AUG-CC-PVTZ
    Blend: AUG-CC-PVTZ
  Basis Set: (AUG-CC-PVTZ AUX)
    Blend: AUG-CC-PVTZ-JKFIT
	 Reference Energy          =    -458.6582142194582161 [Eh]
	 Singles Energy            =      -0.0000000000000000 [Eh]
	 Same-Spin Energy          =      -0.4813031981326271 [Eh]
	 Opposite-Spin Energy      =      -1.5046802802144539 [Eh]
	 Correlation Energy        =      -1.9859834783470809 [Eh]
	 Total Energy              =    -460.6441976978052821 [Eh]

	 ================> DF-SCS-MP2 Energies <==================
	-----------------------------------------------------------
	 SCS Same-Spin Scale       =       0.3333333333333333 [-]
	 SCS Opposite-Spin Scale   =       1.2000000000000000 [-]
	 SCS Same-Spin Energy      =      -0.1604343993775423 [Eh]
	 SCS Opposite-Spin Energy  =      -1.8056163362573445 [Eh]
	 SCS Correlation Energy    =      -1.9660507356348869 [Eh]
	 SCS Total Energy          =    -460.6242649550931105 [Eh]
	-----------------------------------------------------------

  Dipole Moment: [D]
     X:    -0.4276      Y:     1.1946      Z:     0.0079     Total:     1.2688

*** Psi4 exiting successfully. Buy a developer a beer!
