                               Psi4 1.3.2 release

  ==> Input File <==

--------------------------------------------------------------------------
#psi4
#
memory 32 gb

molecule  {
0 1
  O        1.7627890     2.3683800    -0.1458810
  O        1.6754140    -2.4069960    -0.1279020
  C       -1.0215720    -0.0077180     0.3641480
  C       -2.5139530    -0.0194410     0.5634370
  C       -0.3230660    -1.2073880     0.2343750
  C       -0.3370590     1.2052280     0.2348720
  C       -3.2735700    -0.0197480    -0.7643280
  C        1.0330818     1.1376583    -0.0178356
  C        1.0480560    -1.1910380    -0.0190010
  C        1.7368580     0.0147850    -0.1457440
  H       -2.7927850    -0.9030380     1.1483340
  H       -2.8082890     0.8538600     1.1573130
  H       -0.8312370    -2.1635460     0.3309200
  H       -0.9266212     2.1155204     0.3439674
  H       -3.0230990     0.8672620    -1.3527740
  H       -4.3574070    -0.0294260    -0.6053230
  H       -3.0076490    -0.8981260    -1.3586750
  H        2.8074370     0.0467670    -0.3362510
  H        1.1590650     3.1223080    -0.0299710
  H        2.6215300    -2.2543830    -0.2976190
units angstrom
no_reorient  #important for SAPT in psi4, default
symmetry c1  #important for SAPT in psi4, default
}

set PROPERTIES_ORIGIN ["COM"]
properties('MP2/aug-cc-pvtz', properties = ['dipole'])
--------------------------------------------------------------------------

    Molecular point group: c1
  Charge       = 0
  Multiplicity = 1
  Basis Set: AUG-CC-PVTZ
    Blend: AUG-CC-PVTZ
  Basis Set: (AUG-CC-PVTZ AUX)
    Blend: AUG-CC-PVTZ-JKFIT

    Orbital Energies [Eh]
    ---------------------

    Doubly Occupied:

       1A    -20.596170     2A    -20.581934     3A    -11.312113
       4A    -11.306228     5A    -11.251409     6A    -11.233037
       7A    -11.224644     8A    -11.223223     9A    -11.220879
      10A    -11.217976    11A     -1.405550    12A     -1.372141
      13A     -1.158529    14A     -1.072068    15A     -1.002841
      16A     -0.994052    17A     -0.878246    18A     -0.835887
      19A     -0.805789    20A     -0.734973    21A     -0.689711
      22A     -0.670096    23A     -0.666763    24A     -0.611585
      25A     -0.599847    26A     -0.596326    27A     -0.582726
      28A     -0.565004    29A     -0.556012    30A     -0.549917
      31A     -0.529822    32A     -0.520302    33A     -0.489105
      34A     -0.480411    35A     -0.457984    36A     -0.335352
      37A     -0.313345

  @DF-RHF Final Energy:  -458.65201514674476

   => Energetics <=

    Nuclear Repulsion Energy =            508.0535842450004793
    One-Electron Energy =               -1632.1272007011989444
    Two-Electron Energy =                 665.4216013094537630
    Total Energy =                       -458.6520151467448159
  Basis Set: (AUG-CC-PVTZ AUX)
    Blend: AUG-CC-PVTZ-RI
    Molecular point group: c1

    Geometry (in Angstrom), charge = 0, multiplicity = 1:

       Center              X                  Y                   Z               Mass
    ------------   -----------------  -----------------  -----------------  -----------------
         O            1.763276456167     2.374945431517    -0.145968209466    15.994914619570
         O            1.675901456167    -2.400430568483    -0.127989209466    15.994914619570
         C           -1.021084543833    -0.001152568483     0.364060790534    12.000000000000
         C           -2.513465543833    -0.012875568483     0.563349790534    12.000000000000
         C           -0.322578543833    -1.200822568483     0.234287790534    12.000000000000
         C           -0.336571543833     1.211793431517     0.234784790534    12.000000000000
         C           -3.273082543833    -0.013182568483    -0.764415209466    12.000000000000
         C            1.033569256167     1.144223731517    -0.017922809466    12.000000000000
         C            1.048543456167    -1.184472568483    -0.019088209466    12.000000000000
         C            1.737345456167     0.021350431517    -0.145831209466    12.000000000000
         H           -2.792297543833    -0.896472568483     1.148246790534     1.007825032230
         H           -2.807801543833     0.860425431517     1.157225790534     1.007825032230
         H           -0.830749543833    -2.156980568483     0.330832790534     1.007825032230
         H           -0.926133743833     2.122085831517     0.343880190534     1.007825032230
         H           -3.022611543833     0.873827431517    -1.352861209466     1.007825032230
         H           -4.356919543833    -0.022860568483    -0.605410209466     1.007825032230
         H           -3.007161543833    -0.891560568483    -1.358762209466     1.007825032230
         H            2.807924456167     0.053332431517    -0.336338209466     1.007825032230
         H            1.159552456167     3.128873431517    -0.030058209466     1.007825032230
         H            2.622017456167    -2.247817568483    -0.297706209466     1.007825032230

  Basis Set: AUG-CC-PVTZ
    Blend: AUG-CC-PVTZ
  Basis Set: (AUG-CC-PVTZ AUX)
    Blend: AUG-CC-PVTZ-JKFIT
	 Reference Energy          =    -458.6520151467447590 [Eh]
	 Singles Energy            =      -0.0000000000000000 [Eh]
	 Same-Spin Energy          =      -0.4818996072870786 [Eh]
	 Opposite-Spin Energy      =      -1.5060126818530488 [Eh]
	 Correlation Energy        =      -1.9879122891401275 [Eh]
	 Total Energy              =    -460.6399274358848857 [Eh]

	 ================> DF-SCS-MP2 Energies <==================
	-----------------------------------------------------------
	 SCS Same-Spin Scale       =       0.3333333333333333 [-]
	 SCS Opposite-Spin Scale   =       1.2000000000000000 [-]
	 SCS Same-Spin Energy      =      -0.1606332024290262 [Eh]
	 SCS Opposite-Spin Energy  =      -1.8072152182236585 [Eh]
	 SCS Correlation Energy    =      -1.9678484206526847 [Eh]
	 SCS Total Energy          =    -460.6198635673974309 [Eh]
	-----------------------------------------------------------

  Dipole Moment: [D]
     X:    -0.6766      Y:     0.8020      Z:     0.0330     Total:     1.0498

*** Psi4 exiting successfully. Buy a developer a beer!
