                               Psi4 1.3.2 release

  ==> Input File <==

--------------------------------------------------------------------------
#psi4
#
memory 32 gb

molecule  {
0 1
  O        1.8213382     2.3281072    -0.1569063
  O        1.6754140    -2.4069960    -0.1279020
  C       -1.0215720    -0.0077180     0.3641480
  C       -2.5139530    -0.0194410     0.5634370
  C       -0.3230660    -1.2073880     0.2343750
  C       -0.3349723     1.1322343     0.2340766
  C       -3.2735700    -0.0197480    -0.7643280
  C        1.0346870     1.2106680    -0.0181020
  C        1.0480560    -1.1910380    -0.0190010
  C        1.7368580     0.0147850    -0.1457440
  H       -2.7927850    -0.9030380     1.1483340
  H       -2.8082890     0.8538600     1.1573130
  H       -0.8312370    -2.1635460     0.3309200
  H       -0.8789600     2.1456520     0.3351900
  H       -3.0230990     0.8672620    -1.3527740
  H       -4.3574070    -0.0294260    -0.6053230
  H       -3.0076490    -0.8981260    -1.3586750
  H        2.8074370     0.0467670    -0.3362510
  H        1.1590650     3.1223080    -0.0299710
  H        2.6215300    -2.2543830    -0.2976190
units angstrom
no_reorient  #important for SAPT in psi4, default
symmetry c1  #important for SAPT in psi4, default
}

set PROPERTIES_ORIGIN ["COM"]
properties('MP2/aug-cc-pvtz', properties = ['dipole'])
--------------------------------------------------------------------------

    Molecular point group: c1
  Charge       = 0
  Multiplicity = 1
  Basis Set: AUG-CC-PVTZ
    Blend: AUG-CC-PVTZ
  Basis Set: (AUG-CC-PVTZ AUX)
    Blend: AUG-CC-PVTZ-JKFIT

    Orbital Energies [Eh]
    ---------------------

    Doubly Occupied:

       1A    -20.607562     2A    -20.590895     3A    -11.309779
       4A    -11.305248     5A    -11.243697     6A    -11.232656
       7A    -11.225778     8A    -11.222227     9A    -11.219755
      10A    -11.214480    11A     -1.400921    12A     -1.396778
      13A     -1.157893    14A     -1.064275    15A     -0.999123
      16A     -0.990816    17A     -0.875610    18A     -0.830491
      19A     -0.809160    20A     -0.742163    21A     -0.684362
      22A     -0.664445    23A     -0.658174    24A     -0.614135
      25A     -0.603196    26A     -0.594937    27A     -0.587865
      28A     -0.576101    29A     -0.553577    30A     -0.549160
      31A     -0.522942    32A     -0.511122    33A     -0.489668
      34A     -0.480589    35A     -0.458873    36A     -0.329761
      37A     -0.309792

  @DF-RHF Final Energy:  -458.64209072661362

   => Energetics <=

    Nuclear Repulsion Energy =            508.4013337210133727
    One-Electron Energy =               -1632.8308390552556375
    Two-Electron Energy =                 665.7874146076287616
    Total Energy =                       -458.6420907266135600
  Basis Set: (AUG-CC-PVTZ AUX)
    Blend: AUG-CC-PVTZ-RI
    Molecular point group: c1

    Geometry (in Angstrom), charge = 0, multiplicity = 1:

       Center              X                  Y                   Z               Mass
    ------------   -----------------  -----------------  -----------------  -----------------
         O            1.814374068452     2.339116820346    -0.155559894859    15.994914619570
         O            1.668449868452    -2.395986379654    -0.126555594859    15.994914619570
         C           -1.028536131548     0.003291620346     0.365494405141    12.000000000000
         C           -2.520917131548    -0.008431379654     0.564783405141    12.000000000000
         C           -0.330030131548    -1.196378379654     0.235721405141    12.000000000000
         C           -0.341936431548     1.143243920346     0.235423005141    12.000000000000
         C           -3.280534131548    -0.008738379654    -0.762981594859    12.000000000000
         C            1.027722868452     1.221677620346    -0.016755594859    12.000000000000
         C            1.041091868452    -1.180028379654    -0.017654594859    12.000000000000
         C            1.729893868452     0.025794620346    -0.144397594859    12.000000000000
         H           -2.799749131548    -0.892028379654     1.149680405141     1.007825032230
         H           -2.815253131548     0.864869620346     1.158659405141     1.007825032230
         H           -0.838201131548    -2.152536379654     0.332266405141     1.007825032230
         H           -0.885924131548     2.156661620346     0.336536405141     1.007825032230
         H           -3.030063131548     0.878271620346    -1.351427594859     1.007825032230
         H           -4.364371131548    -0.018416379654    -0.603976594859     1.007825032230
         H           -3.014613131548    -0.887116379654    -1.357328594859     1.007825032230
         H            2.800472868452     0.057776620346    -0.334904594859     1.007825032230
         H            1.152100868452     3.133317620346    -0.028624594859     1.007825032230
         H            2.614565868452    -2.243373379654    -0.296272594859     1.007825032230

  Basis Set: AUG-CC-PVTZ
    Blend: AUG-CC-PVTZ
  Basis Set: (AUG-CC-PVTZ AUX)
    Blend: AUG-CC-PVTZ-JKFIT
	 Reference Energy          =    -458.6420907266136169 [Eh]
	 Singles Energy            =      -0.0000000000000000 [Eh]
	 Same-Spin Energy          =      -0.4834729342737001 [Eh]
	 Opposite-Spin Energy      =      -1.5087694584528457 [Eh]
	 Correlation Energy        =      -1.9922423927265458 [Eh]
	 Total Energy              =    -460.6343331193401696 [Eh]

	 ================> DF-SCS-MP2 Energies <==================
	-----------------------------------------------------------
	 SCS Same-Spin Scale       =       0.3333333333333333 [-]
	 SCS Opposite-Spin Scale   =       1.2000000000000000 [-]
	 SCS Same-Spin Energy      =      -0.1611576447579000 [Eh]
	 SCS Opposite-Spin Energy  =      -1.8105233501434148 [Eh]
	 SCS Correlation Energy    =      -1.9716809949013148 [Eh]
	 SCS Total Energy          =    -460.6137717215149223 [Eh]
	-----------------------------------------------------------

  Dipole Moment: [D]
     X:    -0.5208      Y:     1.3326      Z:     0.0107     Total:     1.4308

*** Psi4 exiting successfully. Buy a developer a beer!
