                               Psi4 1.3.2 release

  ==> Input File <==

--------------------------------------------------------------------------
#psi4
#
memory 32 gb

molecule  {
0 1
  O        1.7627890     2.3683800    -0.1458810
  O        1.6754140    -2.4069960    -0.1279020
  C       -1.0215720    -0.0077180     0.3641480
  C       -2.5139530    -0.0194410     0.5634370
  C       -0.3230660    -1.2073880     0.2343750
  C       -0.3370590     1.2052280     0.2348720
  C       -3.2735700    -0.0197480    -0.7643280
  C        1.0346870     1.2106680    -0.0181020
  C        1.1394686    -1.3682157    -0.0348690
  C        1.7368580     0.0147850    -0.1457440
  H       -2.7927850    -0.9030380     1.1483340
  H       -2.8082890     0.8538600     1.1573130
  H       -0.8312370    -2.1635460     0.3309200
  H       -0.8789600     2.1456520     0.3351900
  H       -3.0230990     0.8672620    -1.3527740
  H       -4.3574070    -0.0294260    -0.6053230
  H       -3.0076490    -0.8981260    -1.3586750
  H        2.8074370     0.0467670    -0.3362510
  H        1.1590650     3.1223080    -0.0299710
  H        2.6215300    -2.2543830    -0.2976190
units angstrom
no_reorient  #important for SAPT in psi4, default
symmetry c1  #important for SAPT in psi4, default
}

set PROPERTIES_ORIGIN ["COM"]
properties('MP2/aug-cc-pvtz', properties = ['dipole'])
--------------------------------------------------------------------------

    Molecular point group: c1
  Charge       = 0
  Multiplicity = 1
  Basis Set: AUG-CC-PVTZ
    Blend: AUG-CC-PVTZ
  Basis Set: (AUG-CC-PVTZ AUX)
    Blend: AUG-CC-PVTZ-JKFIT

    Orbital Energies [Eh]
    ---------------------

    Doubly Occupied:

       1A    -20.641874     2A    -20.588627     3A    -11.333704
       4A    -11.303849     5A    -11.245169     6A    -11.226627
       7A    -11.220552     8A    -11.214272     9A    -11.212565
      10A    -11.207557    11A     -1.540423    12A     -1.397087
      13A     -1.127947    14A     -1.047665    15A     -0.987647
      16A     -0.972933    17A     -0.889370    18A     -0.849761
      19A     -0.821621    20A     -0.752875    21A     -0.716108
      22A     -0.684203    23A     -0.671340    24A     -0.659174
      25A     -0.611778    26A     -0.599564    27A     -0.589963
      28A     -0.580411    29A     -0.544299    30A     -0.533054
      31A     -0.518703    32A     -0.498626    33A     -0.481499
      34A     -0.452833    35A     -0.438501    36A     -0.313690
      37A     -0.284385

  @DF-RHF Final Energy:  -458.60002881079316

   => Energetics <=

    Nuclear Repulsion Energy =            506.5310695369768723
    One-Electron Energy =               -1628.7416887444076110
    Two-Electron Energy =                 663.6105903966374626
    Total Energy =                       -458.6000288107932192
  Basis Set: (AUG-CC-PVTZ AUX)
    Blend: AUG-CC-PVTZ-RI
    Molecular point group: c1

    Geometry (in Angstrom), charge = 0, multiplicity = 1:

       Center              X                  Y                   Z               Mass
    ------------   -----------------  -----------------  -----------------  -----------------
         O            1.754844038231     2.383779107072    -0.144501839512    15.994914619570
         O            1.667469038231    -2.391596892928    -0.126522839512    15.994914619570
         C           -1.029516961769     0.007681107072     0.365527160488    12.000000000000
         C           -2.521897961769    -0.004041892928     0.564816160488    12.000000000000
         C           -0.331010961769    -1.191988892928     0.235754160488    12.000000000000
         C           -0.345003961769     1.220627107072     0.236251160488    12.000000000000
         C           -3.281514961769    -0.004348892928    -0.762948839512    12.000000000000
         C            1.026742038231     1.226067107072    -0.016722839512    12.000000000000
         C            1.131523638231    -1.352816592928    -0.033489839512    12.000000000000
         C            1.728913038231     0.030184107072    -0.144364839512    12.000000000000
         H           -2.800729961769    -0.887638892928     1.149713160488     1.007825032230
         H           -2.816233961769     0.869259107072     1.158692160488     1.007825032230
         H           -0.839181961769    -2.148146892928     0.332299160488     1.007825032230
         H           -0.886904961769     2.161051107072     0.336569160488     1.007825032230
         H           -3.031043961769     0.882661107072    -1.351394839512     1.007825032230
         H           -4.365351961769    -0.014026892928    -0.603943839512     1.007825032230
         H           -3.015593961769    -0.882726892928    -1.357295839512     1.007825032230
         H            2.799492038231     0.062166107072    -0.334871839512     1.007825032230
         H            1.151120038231     3.137707107072    -0.028591839512     1.007825032230
         H            2.613585038231    -2.238983892928    -0.296239839512     1.007825032230

  Basis Set: AUG-CC-PVTZ
    Blend: AUG-CC-PVTZ
  Basis Set: (AUG-CC-PVTZ AUX)
    Blend: AUG-CC-PVTZ-JKFIT
	 Reference Energy          =    -458.6000288107931624 [Eh]
	 Singles Energy            =      -0.0000000000000000 [Eh]
	 Same-Spin Energy          =      -0.4820208441512272 [Eh]
	 Opposite-Spin Energy      =      -1.5045651231581221 [Eh]
	 Correlation Energy        =      -1.9865859673093493 [Eh]
	 Total Energy              =    -460.5866147781025006 [Eh]

	 ================> DF-SCS-MP2 Energies <==================
	-----------------------------------------------------------
	 SCS Same-Spin Scale       =       0.3333333333333333 [-]
	 SCS Opposite-Spin Scale   =       1.2000000000000000 [-]
	 SCS Same-Spin Energy      =      -0.1606736147170757 [Eh]
	 SCS Opposite-Spin Energy  =      -1.8054781477897464 [Eh]
	 SCS Correlation Energy    =      -1.9661517625068221 [Eh]
	 SCS Total Energy          =    -460.5661805732999596 [Eh]
	-----------------------------------------------------------

  Dipole Moment: [D]
     X:     0.3925      Y:    -0.2338      Z:    -0.1227     Total:     0.4730

*** Psi4 exiting successfully. Buy a developer a beer!
