                               Psi4 1.3.2 release

  ==> Input File <==

--------------------------------------------------------------------------
#psi4
#
memory 32 gb

molecule  {
0 1
  O        1.7627890     2.3683800    -0.1458810
  O        1.6754140    -2.4069960    -0.1279020
  C       -1.0215720    -0.0077180     0.3641480
  C       -2.5139530    -0.0194410     0.5634370
  C       -0.3230660    -1.2073880     0.2343750
  C       -0.3370590     1.2052280     0.2348720
  C       -3.2735700    -0.0197480    -0.7643280
  C        0.9816799     1.1263845    -0.0087995
  C        1.0480560    -1.1910380    -0.0190010
  C        1.7368580     0.0147850    -0.1457440
  H       -2.7927850    -0.9030380     1.1483340
  H       -2.8082890     0.8538600     1.1573130
  H       -0.8312370    -2.1635460     0.3309200
  H       -0.8789600     2.1456520     0.3351900
  H       -3.0230990     0.8672620    -1.3527740
  H       -4.3574070    -0.0294260    -0.6053230
  H       -3.0076490    -0.8981260    -1.3586750
  H        2.8074370     0.0467670    -0.3362510
  H        1.1590650     3.1223080    -0.0299710
  H        2.6215300    -2.2543830    -0.2976190
units angstrom
no_reorient  #important for SAPT in psi4, default
symmetry c1  #important for SAPT in psi4, default
}

set PROPERTIES_ORIGIN ["COM"]
properties('MP2/aug-cc-pvtz', properties = ['dipole'])
--------------------------------------------------------------------------

    Molecular point group: c1
  Charge       = 0
  Multiplicity = 1
  Basis Set: AUG-CC-PVTZ
    Blend: AUG-CC-PVTZ
  Basis Set: (AUG-CC-PVTZ AUX)
    Blend: AUG-CC-PVTZ-JKFIT

    Orbital Energies [Eh]
    ---------------------

    Doubly Occupied:

       1A    -20.596073     2A    -20.576272     3A    -11.312077
       4A    -11.302537     5A    -11.254507     6A    -11.234327
       7A    -11.225564     8A    -11.222435     9A    -11.222018
      10A    -11.220659    11A     -1.405659    12A     -1.357356
      13A     -1.163538    14A     -1.071154    15A     -1.010655
      16A     -0.994862    17A     -0.882156    18A     -0.831671
      19A     -0.806439    20A     -0.733560    21A     -0.693699
      22A     -0.670876    23A     -0.654260    24A     -0.613092
      25A     -0.600065    26A     -0.596743    27A     -0.579719
      28A     -0.563608    29A     -0.556137    30A     -0.549754
      31A     -0.530722    32A     -0.519866    33A     -0.490477
      34A     -0.482531    35A     -0.460278    36A     -0.332625
      37A     -0.321457

  @DF-RHF Final Energy:  -458.64776528704459

   => Energetics <=

    Nuclear Repulsion Energy =            508.3659699247063486
    One-Electron Energy =               -1632.7486150612778601
    Two-Electron Energy =                 665.7348798495268056
    Total Energy =                       -458.6477652870446491
  Basis Set: (AUG-CC-PVTZ AUX)
    Blend: AUG-CC-PVTZ-RI
    Molecular point group: c1

    Geometry (in Angstrom), charge = 0, multiplicity = 1:

       Center              X                  Y                   Z               Mass
    ------------   -----------------  -----------------  -----------------  -----------------
         O            1.767396080713     2.375705333586    -0.146689499404    15.994914619570
         O            1.680021080713    -2.399670666414    -0.128710499404    15.994914619570
         C           -1.016964919287    -0.000392666414     0.363339500596    12.000000000000
         C           -2.509345919287    -0.012115666414     0.562628500596    12.000000000000
         C           -0.318458919287    -1.200062666414     0.233566500596    12.000000000000
         C           -0.332451919287     1.212553333586     0.234063500596    12.000000000000
         C           -3.268962919287    -0.012422666414    -0.765136499404    12.000000000000
         C            0.986286980713     1.133709833586    -0.009607999404    12.000000000000
         C            1.052663080713    -1.183712666414    -0.019809499404    12.000000000000
         C            1.741465080713     0.022110333586    -0.146552499404    12.000000000000
         H           -2.788177919287    -0.895712666414     1.147525500596     1.007825032230
         H           -2.803681919287     0.861185333586     1.156504500596     1.007825032230
         H           -0.826629919287    -2.156220666414     0.330111500596     1.007825032230
         H           -0.874352919287     2.152977333586     0.334381500596     1.007825032230
         H           -3.018491919287     0.874587333586    -1.353582499404     1.007825032230
         H           -4.352799919287    -0.022100666414    -0.606131499404     1.007825032230
         H           -3.003041919287    -0.890800666414    -1.359483499404     1.007825032230
         H            2.812044080713     0.054092333586    -0.337059499404     1.007825032230
         H            1.163672080713     3.129633333586    -0.030779499404     1.007825032230
         H            2.626137080713    -2.247057666414    -0.298427499404     1.007825032230

  Basis Set: AUG-CC-PVTZ
    Blend: AUG-CC-PVTZ
  Basis Set: (AUG-CC-PVTZ AUX)
    Blend: AUG-CC-PVTZ-JKFIT
	 Reference Energy          =    -458.6477652870445922 [Eh]
	 Singles Energy            =      -0.0000000000000000 [Eh]
	 Same-Spin Energy          =      -0.4821504527946413 [Eh]
	 Opposite-Spin Energy      =      -1.5068016525285870 [Eh]
	 Correlation Energy        =      -1.9889521053232282 [Eh]
	 Total Energy              =    -460.6367173923678138 [Eh]

	 ================> DF-SCS-MP2 Energies <==================
	-----------------------------------------------------------
	 SCS Same-Spin Scale       =       0.3333333333333333 [-]
	 SCS Opposite-Spin Scale   =       1.2000000000000000 [-]
	 SCS Same-Spin Energy      =      -0.1607168175982138 [Eh]
	 SCS Opposite-Spin Energy  =      -1.8081619830343043 [Eh]
	 SCS Correlation Energy    =      -1.9688788006325182 [Eh]
	 SCS Total Energy          =    -460.6166440876771162 [Eh]
	-----------------------------------------------------------

  Dipole Moment: [D]
     X:    -0.8251      Y:     0.6287      Z:     0.0566     Total:     1.0388

*** Psi4 exiting successfully. Buy a developer a beer!
