                               Psi4 1.4a3.dev225

  ==> Input File <==

--------------------------------------------------------------------------
#psi4
#
memory 32 gb

molecule  {
0 1
  O       -1.8116000     2.3801270     0.1363720
  O       -1.7799440    -2.3994320     0.1189850
  C        0.9489570    -0.0306590    -0.3689570
  C        2.4429910    -0.0568610    -0.5708560
  C        0.2354480    -1.2220220    -0.2373930
  C        0.2702540     1.2113321    -0.2365359
  C        3.1984060    -0.0265600     0.7613490
  C       -1.0921630     1.2139390     0.0079710
  C       -1.1396310    -1.1871160     0.0102260
  C       -1.8132500     0.0254130     0.1385790
  H        2.7180680    -0.9584190    -1.1301260
  H        2.7446220     0.7994920    -1.1857830
  H        0.7258350    -2.1872220    -0.3369480
  H        0.8309290     2.1284970    -0.3452230
  H        2.9508560     0.8787730     1.3230630
  H        4.2811760    -0.0477390     0.6027570
  H        2.9230980    -0.8883860     1.3756490
  H       -2.8837580     0.0741080     0.3259950
  H       -1.1979550     3.1274200     0.0245130
  H       -2.7238770    -2.2320380     0.2881370
units angstrom
no_reorient  #important for SAPT in psi4, default
symmetry c1  #important for SAPT in psi4, default
}

set PROPERTIES_ORIGIN ["COM"]
properties('MP2/aug-cc-pvtz', properties = ['dipole'])
--------------------------------------------------------------------------

    Molecular point group: c1
  Charge       = 0
  Multiplicity = 1
  Basis Set: AUG-CC-PVTZ
    Blend: AUG-CC-PVTZ
  Basis Set: (AUG-CC-PVTZ AUX)
    Blend: AUG-CC-PVTZ-JKFIT

    Orbital Energies [Eh]
    ---------------------

    Doubly Occupied:

       1A    -20.594040     2A    -20.593749     3A    -11.309810
       4A    -11.309753     5A    -11.254854     6A    -11.233020
       7A    -11.224378     8A    -11.222904     9A    -11.220159
      10A    -11.217580    11A     -1.403705    12A     -1.400859
      13A     -1.148311    14A     -1.063395    15A     -1.002295
      16A     -0.986852    17A     -0.877260    18A     -0.835630
      19A     -0.807342    20A     -0.737787    21A     -0.687524
      22A     -0.673997    23A     -0.667259    24A     -0.611387
      25A     -0.602078    26A     -0.595417    27A     -0.587474
      28A     -0.575629    29A     -0.552616    30A     -0.548533
      31A     -0.525098    32A     -0.521172    33A     -0.488358
      34A     -0.483049    35A     -0.452840    36A     -0.324338
      37A     -0.312936

  @DF-RHF Final Energy:  -458.65928477429634

   => Energetics <=

    Nuclear Repulsion Energy =            506.9082982806262407
    One-Electron Energy =               -1629.8283857247247397
    Two-Electron Energy =                 664.2608026698021604
    Total Energy =                       -458.6592847742963386
  Basis Set: (AUG-CC-PVTZ AUX)
    Blend: AUG-CC-PVTZ-RI
    Molecular point group: c1

    Geometry (in Angstrom), charge = 0, multiplicity = 1:

       Center              X                  Y                   Z               Mass
    ------------   -----------------  -----------------  -----------------  -----------------
         O           -1.736389538949     2.383598245873     0.142988909165    15.994914619570
         O           -1.704733538949    -2.395960754127     0.125601909165    15.994914619570
         C            1.024167461051    -0.027187754127    -0.362340090835    12.000000000000
         C            2.518201461051    -0.053389754127    -0.564239090835    12.000000000000
         C            0.310658461051    -1.218550754127    -0.230776090835    12.000000000000
         C            0.345464461051     1.214803345873    -0.229918990835    12.000000000000
         C            3.273616461051    -0.023088754127     0.767965909165    12.000000000000
         C           -1.016952538949     1.217410245873     0.014587909165    12.000000000000
         C           -1.064420538949    -1.183644754127     0.016842909165    12.000000000000
         C           -1.738039538949     0.028884245873     0.145195909165    12.000000000000
         H            2.793278461051    -0.954947754127    -1.123509090835     1.007825032230
         H            2.819832461051     0.802963245873    -1.179166090835     1.007825032230
         H            0.801045461051    -2.183750754127    -0.330331090835     1.007825032230
         H            0.906139461051     2.131968245873    -0.338606090835     1.007825032230
         H            3.026066461051     0.882244245873     1.329679909165     1.007825032230
         H            4.356386461051    -0.044267754127     0.609373909165     1.007825032230
         H            2.998308461051    -0.884914754127     1.382265909165     1.007825032230
         H           -2.808547538949     0.077579245873     0.332611909165     1.007825032230
         H           -1.122744538949     3.130891245873     0.031129909165     1.007825032230
         H           -2.648666538949    -2.228566754127     0.294753909165     1.007825032230

  Basis Set: AUG-CC-PVTZ
    Blend: AUG-CC-PVTZ
  Basis Set: (AUG-CC-PVTZ AUX)
    Blend: AUG-CC-PVTZ-JKFIT
	 Reference Energy          =    -458.6592847742963386 [Eh]
	 Singles Energy            =      -0.0000000000000000 [Eh]
	 Same-Spin Energy          =      -0.4816155485588918 [Eh]
	 Opposite-Spin Energy      =      -1.5054133953753843 [Eh]
	 Correlation Energy        =      -1.9870289439342761 [Eh]
	 Total Energy              =    -460.6463137182306014 [Eh]

	 ================> DF-SCS-MP2 Energies <==================
	-----------------------------------------------------------
	 SCS Same-Spin Scale       =       0.3333333333333333 [-]
	 SCS Opposite-Spin Scale   =       1.2000000000000000 [-]
	 SCS Same-Spin Energy      =      -0.1605385161862973 [Eh]
	 SCS Opposite-Spin Energy  =      -1.8064960744504610 [Eh]
	 SCS Correlation Energy    =      -1.9670345906367583 [Eh]
	 SCS Total Energy          =    -460.6263193649331242 [Eh]
	-----------------------------------------------------------

  Dipole Moment: [D]
     X:     0.5481      Y:     1.1901      Z:    -0.0204     Total:     1.3104

*** Psi4 exiting successfully. Buy a developer a beer!
