                               Psi4 1.3.2 release

  ==> Input File <==

--------------------------------------------------------------------------
#psi4
#
memory 32 gb

molecule  {
0 1
  O        1.7627890     2.3683800    -0.1458810
  O        1.6754140    -2.4069960    -0.1279020
  C       -1.0215720    -0.0077180     0.3641480
  C       -2.5139530    -0.0194410     0.5634370
  C       -0.3230660    -1.2073880     0.2343750
  C       -0.3348790     1.1322333     0.2345827
  C       -3.2735700    -0.0197480    -0.7643280
  C        1.0346870     1.2106680    -0.0181020
  C        1.0480560    -1.1910380    -0.0190010
  C        1.6743561    -0.0209270    -0.1341628
  H       -2.7927850    -0.9030380     1.1483340
  H       -2.8082890     0.8538600     1.1573130
  H       -0.8312370    -2.1635460     0.3309200
  H       -0.8789600     2.1456520     0.3351900
  H       -3.0230990     0.8672620    -1.3527740
  H       -4.3574070    -0.0294260    -0.6053230
  H       -3.0076490    -0.8981260    -1.3586750
  H        2.8074370     0.0467670    -0.3362510
  H        1.1590650     3.1223080    -0.0299710
  H        2.6215300    -2.2543830    -0.2976190
units angstrom
no_reorient  #important for SAPT in psi4, default
symmetry c1  #important for SAPT in psi4, default
}

set PROPERTIES_ORIGIN ["COM"]
properties('MP2/aug-cc-pvtz', properties = ['dipole'])
--------------------------------------------------------------------------

    Molecular point group: c1
  Charge       = 0
  Multiplicity = 1
  Basis Set: AUG-CC-PVTZ
    Blend: AUG-CC-PVTZ
  Basis Set: (AUG-CC-PVTZ AUX)
    Blend: AUG-CC-PVTZ-JKFIT

    Orbital Energies [Eh]
    ---------------------

    Doubly Occupied:

       1A    -20.603287     2A    -20.590556     3A    -11.311813
       4A    -11.297948     5A    -11.241393     6A    -11.231799
       7A    -11.224970     8A    -11.224743     9A    -11.219108
      10A    -11.215068    11A     -1.409171    12A     -1.400301
      13A     -1.163950    14A     -1.069309    15A     -1.003965
      16A     -0.991129    17A     -0.873067    18A     -0.844109
      19A     -0.808784    20A     -0.747560    21A     -0.690858
      22A     -0.676263    23A     -0.653293    24A     -0.613986
      25A     -0.605370    26A     -0.594385    27A     -0.585162
      28A     -0.578099    29A     -0.557963    30A     -0.541879
      31A     -0.522133    32A     -0.512888    33A     -0.488595
      34A     -0.474550    35A     -0.462387    36A     -0.336884
      37A     -0.308952

  @DF-RHF Final Energy:  -458.64449243396552

   => Energetics <=

    Nuclear Repulsion Energy =            509.8033058228372738
    One-Electron Energy =               -1635.5442416575367588
    Two-Electron Energy =                 667.0964434007339605
    Total Energy =                       -458.6444924339655245
  Basis Set: (AUG-CC-PVTZ AUX)
    Blend: AUG-CC-PVTZ-RI
    Molecular point group: c1

    Geometry (in Angstrom), charge = 0, multiplicity = 1:

       Center              X                  Y                   Z               Mass
    ------------   -----------------  -----------------  -----------------  -----------------
         O            1.768031836641     2.377828042911    -0.146862405408    15.994914619570
         O            1.680656836641    -2.397547957089    -0.128883405408    15.994914619570
         C           -1.016329163359     0.001730042911     0.363166594592    12.000000000000
         C           -2.508710163359    -0.009992957089     0.562455594592    12.000000000000
         C           -0.317823163359    -1.197939957089     0.233393594592    12.000000000000
         C           -0.329636163359     1.141681342911     0.233601294592    12.000000000000
         C           -3.268327163359    -0.010299957089    -0.765309405408    12.000000000000
         C            1.039929836641     1.220116042911    -0.019083405408    12.000000000000
         C            1.053298836641    -1.181589957089    -0.019982405408    12.000000000000
         C            1.679598936641    -0.011478957089    -0.135144205408    12.000000000000
         H           -2.787542163359    -0.893589957089     1.147352594592     1.007825032230
         H           -2.803046163359     0.863308042911     1.156331594592     1.007825032230
         H           -0.825994163359    -2.154097957089     0.329938594592     1.007825032230
         H           -0.873717163359     2.155100042911     0.334208594592     1.007825032230
         H           -3.017856163359     0.876710042911    -1.353755405408     1.007825032230
         H           -4.352164163359    -0.019977957089    -0.606304405408     1.007825032230
         H           -3.002406163359    -0.888677957089    -1.359656405408     1.007825032230
         H            2.812679836641     0.056215042911    -0.337232405408     1.007825032230
         H            1.164307836641     3.131756042911    -0.030952405408     1.007825032230
         H            2.626772836641    -2.244934957089    -0.298600405408     1.007825032230

  Basis Set: AUG-CC-PVTZ
    Blend: AUG-CC-PVTZ
  Basis Set: (AUG-CC-PVTZ AUX)
    Blend: AUG-CC-PVTZ-JKFIT
	 Reference Energy          =    -458.6444924339655245 [Eh]
	 Singles Energy            =      -0.0000000000000000 [Eh]
	 Same-Spin Energy          =      -0.4827845404481463 [Eh]
	 Opposite-Spin Energy      =      -1.5063678429815086 [Eh]
	 Correlation Energy        =      -1.9891523834296549 [Eh]
	 Total Energy              =    -460.6336448173951794 [Eh]

	 ================> DF-SCS-MP2 Energies <==================
	-----------------------------------------------------------
	 SCS Same-Spin Scale       =       0.3333333333333333 [-]
	 SCS Opposite-Spin Scale   =       1.2000000000000000 [-]
	 SCS Same-Spin Energy      =      -0.1609281801493821 [Eh]
	 SCS Opposite-Spin Energy  =      -1.8076414115778103 [Eh]
	 SCS Correlation Energy    =      -1.9685695917271924 [Eh]
	 SCS Total Energy          =    -460.6130620256927273 [Eh]
	-----------------------------------------------------------

  Dipole Moment: [D]
     X:    -0.4921      Y:     1.3533      Z:     0.0078     Total:     1.4400

*** Psi4 exiting successfully. Buy a developer a beer!
