                               Psi4 1.3.2 release

  ==> Input File <==

--------------------------------------------------------------------------
#psi4
#
memory 32 gb

molecule  {
0 1
  O        1.7627890     2.3683800    -0.1458810
  O        1.6332706    -2.4284768    -0.1202951
  C       -1.0215720    -0.0077180     0.3641480
  C       -2.5139530    -0.0194410     0.5634370
  C       -0.3230660    -1.2073880     0.2343750
  C       -0.3370590     1.2052280     0.2348720
  C       -3.2735700    -0.0197480    -0.7643280
  C        1.0346870     1.2106680    -0.0181020
  C        1.0480560    -1.1910380    -0.0190010
  C        1.6950025     0.0384925    -0.1383163
  H       -2.7927850    -0.9030380     1.1483340
  H       -2.8082890     0.8538600     1.1573130
  H       -0.8312370    -2.1635460     0.3309200
  H       -0.8789600     2.1456520     0.3351900
  H       -3.0230990     0.8672620    -1.3527740
  H       -4.3574070    -0.0294260    -0.6053230
  H       -3.0076490    -0.8981260    -1.3586750
  H        2.8074370     0.0467670    -0.3362510
  H        1.1590650     3.1223080    -0.0299710
  H        2.6215300    -2.2543830    -0.2976190
units angstrom
no_reorient  #important for SAPT in psi4, default
symmetry c1  #important for SAPT in psi4, default
}

set PROPERTIES_ORIGIN ["COM"]
properties('MP2/aug-cc-pvtz', properties = ['dipole'])
--------------------------------------------------------------------------

    Molecular point group: c1
  Charge       = 0
  Multiplicity = 1
  Basis Set: AUG-CC-PVTZ
    Blend: AUG-CC-PVTZ
  Basis Set: (AUG-CC-PVTZ AUX)
    Blend: AUG-CC-PVTZ-JKFIT

    Orbital Energies [Eh]
    ---------------------

    Doubly Occupied:

       1A    -20.601478     2A    -20.594963     3A    -11.308283
       4A    -11.305091     5A    -11.249419     6A    -11.231241
       7A    -11.225161     8A    -11.222299     9A    -11.219092
      10A    -11.214646    11A     -1.404747    12A     -1.397152
      13A     -1.153249    14A     -1.066295    15A     -1.001741
      16A     -0.987624    17A     -0.874844    18A     -0.837927
      19A     -0.803778    20A     -0.736395    21A     -0.690905
      22A     -0.670609    23A     -0.660377    24A     -0.611295
      25A     -0.603220    26A     -0.594386    27A     -0.587606
      28A     -0.577297    29A     -0.552973    30A     -0.544469
      31A     -0.526868    32A     -0.518863    33A     -0.486843
      34A     -0.479209    35A     -0.456038    36A     -0.328901
      37A     -0.310787

  @DF-RHF Final Energy:  -458.65083818136497

   => Energetics <=

    Nuclear Repulsion Energy =            508.1622964482857583
    One-Electron Energy =               -1632.3541319137209484
    Two-Electron Energy =                 665.5409972840701585
    Total Energy =                       -458.6508381813649748
  Basis Set: (AUG-CC-PVTZ AUX)
    Blend: AUG-CC-PVTZ-RI
    Molecular point group: c1

    Geometry (in Angstrom), charge = 0, multiplicity = 1:

       Center              X                  Y                   Z               Mass
    ------------   -----------------  -----------------  -----------------  -----------------
         O            1.771309084258     2.368807950490    -0.147407798060    15.994914619570
         O            1.641790684258    -2.428048849510    -0.121821898060    15.994914619570
         C           -1.013051915742    -0.007290049510     0.362621201940    12.000000000000
         C           -2.505432915742    -0.019013049510     0.561910201940    12.000000000000
         C           -0.314545915742    -1.206960049510     0.232848201940    12.000000000000
         C           -0.328538915742     1.205655950490     0.233345201940    12.000000000000
         C           -3.265049915742    -0.019320049510    -0.765854798060    12.000000000000
         C            1.043207084258     1.211095950490    -0.019628798060    12.000000000000
         C            1.056576084258    -1.190610049510    -0.020527798060    12.000000000000
         C            1.703522584258     0.038920450490    -0.139843098060    12.000000000000
         H           -2.784264915742    -0.902610049510     1.146807201940     1.007825032230
         H           -2.799768915742     0.854287950490     1.155786201940     1.007825032230
         H           -0.822716915742    -2.163118049510     0.329393201940     1.007825032230
         H           -0.870439915742     2.146079950490     0.333663201940     1.007825032230
         H           -3.014578915742     0.867689950490    -1.354300798060     1.007825032230
         H           -4.348886915742    -0.028998049510    -0.606849798060     1.007825032230
         H           -2.999128915742    -0.897698049510    -1.360201798060     1.007825032230
         H            2.815957084258     0.047194950490    -0.337777798060     1.007825032230
         H            1.167585084258     3.122735950490    -0.031497798060     1.007825032230
         H            2.630050084258    -2.253955049510    -0.299145798060     1.007825032230

  Basis Set: AUG-CC-PVTZ
    Blend: AUG-CC-PVTZ
  Basis Set: (AUG-CC-PVTZ AUX)
    Blend: AUG-CC-PVTZ-JKFIT
	 Reference Energy          =    -458.6508381813649748 [Eh]
	 Singles Energy            =      -0.0000000000000000 [Eh]
	 Same-Spin Energy          =      -0.4828125147570206 [Eh]
	 Opposite-Spin Energy      =      -1.5073654956991125 [Eh]
	 Correlation Energy        =      -1.9901780104561331 [Eh]
	 Total Energy              =    -460.6410161918211088 [Eh]

	 ================> DF-SCS-MP2 Energies <==================
	-----------------------------------------------------------
	 SCS Same-Spin Scale       =       0.3333333333333333 [-]
	 SCS Opposite-Spin Scale   =       1.2000000000000000 [-]
	 SCS Same-Spin Energy      =      -0.1609375049190069 [Eh]
	 SCS Opposite-Spin Energy  =      -1.8088385948389349 [Eh]
	 SCS Correlation Energy    =      -1.9697760997579419 [Eh]
	 SCS Total Energy          =    -460.6206142811229256 [Eh]
	-----------------------------------------------------------

  Dipole Moment: [D]
     X:    -0.4360      Y:     1.1580      Z:     0.0014     Total:     1.2373

*** Psi4 exiting successfully. Buy a developer a beer!
