                               Psi4 1.3.2 release

  ==> Input File <==

--------------------------------------------------------------------------
#psi4
#
memory 32 gb

molecule  {
0 1
  O        1.7627890     2.3683800    -0.1458810
  O        1.6754140    -2.4069960    -0.1279020
  C       -1.0215720    -0.0077180     0.3641480
  C       -2.5139530    -0.0194410     0.5634370
  C       -0.3230660    -1.2073880     0.2343750
  C       -0.3370590     1.2052280     0.2348720
  C       -3.2735700    -0.0197480    -0.7643280
  C        1.0346870     1.2106680    -0.0181020
  C        1.0480560    -1.1910380    -0.0190010
  C        1.7368580     0.0147850    -0.1457440
  H       -2.7927850    -0.9030380     1.1483340
  H       -2.8082890     0.8538600     1.1573130
  H       -0.8312370    -2.1635460     0.3309200
  H       -0.8789600     2.1456520     0.3351900
  H       -3.0230990     0.8672620    -1.3527740
  H       -4.3574070    -0.0294260    -0.6053230
  H       -3.0076490    -0.8981260    -1.3586750
  H        2.8074370     0.0467670    -0.3362510
  H        1.1590650     3.1223080    -0.0299710
  H        2.8159526    -2.2230217    -0.3324951
units angstrom
no_reorient  #important for SAPT in psi4, default
symmetry c1  #important for SAPT in psi4, default
}

set PROPERTIES_ORIGIN ["COM"]
properties('MP2/aug-cc-pvtz', properties = ['dipole'])
--------------------------------------------------------------------------

    Molecular point group: c1
  Charge       = 0
  Multiplicity = 1
  Basis Set: AUG-CC-PVTZ
    Blend: AUG-CC-PVTZ
  Basis Set: (AUG-CC-PVTZ AUX)
    Blend: AUG-CC-PVTZ-JKFIT

    Orbital Energies [Eh]
    ---------------------

    Doubly Occupied:

       1A    -20.605903     2A    -20.595072     3A    -11.309509
       4A    -11.307290     5A    -11.250792     6A    -11.231553
       7A    -11.222507     8A    -11.221496     9A    -11.219220
      10A    -11.215200    11A     -1.404173    12A     -1.371474
      13A     -1.147749    14A     -1.062280    15A     -0.995959
      16A     -0.986824    17A     -0.874076    18A     -0.833537
      19A     -0.796150    20A     -0.727931    21A     -0.685571
      22A     -0.667144    23A     -0.651497    24A     -0.610918
      25A     -0.600702    26A     -0.593799    27A     -0.581477
      28A     -0.572682    29A     -0.548999    30A     -0.542852
      31A     -0.522268    32A     -0.517277    33A     -0.486946
      34A     -0.481478    35A     -0.452098    36A     -0.324690
      37A     -0.309873

  @DF-RHF Final Energy:  -458.62420578380068

   => Energetics <=

    Nuclear Repulsion Energy =            506.4606012208546417
    One-Electron Energy =               -1629.1116829914310529
    Two-Electron Energy =                 664.0268759867757353
    Total Energy =                       -458.6242057838006758
  Basis Set: (AUG-CC-PVTZ AUX)
    Blend: AUG-CC-PVTZ-RI
    Molecular point group: c1

    Geometry (in Angstrom), charge = 0, multiplicity = 1:

       Center              X                  Y                   Z               Mass
    ------------   -----------------  -----------------  -----------------  -----------------
         O            1.761369856797     2.368151026272    -0.145626407869    15.994914619570
         O            1.673994856797    -2.407224973728    -0.127647407869    15.994914619570
         C           -1.022991143203    -0.007946973728     0.364402592131    12.000000000000
         C           -2.515372143203    -0.019669973728     0.563691592131    12.000000000000
         C           -0.324485143203    -1.207616973728     0.234629592131    12.000000000000
         C           -0.338478143203     1.204999026272     0.235126592131    12.000000000000
         C           -3.274989143203    -0.019976973728    -0.764073407869    12.000000000000
         C            1.033267856797     1.210439026272    -0.017847407869    12.000000000000
         C            1.046636856797    -1.191266973728    -0.018746407869    12.000000000000
         C            1.735438856797     0.014556026272    -0.145489407869    12.000000000000
         H           -2.794204143203    -0.903266973728     1.148588592131     1.007825032230
         H           -2.809708143203     0.853631026272     1.157567592131     1.007825032230
         H           -0.832656143203    -2.163774973728     0.331174592131     1.007825032230
         H           -0.880379143203     2.145423026272     0.335444592131     1.007825032230
         H           -3.024518143203     0.867033026272    -1.352519407869     1.007825032230
         H           -4.358826143203    -0.029654973728    -0.605068407869     1.007825032230
         H           -3.009068143203    -0.898354973728    -1.358420407869     1.007825032230
         H            2.806017856797     0.046538026272    -0.335996407869     1.007825032230
         H            1.157645856797     3.122079026272    -0.029716407869     1.007825032230
         H            2.814533456797    -2.223250673728    -0.332240507869     1.007825032230

  Basis Set: AUG-CC-PVTZ
    Blend: AUG-CC-PVTZ
  Basis Set: (AUG-CC-PVTZ AUX)
    Blend: AUG-CC-PVTZ-JKFIT
	 Reference Energy          =    -458.6242057838006758 [Eh]
	 Singles Energy            =      -0.0000000000000000 [Eh]
	 Same-Spin Energy          =      -0.4841478186921346 [Eh]
	 Opposite-Spin Energy      =      -1.5120484177853322 [Eh]
	 Correlation Energy        =      -1.9961962364774668 [Eh]
	 Total Energy              =    -460.6204020202781635 [Eh]

	 ================> DF-SCS-MP2 Energies <==================
	-----------------------------------------------------------
	 SCS Same-Spin Scale       =       0.3333333333333333 [-]
	 SCS Opposite-Spin Scale   =       1.2000000000000000 [-]
	 SCS Same-Spin Energy      =      -0.1613826062307115 [Eh]
	 SCS Opposite-Spin Energy  =      -1.8144581013423986 [Eh]
	 SCS Correlation Energy    =      -1.9758407075731101 [Eh]
	 SCS Total Energy          =    -460.6000464913738028 [Eh]
	-----------------------------------------------------------

  Dipole Moment: [D]
     X:    -0.3064      Y:     1.1797      Z:    -0.0236     Total:     1.2190

*** Psi4 exiting successfully. Buy a developer a beer!
