                               Psi4 1.3.2 release

  ==> Input File <==

--------------------------------------------------------------------------
#psi4
#
memory 32 gb

molecule  {
0 1
  O        1.7627890     2.3683800    -0.1458810
  O        1.6754140    -2.4069960    -0.1279020
  C       -1.0215720    -0.0077180     0.3641480
  C       -2.5139530    -0.0194410     0.5634370
  C       -0.3230660    -1.2073880     0.2343750
  C       -0.3370590     1.2052280     0.2348720
  C       -3.2735700    -0.0197480    -0.7643280
  C        1.0972117     1.2463801    -0.0295594
  C        1.1110825    -1.2260397    -0.0305046
  C        1.7368580     0.0147850    -0.1457440
  H       -2.7927850    -0.9030380     1.1483340
  H       -2.8082890     0.8538600     1.1573130
  H       -0.8312370    -2.1635460     0.3309200
  H       -0.8789600     2.1456520     0.3351900
  H       -3.0230990     0.8672620    -1.3527740
  H       -4.3574070    -0.0294260    -0.6053230
  H       -3.0076490    -0.8981260    -1.3586750
  H        2.8074370     0.0467670    -0.3362510
  H        1.1590650     3.1223080    -0.0299710
  H        2.6215300    -2.2543830    -0.2976190
units angstrom
no_reorient  #important for SAPT in psi4, default
symmetry c1  #important for SAPT in psi4, default
}

set PROPERTIES_ORIGIN ["COM"]
properties('MP2/aug-cc-pvtz', properties = ['dipole'])
--------------------------------------------------------------------------

    Molecular point group: c1
  Charge       = 0
  Multiplicity = 1
  Basis Set: AUG-CC-PVTZ
    Blend: AUG-CC-PVTZ
  Basis Set: (AUG-CC-PVTZ AUX)
    Blend: AUG-CC-PVTZ-JKFIT

    Orbital Energies [Eh]
    ---------------------

    Doubly Occupied:

       1A    -20.607117     2A    -20.606883     3A    -11.317125
       4A    -11.314836     5A    -11.245173     6A    -11.227784
       7A    -11.220095     8A    -11.219771     9A    -11.215668
      10A    -11.212899    11A     -1.439632    12A     -1.437564
      13A     -1.134638    14A     -1.059181    15A     -0.984966
      16A     -0.981037    17A     -0.869608    18A     -0.848094
      19A     -0.815926    20A     -0.747449    21A     -0.706445
      22A     -0.675104    23A     -0.664223    24A     -0.619235
      25A     -0.614908    26A     -0.598805    27A     -0.597378
      28A     -0.594221    29A     -0.546726    30A     -0.538880
      31A     -0.517829    32A     -0.513151    33A     -0.483131
      34A     -0.468068    35A     -0.444064    36A     -0.325540
      37A     -0.290207

  @DF-RHF Final Energy:  -458.64646775794859

   => Energetics <=

    Nuclear Repulsion Energy =            506.6203895447551986
    One-Electron Energy =               -1629.1269841074779379
    Two-Electron Energy =                 663.8601268047741542
    Total Energy =                       -458.6464677579485851
  Basis Set: (AUG-CC-PVTZ AUX)
    Blend: AUG-CC-PVTZ-RI
    Molecular point group: c1

    Geometry (in Angstrom), charge = 0, multiplicity = 1:

       Center              X                  Y                   Z               Mass
    ------------   -----------------  -----------------  -----------------  -----------------
         O            1.751876928083     2.368318203966    -0.143885361031    15.994914619570
         O            1.664501928083    -2.407057796034    -0.125906361031    15.994914619570
         C           -1.032484071917    -0.007779796034     0.366143638969    12.000000000000
         C           -2.524865071917    -0.019502796034     0.565432638969    12.000000000000
         C           -0.333978071917    -1.207449796034     0.236370638969    12.000000000000
         C           -0.347971071917     1.205166203966     0.236867638969    12.000000000000
         C           -3.284482071917    -0.019809796034    -0.762332361031    12.000000000000
         C            1.086299628083     1.246318303966    -0.027563761031    12.000000000000
         C            1.100170428083    -1.226101496034    -0.028508961031    12.000000000000
         C            1.725945928083     0.014723203966    -0.143748361031    12.000000000000
         H           -2.803697071917    -0.903099796034     1.150329638969     1.007825032230
         H           -2.819201071917     0.853798203966     1.159308638969     1.007825032230
         H           -0.842149071917    -2.163607796034     0.332915638969     1.007825032230
         H           -0.889872071917     2.145590203966     0.337185638969     1.007825032230
         H           -3.034011071917     0.867200203966    -1.350778361031     1.007825032230
         H           -4.368319071917    -0.029487796034    -0.603327361031     1.007825032230
         H           -3.018561071917    -0.898187796034    -1.356679361031     1.007825032230
         H            2.796524928083     0.046705203966    -0.334255361031     1.007825032230
         H            1.148152928083     3.122246203966    -0.027975361031     1.007825032230
         H            2.610617928083    -2.254444796034    -0.295623361031     1.007825032230

  Basis Set: AUG-CC-PVTZ
    Blend: AUG-CC-PVTZ
  Basis Set: (AUG-CC-PVTZ AUX)
    Blend: AUG-CC-PVTZ-JKFIT
	 Reference Energy          =    -458.6464677579485851 [Eh]
	 Singles Energy            =      -0.0000000000000000 [Eh]
	 Same-Spin Energy          =      -0.4819052911837219 [Eh]
	 Opposite-Spin Energy      =      -1.5046686757408447 [Eh]
	 Correlation Energy        =      -1.9865739669245666 [Eh]
	 Total Energy              =    -460.6330417248731237 [Eh]

	 ================> DF-SCS-MP2 Energies <==================
	-----------------------------------------------------------
	 SCS Same-Spin Scale       =       0.3333333333333333 [-]
	 SCS Opposite-Spin Scale   =       1.2000000000000000 [-]
	 SCS Same-Spin Energy      =      -0.1606350970612406 [Eh]
	 SCS Opposite-Spin Energy  =      -1.8056024108890136 [Eh]
	 SCS Correlation Energy    =      -1.9662375079502543 [Eh]
	 SCS Total Energy          =    -460.6127052658988532 [Eh]
	-----------------------------------------------------------

  Dipole Moment: [D]
     X:     0.0591      Y:     1.2247      Z:    -0.0739     Total:     1.2284

*** Psi4 exiting successfully. Buy a developer a beer!
