                               Psi4 1.3.2 release

  ==> Input File <==

--------------------------------------------------------------------------
#psi4
#
memory 32 gb

molecule  {
0 1
  O        1.7627890     2.3683800    -0.1458810
  O        1.6754140    -2.4069960    -0.1279020
  C       -1.0215720    -0.0077180     0.3641480
  C       -2.5136274    -0.0457042     0.5625981
  C       -0.3439833    -1.2195830     0.2368039
  C       -0.3370590     1.2052280     0.2348720
  C       -3.2735700    -0.0197480    -0.7643280
  C        1.0346870     1.2106680    -0.0181020
  C        1.0480560    -1.1910380    -0.0190010
  C        1.7368580     0.0147850    -0.1457440
  H       -2.7927850    -0.9030380     1.1483340
  H       -2.8082890     0.8538600     1.1573130
  H       -0.8312370    -2.1635460     0.3309200
  H       -0.8789600     2.1456520     0.3351900
  H       -3.0230990     0.8672620    -1.3527740
  H       -4.3574070    -0.0294260    -0.6053230
  H       -3.0076490    -0.8981260    -1.3586750
  H        2.8074370     0.0467670    -0.3362510
  H        1.1590650     3.1223080    -0.0299710
  H        2.6215300    -2.2543830    -0.2976190
units angstrom
no_reorient  #important for SAPT in psi4, default
symmetry c1  #important for SAPT in psi4, default
}

set PROPERTIES_ORIGIN ["COM"]
properties('MP2/aug-cc-pvtz', properties = ['dipole'])
--------------------------------------------------------------------------

    Molecular point group: c1
  Charge       = 0
  Multiplicity = 1
  Basis Set: AUG-CC-PVTZ
    Blend: AUG-CC-PVTZ
  Basis Set: (AUG-CC-PVTZ AUX)
    Blend: AUG-CC-PVTZ-JKFIT

    Orbital Energies [Eh]
    ---------------------

    Doubly Occupied:

       1A    -20.596259     2A    -20.593892     3A    -11.311523
       4A    -11.311400     5A    -11.251232     6A    -11.231354
       7A    -11.224184     8A    -11.222676     9A    -11.219300
      10A    -11.216136    11A     -1.405841    12A     -1.402242
      13A     -1.148859    14A     -1.063779    15A     -0.999432
      16A     -0.987939    17A     -0.875971    18A     -0.837926
      19A     -0.806977    20A     -0.740795    21A     -0.688600
      22A     -0.675472    23A     -0.665067    24A     -0.613555
      25A     -0.602056    26A     -0.593277    27A     -0.589530
      28A     -0.576519    29A     -0.552892    30A     -0.548876
      31A     -0.526128    32A     -0.522496    33A     -0.488238
      34A     -0.478892    35A     -0.452813    36A     -0.326718
      37A     -0.309618

  @DF-RHF Final Energy:  -458.65851877130956

   => Energetics <=

    Nuclear Repulsion Energy =            507.1745587956330610
    One-Electron Energy =               -1630.3492261834778674
    Two-Electron Energy =                 664.5161486165351334
    Total Energy =                       -458.6585187713095593
  Basis Set: (AUG-CC-PVTZ AUX)
    Blend: AUG-CC-PVTZ-RI
    Molecular point group: c1

    Geometry (in Angstrom), charge = 0, multiplicity = 1:

       Center              X                  Y                   Z               Mass
    ------------   -----------------  -----------------  -----------------  -----------------
         O            1.764578740157     2.371722489747    -0.146019177920    15.994914619570
         O            1.677203740157    -2.403653510253    -0.128040177920    15.994914619570
         C           -1.019782259843    -0.004375510253     0.364009822080    12.000000000000
         C           -2.511837659843    -0.042361710253     0.562459922080    12.000000000000
         C           -0.342193559843    -1.216240510253     0.236665722080    12.000000000000
         C           -0.335269259843     1.208570489747     0.234733822080    12.000000000000
         C           -3.271780259843    -0.016405510253    -0.764466177920    12.000000000000
         C            1.036476740157     1.214010489747    -0.018240177920    12.000000000000
         C            1.049845740157    -1.187695510253    -0.019139177920    12.000000000000
         C            1.738647740157     0.018127489747    -0.145882177920    12.000000000000
         H           -2.790995259843    -0.899695510253     1.148195822080     1.007825032230
         H           -2.806499259843     0.857202489747     1.157174822080     1.007825032230
         H           -0.829447259843    -2.160203510253     0.330781822080     1.007825032230
         H           -0.877170259843     2.148994489747     0.335051822080     1.007825032230
         H           -3.021309259843     0.870604489747    -1.352912177920     1.007825032230
         H           -4.355617259843    -0.026083510253    -0.605461177920     1.007825032230
         H           -3.005859259843    -0.894783510253    -1.358813177920     1.007825032230
         H            2.809226740157     0.050109489747    -0.336389177920     1.007825032230
         H            1.160854740157     3.125650489747    -0.030109177920     1.007825032230
         H            2.623319740157    -2.251040510253    -0.297757177920     1.007825032230

  Basis Set: AUG-CC-PVTZ
    Blend: AUG-CC-PVTZ
  Basis Set: (AUG-CC-PVTZ AUX)
    Blend: AUG-CC-PVTZ-JKFIT
	 Reference Energy          =    -458.6585187713095593 [Eh]
	 Singles Energy            =      -0.0000000000000000 [Eh]
	 Same-Spin Energy          =      -0.4816452885495271 [Eh]
	 Opposite-Spin Energy      =      -1.5052821378789740 [Eh]
	 Correlation Energy        =      -1.9869274264285011 [Eh]
	 Total Energy              =    -460.6454461977380674 [Eh]

	 ================> DF-SCS-MP2 Energies <==================
	-----------------------------------------------------------
	 SCS Same-Spin Scale       =       0.3333333333333333 [-]
	 SCS Opposite-Spin Scale   =       1.2000000000000000 [-]
	 SCS Same-Spin Energy      =      -0.1605484295165090 [Eh]
	 SCS Opposite-Spin Energy  =      -1.8063385654547688 [Eh]
	 SCS Correlation Energy    =      -1.9668869949712777 [Eh]
	 SCS Total Energy          =    -460.6254057662808350 [Eh]
	-----------------------------------------------------------

  Dipole Moment: [D]
     X:    -0.4631      Y:     1.1866      Z:     0.0051     Total:     1.2737

*** Psi4 exiting successfully. Buy a developer a beer!
