                               Psi4 1.3.2 release

  ==> Input File <==

--------------------------------------------------------------------------
#psi4
#
memory 32 gb

molecule  {
0 1
  O        1.7627890     2.3683800    -0.1458810
  O        1.6754140    -2.4069960    -0.1279020
  C       -1.0215720    -0.0077180     0.3641480
  C       -2.5139530    -0.0194410     0.5634370
  C       -0.3230660    -1.2073880     0.2343750
  C       -0.3370590     1.2052280     0.2348720
  C       -3.2735700    -0.0197480    -0.7643280
  C        1.0346870     1.2106680    -0.0181020
  C        1.0376373    -1.1966407    -0.0171212
  C        1.7368580     0.0147850    -0.1457440
  H       -2.7927850    -0.9030380     1.1483340
  H       -2.8082890     0.8538600     1.1573130
  H       -0.8312370    -2.1635460     0.3309200
  H       -0.8789600     2.1456520     0.3351900
  H       -3.0230990     0.8672620    -1.3527740
  H       -4.3574070    -0.0294260    -0.6053230
  H       -3.0076490    -0.8981260    -1.3586750
  H        2.8074370     0.0467670    -0.3362510
  H        1.1590650     3.1223080    -0.0299710
  H        2.6228090    -2.2627769    -0.2978247
units angstrom
no_reorient  #important for SAPT in psi4, default
symmetry c1  #important for SAPT in psi4, default
}

set PROPERTIES_ORIGIN ["COM"]
properties('MP2/aug-cc-pvtz', properties = ['dipole'])
--------------------------------------------------------------------------

    Molecular point group: c1
  Charge       = 0
  Multiplicity = 1
  Basis Set: AUG-CC-PVTZ
    Blend: AUG-CC-PVTZ
  Basis Set: (AUG-CC-PVTZ AUX)
    Blend: AUG-CC-PVTZ-JKFIT

    Orbital Energies [Eh]
    ---------------------

    Doubly Occupied:

       1A    -20.595394     2A    -20.592549     3A    -11.310041
       4A    -11.308757     5A    -11.251859     6A    -11.232337
       7A    -11.224337     8A    -11.222909     9A    -11.219906
      10A    -11.215125    11A     -1.404990    12A     -1.401014
      13A     -1.150655    14A     -1.063287    15A     -1.003217
      16A     -0.987158    17A     -0.877104    18A     -0.835494
      19A     -0.808636    20A     -0.740003    21A     -0.686777
      22A     -0.675601    23A     -0.667347    24A     -0.611951
      25A     -0.602145    26A     -0.594968    27A     -0.587181
      28A     -0.576180    29A     -0.552515    30A     -0.549071
      31A     -0.523385    32A     -0.519944    33A     -0.488148
      34A     -0.483338    35A     -0.453969    36A     -0.324381
      37A     -0.312683

  @DF-RHF Final Energy:  -458.66007479367897

   => Energetics <=

    Nuclear Repulsion Energy =            507.5021879486079115
    One-Electron Energy =               -1631.0158130873971913
    Two-Electron Energy =                 664.8535503451104205
    Total Energy =                       -458.6600747936789730
  Basis Set: (AUG-CC-PVTZ AUX)
    Blend: AUG-CC-PVTZ-RI
    Molecular point group: c1

    Geometry (in Angstrom), charge = 0, multiplicity = 1:

       Center              X                  Y                   Z               Mass
    ------------   -----------------  -----------------  -----------------  -----------------
         O            1.763685231617     2.368928169592    -0.146042863991    15.994914619570
         O            1.676310231617    -2.406447830408    -0.128063863991    15.994914619570
         C           -1.020675768383    -0.007169830408     0.363986136009    12.000000000000
         C           -2.513056768383    -0.018892830408     0.563275136009    12.000000000000
         C           -0.322169768383    -1.206839830408     0.234213136009    12.000000000000
         C           -0.336162768383     1.205776169592     0.234710136009    12.000000000000
         C           -3.272673768383    -0.019199830408    -0.764489863991    12.000000000000
         C            1.035583231617     1.211216169592    -0.018263863991    12.000000000000
         C            1.038533531617    -1.196092530408    -0.017283063991    12.000000000000
         C            1.737754231617     0.015333169592    -0.145905863991    12.000000000000
         H           -2.791888768383    -0.902489830408     1.148172136009     1.007825032230
         H           -2.807392768383     0.854408169592     1.157151136009     1.007825032230
         H           -0.830340768383    -2.162997830408     0.330758136009     1.007825032230
         H           -0.878063768383     2.146200169592     0.335028136009     1.007825032230
         H           -3.022202768383     0.867810169592    -1.352935863991     1.007825032230
         H           -4.356510768383    -0.028877830408    -0.605484863991     1.007825032230
         H           -3.006752768383    -0.897577830408    -1.358836863991     1.007825032230
         H            2.808333231617     0.047315169592    -0.336412863991     1.007825032230
         H            1.159961231617     3.122856169592    -0.030132863991     1.007825032230
         H            2.623705231617    -2.262228730408    -0.297986563991     1.007825032230

  Basis Set: AUG-CC-PVTZ
    Blend: AUG-CC-PVTZ
  Basis Set: (AUG-CC-PVTZ AUX)
    Blend: AUG-CC-PVTZ-JKFIT
	 Reference Energy          =    -458.6600747936789730 [Eh]
	 Singles Energy            =      -0.0000000000000000 [Eh]
	 Same-Spin Energy          =      -0.4817047312544115 [Eh]
	 Opposite-Spin Energy      =      -1.5051275802636410 [Eh]
	 Correlation Energy        =      -1.9868323115180526 [Eh]
	 Total Energy              =    -460.6469071051970445 [Eh]

	 ================> DF-SCS-MP2 Energies <==================
	-----------------------------------------------------------
	 SCS Same-Spin Scale       =       0.3333333333333333 [-]
	 SCS Opposite-Spin Scale   =       1.2000000000000000 [-]
	 SCS Same-Spin Energy      =      -0.1605682437514705 [Eh]
	 SCS Opposite-Spin Energy  =      -1.8061530963163692 [Eh]
	 SCS Correlation Energy    =      -1.9667213400678398 [Eh]
	 SCS Total Energy          =    -460.6267961337468364 [Eh]
	-----------------------------------------------------------

  Dipole Moment: [D]
     X:    -0.5095      Y:     1.2106      Z:     0.0112     Total:     1.3135

*** Psi4 exiting successfully. Buy a developer a beer!
