                               Psi4 1.3.2 release

  ==> Input File <==

--------------------------------------------------------------------------
#psi4
#
memory 32 gb

molecule  {
0 1
  O        1.7627890     2.3683800    -0.1458810
  O        1.6754140    -2.4069960    -0.1279020
  C       -1.0215720    -0.0077180     0.3641480
  C       -2.5139530    -0.0194410     0.5634370
  C       -0.3230660    -1.2073880     0.2343750
  C       -0.3370590     1.2052280     0.2348720
  C       -3.2735700    -0.0197480    -0.7643280
  C        1.0346870     1.2106680    -0.0181020
  C        1.0480560    -1.1910380    -0.0190010
  C        1.7368580     0.0147850    -0.1457440
  H       -2.8182324    -0.9836790     1.2017143
  H       -2.8082890     0.8538600     1.1573130
  H       -0.8312370    -2.1635460     0.3309200
  H       -0.8789600     2.1456520     0.3351900
  H       -3.0230990     0.8672620    -1.3527740
  H       -4.3574070    -0.0294260    -0.6053230
  H       -3.0076490    -0.8981260    -1.3586750
  H        2.8074370     0.0467670    -0.3362510
  H        1.1590650     3.1223080    -0.0299710
  H        2.6215300    -2.2543830    -0.2976190
units angstrom
no_reorient  #important for SAPT in psi4, default
symmetry c1  #important for SAPT in psi4, default
}

set PROPERTIES_ORIGIN ["COM"]
properties('MP2/aug-cc-pvtz', properties = ['dipole'])
--------------------------------------------------------------------------

    Molecular point group: c1
  Charge       = 0
  Multiplicity = 1
  Basis Set: AUG-CC-PVTZ
    Blend: AUG-CC-PVTZ
  Basis Set: (AUG-CC-PVTZ AUX)
    Blend: AUG-CC-PVTZ-JKFIT

    Orbital Energies [Eh]
    ---------------------

    Doubly Occupied:

       1A    -20.596047     2A    -20.593465     3A    -11.310938
       4A    -11.308938     5A    -11.252343     6A    -11.244000
       7A    -11.224333     8A    -11.223562     9A    -11.220789
      10A    -11.216095    11A     -1.405705    12A     -1.402043
      13A     -1.150536    14A     -1.062124    15A     -1.001696
      16A     -0.987545    17A     -0.875020    18A     -0.837043
      19A     -0.804981    20A     -0.737160    21A     -0.687970
      22A     -0.675511    23A     -0.666368    24A     -0.608369
      25A     -0.600518    26A     -0.595598    27A     -0.586251
      28A     -0.576705    29A     -0.553216    30A     -0.549918
      31A     -0.524002    32A     -0.519872    33A     -0.485505
      34A     -0.476828    35A     -0.453760    36A     -0.326224
      37A     -0.311584

  @DF-RHF Final Energy:  -458.65362691615707

   => Energetics <=

    Nuclear Repulsion Energy =            507.0539140192632885
    One-Electron Energy =               -1630.1099576718224853
    Two-Electron Energy =                 664.4024167364023015
    Total Energy =                       -458.6536269161570090
  Basis Set: (AUG-CC-PVTZ AUX)
    Blend: AUG-CC-PVTZ-RI
    Molecular point group: c1

    Geometry (in Angstrom), charge = 0, multiplicity = 1:

       Center              X                  Y                   Z               Mass
    ------------   -----------------  -----------------  -----------------  -----------------
         O            1.762974793220     2.368968584697    -0.146270633598    15.994914619570
         O            1.675599793220    -2.406407415303    -0.128291633598    15.994914619570
         C           -1.021386206780    -0.007129415303     0.363758366402    12.000000000000
         C           -2.513767206780    -0.018852415303     0.563047366402    12.000000000000
         C           -0.322880206780    -1.206799415303     0.233985366402    12.000000000000
         C           -0.336873206780     1.205816584697     0.234482366402    12.000000000000
         C           -3.273384206780    -0.019159415303    -0.764717633598    12.000000000000
         C            1.034872793220     1.211256584697    -0.018491633598    12.000000000000
         C            1.048241793220    -1.190449415303    -0.019390633598    12.000000000000
         C            1.737043793220     0.015373584697    -0.146133633598    12.000000000000
         H           -2.818046606780    -0.983090415303     1.201324666402     1.007825032230
         H           -2.808103206780     0.854448584697     1.156923366402     1.007825032230
         H           -0.831051206780    -2.162957415303     0.330530366402     1.007825032230
         H           -0.878774206780     2.146240584697     0.334800366402     1.007825032230
         H           -3.022913206780     0.867850584697    -1.353163633598     1.007825032230
         H           -4.357221206780    -0.028837415303    -0.605712633598     1.007825032230
         H           -3.007463206780    -0.897537415303    -1.359064633598     1.007825032230
         H            2.807622793220     0.047355584697    -0.336640633598     1.007825032230
         H            1.159250793220     3.122896584697    -0.030360633598     1.007825032230
         H            2.621715793220    -2.253794415303    -0.298008633598     1.007825032230

  Basis Set: AUG-CC-PVTZ
    Blend: AUG-CC-PVTZ
  Basis Set: (AUG-CC-PVTZ AUX)
    Blend: AUG-CC-PVTZ-JKFIT
	 Reference Energy          =    -458.6536269161570658 [Eh]
	 Singles Energy            =      -0.0000000000000000 [Eh]
	 Same-Spin Energy          =      -0.4818176997315741 [Eh]
	 Opposite-Spin Energy      =      -1.5060541036225008 [Eh]
	 Correlation Energy        =      -1.9878718033540750 [Eh]
	 Total Energy              =    -460.6414987195111621 [Eh]

	 ================> DF-SCS-MP2 Energies <==================
	-----------------------------------------------------------
	 SCS Same-Spin Scale       =       0.3333333333333333 [-]
	 SCS Opposite-Spin Scale   =       1.2000000000000000 [-]
	 SCS Same-Spin Energy      =      -0.1606058999105247 [Eh]
	 SCS Opposite-Spin Energy  =      -1.8072649243470009 [Eh]
	 SCS Correlation Energy    =      -1.9678708242575256 [Eh]
	 SCS Total Energy          =    -460.6214977404146111 [Eh]
	-----------------------------------------------------------

  Dipole Moment: [D]
     X:    -0.4622      Y:     1.2649      Z:    -0.0394     Total:     1.3472

*** Psi4 exiting successfully. Buy a developer a beer!
