                               Psi4 1.3.2 release

  ==> Input File <==

--------------------------------------------------------------------------
#psi4
#
memory 32 gb

molecule  {
0 1
  O        1.7627890     2.3683800    -0.1458810
  O        1.6754140    -2.4069960    -0.1279020
  C       -0.9582275    -0.0425136     0.3523415
  C       -2.5139530    -0.0194410     0.5634370
  C       -0.3230660    -1.2073880     0.2343750
  C       -0.3370590     1.2052280     0.2348720
  C       -3.2735700    -0.0197480    -0.7643280
  C        1.0346870     1.2106680    -0.0181020
  C        1.0480560    -1.1910380    -0.0190010
  C        1.7368580     0.0147850    -0.1457440
  H       -2.7927850    -0.9030380     1.1483340
  H       -2.8082890     0.8538600     1.1573130
  H       -0.8312370    -2.1635460     0.3309200
  H       -0.8298432     2.1732059     0.3259772
  H       -3.0230990     0.8672620    -1.3527740
  H       -4.3574070    -0.0294260    -0.6053230
  H       -3.0076490    -0.8981260    -1.3586750
  H        2.8074370     0.0467670    -0.3362510
  H        1.1590650     3.1223080    -0.0299710
  H        2.6215300    -2.2543830    -0.2976190
units angstrom
no_reorient  #important for SAPT in psi4, default
symmetry c1  #important for SAPT in psi4, default
}

set PROPERTIES_ORIGIN ["COM"]
properties('MP2/aug-cc-pvtz', properties = ['dipole'])
--------------------------------------------------------------------------

    Molecular point group: c1
  Charge       = 0
  Multiplicity = 1
  Basis Set: AUG-CC-PVTZ
    Blend: AUG-CC-PVTZ
  Basis Set: (AUG-CC-PVTZ AUX)
    Blend: AUG-CC-PVTZ-JKFIT

    Orbital Energies [Eh]
    ---------------------

    Doubly Occupied:

       1A    -20.595272     2A    -20.594849     3A    -11.310599
       4A    -11.308869     5A    -11.246883     6A    -11.233016
       7A    -11.223343     8A    -11.221371     9A    -11.217643
      10A    -11.211604    11A     -1.405668    12A     -1.402882
      13A     -1.156101    14A     -1.056279    15A     -1.007446
      16A     -0.988674    17A     -0.870442    18A     -0.839448
      19A     -0.810052    20A     -0.736664    21A     -0.692129
      22A     -0.676502    23A     -0.664334    24A     -0.606585
      25A     -0.602283    26A     -0.592880    27A     -0.589250
      28A     -0.576973    29A     -0.560092    30A     -0.546531
      31A     -0.529895    32A     -0.518979    33A     -0.488464
      34A     -0.463585    35A     -0.459499    36A     -0.331192
      37A     -0.312831

  @DF-RHF Final Energy:  -458.65462354888734

   => Energetics <=

    Nuclear Repulsion Energy =            508.0931433783363786
    One-Electron Energy =               -1632.1973213702917747
    Two-Electron Energy =                 665.4495544430679956
    Total Energy =                       -458.6546235488873435
  Basis Set: (AUG-CC-PVTZ AUX)
    Blend: AUG-CC-PVTZ-RI
    Molecular point group: c1

    Geometry (in Angstrom), charge = 0, multiplicity = 1:

       Center              X                  Y                   Z               Mass
    ------------   -----------------  -----------------  -----------------  -----------------
         O            1.756925012055     2.371203030721    -0.144787590640    15.994914619570
         O            1.669550012055    -2.404172969279    -0.126808590640    15.994914619570
         C           -0.964091487945    -0.039690569279     0.353434909360    12.000000000000
         C           -2.519816987945    -0.016617969279     0.564530409360    12.000000000000
         C           -0.328929987945    -1.204564969279     0.235468409360    12.000000000000
         C           -0.342922987945     1.208051030721     0.235965409360    12.000000000000
         C           -3.279433987945    -0.016924969279    -0.763234590640    12.000000000000
         C            1.028823012055     1.213491030721    -0.017008590640    12.000000000000
         C            1.042192012055    -1.188214969279    -0.017907590640    12.000000000000
         C            1.730994012055     0.017608030721    -0.144650590640    12.000000000000
         H           -2.798648987945    -0.900214969279     1.149427409360     1.007825032230
         H           -2.814152987945     0.856683030721     1.158406409360     1.007825032230
         H           -0.837100987945    -2.160722969279     0.332013409360     1.007825032230
         H           -0.835707187945     2.176028930721     0.327070609360     1.007825032230
         H           -3.028962987945     0.870085030721    -1.351680590640     1.007825032230
         H           -4.363270987945    -0.026602969279    -0.604229590640     1.007825032230
         H           -3.013512987945    -0.895302969279    -1.357581590640     1.007825032230
         H            2.801573012055     0.049590030721    -0.335157590640     1.007825032230
         H            1.153201012055     3.125131030721    -0.028877590640     1.007825032230
         H            2.615666012055    -2.251559969279    -0.296525590640     1.007825032230

  Basis Set: AUG-CC-PVTZ
    Blend: AUG-CC-PVTZ
  Basis Set: (AUG-CC-PVTZ AUX)
    Blend: AUG-CC-PVTZ-JKFIT
	 Reference Energy          =    -458.6546235488873435 [Eh]
	 Singles Energy            =      -0.0000000000000000 [Eh]
	 Same-Spin Energy          =      -0.4811681496283461 [Eh]
	 Opposite-Spin Energy      =      -1.5045920248233262 [Eh]
	 Correlation Energy        =      -1.9857601744516722 [Eh]
	 Total Energy              =    -460.6403837233390277 [Eh]

	 ================> DF-SCS-MP2 Energies <==================
	-----------------------------------------------------------
	 SCS Same-Spin Scale       =       0.3333333333333333 [-]
	 SCS Opposite-Spin Scale   =       1.2000000000000000 [-]
	 SCS Same-Spin Energy      =      -0.1603893832094487 [Eh]
	 SCS Opposite-Spin Energy  =      -1.8055104297879914 [Eh]
	 SCS Correlation Energy    =      -1.9658998129974401 [Eh]
	 SCS Total Energy          =    -460.6205233618848069 [Eh]
	-----------------------------------------------------------

  Dipole Moment: [D]
     X:    -0.3928      Y:     1.1805      Z:     0.0068     Total:     1.2442

*** Psi4 exiting successfully. Buy a developer a beer!
