                               Psi4 1.3.2 release

  ==> Input File <==

--------------------------------------------------------------------------
#psi4
#
memory 32 gb

molecule  {
0 1
  O        1.7225792     2.3934733    -0.1386544
  O        1.6754140    -2.4069960    -0.1279020
  C       -1.0215720    -0.0077180     0.3641480
  C       -2.5139530    -0.0194410     0.5634370
  C       -0.3230660    -1.2073880     0.2343750
  C       -0.3370590     1.2052280     0.2348720
  C       -3.2735700    -0.0197480    -0.7643280
  C        1.0346870     1.2106680    -0.0181020
  C        1.0480560    -1.1910380    -0.0190010
  C        1.6953359    -0.0093933    -0.1383772
  H       -2.7927850    -0.9030380     1.1483340
  H       -2.8082890     0.8538600     1.1573130
  H       -0.8312370    -2.1635460     0.3309200
  H       -0.8789600     2.1456520     0.3351900
  H       -3.0230990     0.8672620    -1.3527740
  H       -4.3574070    -0.0294260    -0.6053230
  H       -3.0076490    -0.8981260    -1.3586750
  H        2.8074370     0.0467670    -0.3362510
  H        1.1590650     3.1223080    -0.0299710
  H        2.6215300    -2.2543830    -0.2976190
units angstrom
no_reorient  #important for SAPT in psi4, default
symmetry c1  #important for SAPT in psi4, default
}

set PROPERTIES_ORIGIN ["COM"]
properties('MP2/aug-cc-pvtz', properties = ['dipole'])
--------------------------------------------------------------------------

    Molecular point group: c1
  Charge       = 0
  Multiplicity = 1
  Basis Set: AUG-CC-PVTZ
    Blend: AUG-CC-PVTZ
  Basis Set: (AUG-CC-PVTZ AUX)
    Blend: AUG-CC-PVTZ-JKFIT

    Orbital Energies [Eh]
    ---------------------

    Doubly Occupied:

       1A    -20.592956     2A    -20.592232     3A    -11.312143
       4A    -11.303740     5A    -11.249552     6A    -11.231430
       7A    -11.225936     8A    -11.222144     9A    -11.219227
      10A    -11.216098    11A     -1.413958    12A     -1.402417
      13A     -1.154670    14A     -1.066969    15A     -1.004327
      16A     -0.988424    17A     -0.874741    18A     -0.846641
      19A     -0.809219    20A     -0.742705    21A     -0.695322
      22A     -0.678727    23A     -0.663887    24A     -0.611525
      25A     -0.603496    26A     -0.595390    27A     -0.584805
      28A     -0.577799    29A     -0.554785    30A     -0.543437
      31A     -0.525717    32A     -0.519553    33A     -0.487182
      34A     -0.479402    35A     -0.456616    36A     -0.329947
      37A     -0.311127

  @DF-RHF Final Energy:  -458.65739330484035

   => Energetics <=

    Nuclear Repulsion Energy =            508.4890031144042268
    One-Electron Energy =               -1632.9162985308951193
    Two-Electron Energy =                 665.7699021116503673
    Total Energy =                       -458.6573933048404115
  Basis Set: (AUG-CC-PVTZ AUX)
    Blend: AUG-CC-PVTZ-RI
    Molecular point group: c1

    Geometry (in Angstrom), charge = 0, multiplicity = 1:

       Center              X                  Y                   Z               Mass
    ------------   -----------------  -----------------  -----------------  -----------------
         O            1.730846303504     2.392667662295    -0.140131848014    15.994914619570
         O            1.683681103504    -2.407801637705    -0.129379448014    15.994914619570
         C           -1.013304896496    -0.008523637705     0.362670551986    12.000000000000
         C           -2.505685896496    -0.020246637705     0.561959551986    12.000000000000
         C           -0.314798896496    -1.208193637705     0.232897551986    12.000000000000
         C           -0.328791896496     1.204422362295     0.233394551986    12.000000000000
         C           -3.265302896496    -0.020553637705    -0.765805448014    12.000000000000
         C            1.042954103504     1.209862362295    -0.019579448014    12.000000000000
         C            1.056323103504    -1.191843637705    -0.020478448014    12.000000000000
         C            1.703603003504    -0.010198937705    -0.139854648014    12.000000000000
         H           -2.784517896496    -0.903843637705     1.146856551986     1.007825032230
         H           -2.800021896496     0.853054362295     1.155835551986     1.007825032230
         H           -0.822969896496    -2.164351637705     0.329442551986     1.007825032230
         H           -0.870692896496     2.144846362295     0.333712551986     1.007825032230
         H           -3.014831896496     0.866456362295    -1.354251448014     1.007825032230
         H           -4.349139896496    -0.030231637705    -0.606800448014     1.007825032230
         H           -2.999381896496    -0.898931637705    -1.360152448014     1.007825032230
         H            2.815704103504     0.045961362295    -0.337728448014     1.007825032230
         H            1.167332103504     3.121502362295    -0.031448448014     1.007825032230
         H            2.629797103504    -2.255188637705    -0.299096448014     1.007825032230

  Basis Set: AUG-CC-PVTZ
    Blend: AUG-CC-PVTZ
  Basis Set: (AUG-CC-PVTZ AUX)
    Blend: AUG-CC-PVTZ-JKFIT
	 Reference Energy          =    -458.6573933048403546 [Eh]
	 Singles Energy            =      -0.0000000000000000 [Eh]
	 Same-Spin Energy          =      -0.4812959331872321 [Eh]
	 Opposite-Spin Energy      =      -1.5037790131077093 [Eh]
	 Correlation Energy        =      -1.9850749462949415 [Eh]
	 Total Energy              =    -460.6424682511353126 [Eh]

	 ================> DF-SCS-MP2 Energies <==================
	-----------------------------------------------------------
	 SCS Same-Spin Scale       =       0.3333333333333333 [-]
	 SCS Opposite-Spin Scale   =       1.2000000000000000 [-]
	 SCS Same-Spin Energy      =      -0.1604319777290774 [Eh]
	 SCS Opposite-Spin Energy  =      -1.8045348157292511 [Eh]
	 SCS Correlation Energy    =      -1.9649667934583284 [Eh]
	 SCS Total Energy          =    -460.6223600982986568 [Eh]
	-----------------------------------------------------------

  Dipole Moment: [D]
     X:    -0.4703      Y:     1.2305      Z:     0.0069     Total:     1.3174

*** Psi4 exiting successfully. Buy a developer a beer!
