                               Psi4 1.3.2 release

  ==> Input File <==

--------------------------------------------------------------------------
#psi4
#
memory 32 gb

molecule  {
0 1
  O        1.7627890     2.3683800    -0.1458810
  O        1.6754140    -2.4069960    -0.1279020
  C       -1.0215720    -0.0077180     0.3641480
  C       -2.5139530    -0.0194410     0.5634370
  C       -0.2729673    -1.2934315     0.2250673
  C       -0.3370590     1.2052280     0.2348720
  C       -3.2735700    -0.0197480    -0.7643280
  C        1.0346870     1.2106680    -0.0181020
  C        1.0480560    -1.1910380    -0.0190010
  C        1.7368580     0.0147850    -0.1457440
  H       -2.7927850    -0.9030380     1.1483340
  H       -2.8082890     0.8538600     1.1573130
  H       -0.8312370    -2.1635460     0.3309200
  H       -0.8789600     2.1456520     0.3351900
  H       -3.0230990     0.8672620    -1.3527740
  H       -4.3574070    -0.0294260    -0.6053230
  H       -3.0076490    -0.8981260    -1.3586750
  H        2.8074370     0.0467670    -0.3362510
  H        1.1590650     3.1223080    -0.0299710
  H        2.6215300    -2.2543830    -0.2976190
units angstrom
no_reorient  #important for SAPT in psi4, default
symmetry c1  #important for SAPT in psi4, default
}

set PROPERTIES_ORIGIN ["COM"]
properties('MP2/aug-cc-pvtz', properties = ['dipole'])
--------------------------------------------------------------------------

    Molecular point group: c1
  Charge       = 0
  Multiplicity = 1
  Basis Set: AUG-CC-PVTZ
    Blend: AUG-CC-PVTZ
  Basis Set: (AUG-CC-PVTZ AUX)
    Blend: AUG-CC-PVTZ-JKFIT

    Orbital Energies [Eh]
    ---------------------

    Doubly Occupied:

       1A    -20.597382     2A    -20.586013     3A    -11.312511
       4A    -11.300649     5A    -11.263244     6A    -11.234278
       7A    -11.226098     8A    -11.222991     9A    -11.221235
      10A    -11.214144    11A     -1.406544    12A     -1.398315
      13A     -1.144196    14A     -1.063614    15A     -1.008007
      16A     -0.984606    17A     -0.879351    18A     -0.835010
      19A     -0.803434    20A     -0.740118    21A     -0.691664
      22A     -0.677305    23A     -0.661746    24A     -0.612659
      25A     -0.602052    26A     -0.596881    27A     -0.588971
      28A     -0.575479    29A     -0.552843    30A     -0.546514
      31A     -0.527729    32A     -0.521144    33A     -0.488282
      34A     -0.481851    35A     -0.450014    36A     -0.324250
      37A     -0.311056

  @DF-RHF Final Energy:  -458.64815002281836

   => Energetics <=

    Nuclear Repulsion Energy =            506.6677730042433154
    One-Electron Energy =               -1629.3274839572716246
    Two-Electron Energy =                 664.0115609302098392
    Total Energy =                       -458.6481500228184132
  Basis Set: (AUG-CC-PVTZ AUX)
    Blend: AUG-CC-PVTZ-RI
    Molecular point group: c1

    Geometry (in Angstrom), charge = 0, multiplicity = 1:

       Center              X                  Y                   Z               Mass
    ------------   -----------------  -----------------  -----------------  -----------------
         O            1.758434779854     2.375858301600    -0.145072019095    15.994914619570
         O            1.671059779854    -2.399517698400    -0.127093019095    15.994914619570
         C           -1.025926220146    -0.000239698400     0.364956980905    12.000000000000
         C           -2.518307220146    -0.011962698400     0.564245980905    12.000000000000
         C           -0.277321520146    -1.285953198400     0.225876280905    12.000000000000
         C           -0.341413220146     1.212706301600     0.235680980905    12.000000000000
         C           -3.277924220146    -0.012269698400    -0.763519019095    12.000000000000
         C            1.030332779854     1.218146301600    -0.017293019095    12.000000000000
         C            1.043701779854    -1.183559698400    -0.018192019095    12.000000000000
         C            1.732503779854     0.022263301600    -0.144935019095    12.000000000000
         H           -2.797139220146    -0.895559698400     1.149142980905     1.007825032230
         H           -2.812643220146     0.861338301600     1.158121980905     1.007825032230
         H           -0.835591220146    -2.156067698400     0.331728980905     1.007825032230
         H           -0.883314220146     2.153130301600     0.335998980905     1.007825032230
         H           -3.027453220146     0.874740301600    -1.351965019095     1.007825032230
         H           -4.361761220146    -0.021947698400    -0.604514019095     1.007825032230
         H           -3.012003220146    -0.890647698400    -1.357866019095     1.007825032230
         H            2.803082779854     0.054245301600    -0.335442019095     1.007825032230
         H            1.154710779854     3.129786301600    -0.029162019095     1.007825032230
         H            2.617175779854    -2.246904698400    -0.296810019095     1.007825032230

  Basis Set: AUG-CC-PVTZ
    Blend: AUG-CC-PVTZ
  Basis Set: (AUG-CC-PVTZ AUX)
    Blend: AUG-CC-PVTZ-JKFIT
	 Reference Energy          =    -458.6481500228183563 [Eh]
	 Singles Energy            =      -0.0000000000000000 [Eh]
	 Same-Spin Energy          =      -0.4815905638735322 [Eh]
	 Opposite-Spin Energy      =      -1.5057046099007505 [Eh]
	 Correlation Energy        =      -1.9872951737742828 [Eh]
	 Total Energy              =    -460.6354451965926273 [Eh]

	 ================> DF-SCS-MP2 Energies <==================
	-----------------------------------------------------------
	 SCS Same-Spin Scale       =       0.3333333333333333 [-]
	 SCS Opposite-Spin Scale   =       1.2000000000000000 [-]
	 SCS Same-Spin Energy      =      -0.1605301879578441 [Eh]
	 SCS Opposite-Spin Energy  =      -1.8068455318809005 [Eh]
	 SCS Correlation Energy    =      -1.9673757198387445 [Eh]
	 SCS Total Energy          =    -460.6155257426570984 [Eh]
	-----------------------------------------------------------

  Dipole Moment: [D]
     X:    -0.6067      Y:     1.3662      Z:     0.0239     Total:     1.4951

*** Psi4 exiting successfully. Buy a developer a beer!
