                               Psi4 1.3.2 release

  ==> Input File <==

--------------------------------------------------------------------------
#psi4
#
memory 32 gb

molecule  {
0 1
  O        1.7627890     2.3683800    -0.1458810
  O        1.6754140    -2.4069960    -0.1279020
  C       -1.0226276     0.0034669     0.3573341
  C       -2.5139530    -0.0194410     0.5634370
  C       -0.3230660    -1.2073880     0.2343750
  C       -0.3370590     1.2052280     0.2348720
  C       -3.2735700    -0.0197480    -0.7643280
  C        1.0346870     1.2106680    -0.0181020
  C        1.0480560    -1.1910380    -0.0190010
  C        1.7368580     0.0147850    -0.1457440
  H       -2.8019629    -0.9003953     1.1478728
  H       -2.8082890     0.8538600     1.1573130
  H       -0.8312370    -2.1635460     0.3309200
  H       -0.8789600     2.1456520     0.3351900
  H       -3.0230990     0.8672620    -1.3527740
  H       -4.3574070    -0.0294260    -0.6053230
  H       -3.0076490    -0.8981260    -1.3586750
  H        2.8074370     0.0467670    -0.3362510
  H        1.1590650     3.1223080    -0.0299710
  H        2.6215300    -2.2543830    -0.2976190
units angstrom
no_reorient  #important for SAPT in psi4, default
symmetry c1  #important for SAPT in psi4, default
}

set PROPERTIES_ORIGIN ["COM"]
properties('MP2/aug-cc-pvtz', properties = ['dipole'])
--------------------------------------------------------------------------

    Molecular point group: c1
  Charge       = 0
  Multiplicity = 1
  Basis Set: AUG-CC-PVTZ
    Blend: AUG-CC-PVTZ
  Basis Set: (AUG-CC-PVTZ AUX)
    Blend: AUG-CC-PVTZ-JKFIT

    Orbital Energies [Eh]
    ---------------------

    Doubly Occupied:

       1A    -20.596023     2A    -20.592986     3A    -11.310866
       4A    -11.308320     5A    -11.251515     6A    -11.232137
       7A    -11.223967     8A    -11.222454     9A    -11.219589
      10A    -11.216314    11A     -1.405595    12A     -1.401642
      13A     -1.150518    14A     -1.064059    15A     -1.001296
      16A     -0.988254    17A     -0.876304    18A     -0.836472
      19A     -0.807898    20A     -0.740976    21A     -0.687532
      22A     -0.674974    23A     -0.665924    24A     -0.612811
      25A     -0.602289    26A     -0.595109    27A     -0.587340
      28A     -0.576423    29A     -0.552670    30A     -0.549048
      31A     -0.523215    32A     -0.521224    33A     -0.487558
      34A     -0.483059    35A     -0.454028    36A     -0.326268
      37A     -0.310921

  @DF-RHF Final Energy:  -458.66000137240985

   => Energetics <=

    Nuclear Repulsion Energy =            507.5122796751897454
    One-Electron Energy =               -1631.0294066401747841
    Two-Electron Energy =                 664.8571255925751302
    Total Energy =                       -458.6600013724098517
  Basis Set: (AUG-CC-PVTZ AUX)
    Blend: AUG-CC-PVTZ-RI
    Molecular point group: c1

    Geometry (in Angstrom), charge = 0, multiplicity = 1:

       Center              X                  Y                   Z               Mass
    ------------   -----------------  -----------------  -----------------  -----------------
         O            1.762947780392     2.367388536663    -0.145285397822    15.994914619570
         O            1.675572780392    -2.407987463337    -0.127306397822    15.994914619570
         C           -1.022468819608     0.002475436663     0.357929702178    12.000000000000
         C           -2.513794219608    -0.020432463337     0.564032602178    12.000000000000
         C           -0.322907219608    -1.208379463337     0.234970602178    12.000000000000
         C           -0.336900219608     1.204236536663     0.235467602178    12.000000000000
         C           -3.273411219608    -0.020739463337    -0.763732397822    12.000000000000
         C            1.034845780392     1.209676536663    -0.017506397822    12.000000000000
         C            1.048214780392    -1.192029463337    -0.018405397822    12.000000000000
         C            1.737016780392     0.013793536663    -0.145148397822    12.000000000000
         H           -2.801804119608    -0.901386763337     1.148468402178     1.007825032230
         H           -2.808130219608     0.852868536663     1.157908602178     1.007825032230
         H           -0.831078219608    -2.164537463337     0.331515602178     1.007825032230
         H           -0.878801219608     2.144660536663     0.335785602178     1.007825032230
         H           -3.022940219608     0.866270536663    -1.352178397822     1.007825032230
         H           -4.357248219608    -0.030417463337    -0.604727397822     1.007825032230
         H           -3.007490219608    -0.899117463337    -1.358079397822     1.007825032230
         H            2.807595780392     0.045775536663    -0.335655397822     1.007825032230
         H            1.159223780392     3.121316536663    -0.029375397822     1.007825032230
         H            2.621688780392    -2.255374463337    -0.297023397822     1.007825032230

  Basis Set: AUG-CC-PVTZ
    Blend: AUG-CC-PVTZ
  Basis Set: (AUG-CC-PVTZ AUX)
    Blend: AUG-CC-PVTZ-JKFIT
	 Reference Energy          =    -458.6600013724098517 [Eh]
	 Singles Energy            =      -0.0000000000000000 [Eh]
	 Same-Spin Energy          =      -0.4817489349872653 [Eh]
	 Opposite-Spin Energy      =      -1.5052285818012812 [Eh]
	 Correlation Energy        =      -1.9869775167885466 [Eh]
	 Total Energy              =    -460.6469788891984081 [Eh]

	 ================> DF-SCS-MP2 Energies <==================
	-----------------------------------------------------------
	 SCS Same-Spin Scale       =       0.3333333333333333 [-]
	 SCS Opposite-Spin Scale   =       1.2000000000000000 [-]
	 SCS Same-Spin Energy      =      -0.1605829783290884 [Eh]
	 SCS Opposite-Spin Energy  =      -1.8062742981615374 [Eh]
	 SCS Correlation Energy    =      -1.9668572764906258 [Eh]
	 SCS Total Energy          =    -460.6268586489004520 [Eh]
	-----------------------------------------------------------

  Dipole Moment: [D]
     X:    -0.5008      Y:     1.2343      Z:     0.0156     Total:     1.3321

*** Psi4 exiting successfully. Buy a developer a beer!
