                               Psi4 1.3.2 release

  ==> Input File <==

--------------------------------------------------------------------------
#psi4
#
memory 32 gb

molecule  {
0 1
  O        1.7627890     2.3683800    -0.1458810
  O        1.6754140    -2.4069960    -0.1279020
  C       -1.0215720    -0.0077180     0.3641480
  C       -2.5139530    -0.0194410     0.5634370
  C       -0.3230660    -1.2073880     0.2343750
  C       -0.3370590     1.2052280     0.2348720
  C       -3.2735700    -0.0197480    -0.7643280
  C        1.0346870     1.2106680    -0.0181020
  C        0.9862881    -1.2260282    -0.0078518
  C        1.7368580     0.0147850    -0.1457440
  H       -2.7927850    -0.9030380     1.1483340
  H       -2.8082890     0.8538600     1.1573130
  H       -0.8312370    -2.1635460     0.3309200
  H       -0.8789600     2.1456520     0.3351900
  H       -3.0230990     0.8672620    -1.3527740
  H       -4.3574070    -0.0294260    -0.6053230
  H       -3.0076490    -0.8981260    -1.3586750
  H        2.8074370     0.0467670    -0.3362510
  H        1.1590650     3.1223080    -0.0299710
  H        2.6281198    -2.3048982    -0.2986587
units angstrom
no_reorient  #important for SAPT in psi4, default
symmetry c1  #important for SAPT in psi4, default
}

set PROPERTIES_ORIGIN ["COM"]
properties('MP2/aug-cc-pvtz', properties = ['dipole'])
--------------------------------------------------------------------------

    Molecular point group: c1
  Charge       = 0
  Multiplicity = 1
  Basis Set: AUG-CC-PVTZ
    Blend: AUG-CC-PVTZ
  Basis Set: (AUG-CC-PVTZ AUX)
    Blend: AUG-CC-PVTZ-JKFIT

    Orbital Energies [Eh]
    ---------------------

    Doubly Occupied:

       1A    -20.593827     2A    -20.588543     3A    -11.308111
       4A    -11.307589     5A    -11.254127     6A    -11.233458
       7A    -11.225913     8A    -11.224075     9A    -11.220740
      10A    -11.210823    11A     -1.403231    12A     -1.396464
      13A     -1.152436    14A     -1.060312    15A     -1.013225
      16A     -0.982436    17A     -0.879160    18A     -0.830437
      19A     -0.809829    20A     -0.741022    21A     -0.686258
      22A     -0.678963    23A     -0.668794    24A     -0.612171
      25A     -0.601339    26A     -0.593780    27A     -0.586091
      28A     -0.574842    29A     -0.550825    30A     -0.548754
      31A     -0.524200    32A     -0.509091    33A     -0.490326
      34A     -0.485167    35A     -0.454233    36A     -0.321606
      37A     -0.315427

  @DF-RHF Final Energy:  -458.65296767902032

   => Energetics <=

    Nuclear Repulsion Energy =            507.4961010130666637
    One-Electron Energy =               -1631.0228872373443210
    Two-Electron Energy =                 664.8738185452573362
    Total Energy =                       -458.6529676790203212
  Basis Set: (AUG-CC-PVTZ AUX)
    Blend: AUG-CC-PVTZ-RI
    Molecular point group: c1

    Geometry (in Angstrom), charge = 0, multiplicity = 1:

       Center              X                  Y                   Z               Mass
    ------------   -----------------  -----------------  -----------------  -----------------
         O            1.768109411665     2.371789807864    -0.146842413563    15.994914619570
         O            1.680734411665    -2.403586192136    -0.128863413563    15.994914619570
         C           -1.016251588335    -0.004308192136     0.363186586437    12.000000000000
         C           -2.508632588335    -0.016031192136     0.562475586437    12.000000000000
         C           -0.317745588335    -1.203978192136     0.233413586437    12.000000000000
         C           -0.331738588335     1.208637807864     0.233910586437    12.000000000000
         C           -3.268249588335    -0.016338192136    -0.765289413563    12.000000000000
         C            1.040007411665     1.214077807864    -0.019063413563    12.000000000000
         C            0.991608511665    -1.222618392136    -0.008813213563    12.000000000000
         C            1.742178411665     0.018194807864    -0.146705413563    12.000000000000
         H           -2.787464588335    -0.899628192136     1.147372586437     1.007825032230
         H           -2.802968588335     0.857269807864     1.156351586437     1.007825032230
         H           -0.825916588335    -2.160136192136     0.329958586437     1.007825032230
         H           -0.873639588335     2.149061807864     0.334228586437     1.007825032230
         H           -3.017778588335     0.870671807864    -1.353735413563     1.007825032230
         H           -4.352086588335    -0.026016192136    -0.606284413563     1.007825032230
         H           -3.002328588335    -0.894716192136    -1.359636413563     1.007825032230
         H            2.812757411665     0.050176807864    -0.337212413563     1.007825032230
         H            1.164385411665     3.125717807864    -0.030932413563     1.007825032230
         H            2.633440211665    -2.301488392136    -0.299620113563     1.007825032230

  Basis Set: AUG-CC-PVTZ
    Blend: AUG-CC-PVTZ
  Basis Set: (AUG-CC-PVTZ AUX)
    Blend: AUG-CC-PVTZ-JKFIT
	 Reference Energy          =    -458.6529676790203212 [Eh]
	 Singles Energy            =      -0.0000000000000000 [Eh]
	 Same-Spin Energy          =      -0.4814960268845749 [Eh]
	 Opposite-Spin Energy      =      -1.5050624247012059 [Eh]
	 Correlation Energy        =      -1.9865584515857808 [Eh]
	 Total Energy              =    -460.6395261306061002 [Eh]

	 ================> DF-SCS-MP2 Energies <==================
	-----------------------------------------------------------
	 SCS Same-Spin Scale       =       0.3333333333333333 [-]
	 SCS Opposite-Spin Scale   =       1.2000000000000000 [-]
	 SCS Same-Spin Energy      =      -0.1604986756281916 [Eh]
	 SCS Opposite-Spin Energy  =      -1.8060749096414470 [Eh]
	 SCS Correlation Energy    =      -1.9665735852696387 [Eh]
	 SCS Total Energy          =    -460.6195412642899782 [Eh]
	-----------------------------------------------------------

  Dipole Moment: [D]
     X:    -0.5697      Y:     1.1537      Z:     0.0208     Total:     1.2869

*** Psi4 exiting successfully. Buy a developer a beer!
