                               Psi4 1.4a3.dev225

  ==> Input File <==

--------------------------------------------------------------------------
#psi4
#
memory 32 gb

molecule  {
0 1
  O       -1.8116000     2.3801270     0.1363720
  O       -1.7799440    -2.3994320     0.1189850
  C        0.9489570    -0.0306590    -0.3689570
  C        2.4429910    -0.0568610    -0.5708560
  C        0.2354480    -1.2220220    -0.2373930
  C        0.2798030     1.1938580    -0.2383990
  C        3.1984060    -0.0265600     0.7613490
  C       -1.0921630     1.2139390     0.0079710
  C       -1.1396310    -1.1871160     0.0102260
  C       -1.8132500     0.0254130     0.1385790
  H        2.7180680    -0.9584190    -1.1301260
  H        2.7446220     0.7994920    -1.1857830
  H        0.7258350    -2.1872220    -0.3369480
  H        0.8309290     2.1284970    -0.3452230
  H        2.9508560     0.8787730     1.3230630
  H        4.2811760    -0.0477390     0.6027570
  H        2.9230980    -0.8883860     1.3756490
  H       -2.8837580     0.0741080     0.3259950
  H       -1.2105632     3.1120658     0.0268113
  H       -2.7238770    -2.2320380     0.2881370
units angstrom
no_reorient  #important for SAPT in psi4, default
symmetry c1  #important for SAPT in psi4, default
}

set PROPERTIES_ORIGIN ["COM"]
properties('MP2/aug-cc-pvtz', properties = ['dipole'])
--------------------------------------------------------------------------

    Molecular point group: c1
  Charge       = 0
  Multiplicity = 1
  Basis Set: AUG-CC-PVTZ
    Blend: AUG-CC-PVTZ
  Basis Set: (AUG-CC-PVTZ AUX)
    Blend: AUG-CC-PVTZ-JKFIT

    Orbital Energies [Eh]
    ---------------------

    Doubly Occupied:

       1A    -20.594029     2A    -20.593460     3A    -11.311327
       4A    -11.309345     5A    -11.252460     6A    -11.232685
       7A    -11.224687     8A    -11.223561     9A    -11.219935
      10A    -11.217028    11A     -1.408258    12A     -1.401331
      13A     -1.150099    14A     -1.063860    15A     -1.001563
      16A     -0.987996    17A     -0.876460    18A     -0.837894
      19A     -0.808106    20A     -0.740645    21A     -0.687439
      22A     -0.675855    23A     -0.665784    24A     -0.612186
      25A     -0.602555    26A     -0.595542    27A     -0.587568
      28A     -0.576186    29A     -0.553800    30A     -0.548936
      31A     -0.523670    32A     -0.521599    33A     -0.488409
      34A     -0.482894    35A     -0.453972    36A     -0.326079
      37A     -0.311747

  @DF-RHF Final Energy:  -458.66058599976128

   => Energetics <=

    Nuclear Repulsion Energy =            507.2073010038938037
    One-Electron Energy =               -1630.3978714606250833
    Two-Electron Energy =                 664.5299844569698280
    Total Energy =                       -458.6605859997613379
  Basis Set: (AUG-CC-PVTZ AUX)
    Blend: AUG-CC-PVTZ-RI
    Molecular point group: c1

    Geometry (in Angstrom), charge = 0, multiplicity = 1:

       Center              X                  Y                   Z               Mass
    ------------   -----------------  -----------------  -----------------  -----------------
         O           -1.737127444052     2.385229061249     0.143134061584    15.994914619570
         O           -1.705471444052    -2.394329938751     0.125747061584    15.994914619570
         C            1.023429555948    -0.025556938751    -0.362194938416    12.000000000000
         C            2.517463555948    -0.051758938751    -0.564093938416    12.000000000000
         C            0.309920555948    -1.216919938751    -0.230630938416    12.000000000000
         C            0.354275555948     1.198960061249    -0.231636938416    12.000000000000
         C            3.272878555948    -0.021457938751     0.768111061584    12.000000000000
         C           -1.017690444052     1.219041061249     0.014733061584    12.000000000000
         C           -1.065158444052    -1.182013938751     0.016988061584    12.000000000000
         C           -1.738777444052     0.030515061249     0.145341061584    12.000000000000
         H            2.792540555948    -0.953316938751    -1.123363938416     1.007825032230
         H            2.819094555948     0.804594061249    -1.179020938416     1.007825032230
         H            0.800307555948    -2.182119938751    -0.330185938416     1.007825032230
         H            0.905401555948     2.133599061249    -0.338460938416     1.007825032230
         H            3.025328555948     0.883875061249     1.329825061584     1.007825032230
         H            4.355648555948    -0.042636938751     0.609519061584     1.007825032230
         H            2.997570555948    -0.883283938751     1.382411061584     1.007825032230
         H           -2.809285444052     0.079210061249     0.332757061584     1.007825032230
         H           -1.136090644052     3.117167861249     0.033573361584     1.007825032230
         H           -2.649404444052    -2.226935938751     0.294899061584     1.007825032230

  Basis Set: AUG-CC-PVTZ
    Blend: AUG-CC-PVTZ
  Basis Set: (AUG-CC-PVTZ AUX)
    Blend: AUG-CC-PVTZ-JKFIT
	 Reference Energy          =    -458.6605859997612811 [Eh]
	 Singles Energy            =      -0.0000000000000000 [Eh]
	 Same-Spin Energy          =      -0.4814842425241828 [Eh]
	 Opposite-Spin Energy      =      -1.5048704801099879 [Eh]
	 Correlation Energy        =      -1.9863547226341707 [Eh]
	 Total Energy              =    -460.6469407223954704 [Eh]

	 ================> DF-SCS-MP2 Energies <==================
	-----------------------------------------------------------
	 SCS Same-Spin Scale       =       0.3333333333333333 [-]
	 SCS Opposite-Spin Scale   =       1.2000000000000000 [-]
	 SCS Same-Spin Energy      =      -0.1604947475080609 [Eh]
	 SCS Opposite-Spin Energy  =      -1.8058445761319855 [Eh]
	 SCS Correlation Energy    =      -1.9663393236400464 [Eh]
	 SCS Total Energy          =    -460.6269253234013377 [Eh]
	-----------------------------------------------------------

  Dipole Moment: [D]
     X:     0.5241      Y:     1.2016      Z:    -0.0165     Total:     1.3110

*** Psi4 exiting successfully. Buy a developer a beer!
