                               Psi4 1.3.2 release

  ==> Input File <==

--------------------------------------------------------------------------
#psi4
#
memory 32 gb

molecule  {
0 1
  O        1.7627890     2.3683800    -0.1458810
  O        1.6754140    -2.4069960    -0.1279020
  C       -1.0215720    -0.0077180     0.3641480
  C       -2.5139530    -0.0194410     0.5634370
  C       -0.3230660    -1.2073880     0.2343750
  C       -0.3370590     1.2052280     0.2348720
  C       -3.2735700    -0.0197480    -0.7643280
  C        1.0346870     1.2106680    -0.0181020
  C        1.0480560    -1.1910380    -0.0190010
  C        1.7368580     0.0147850    -0.1457440
  H       -2.7927850    -0.9030380     1.1483340
  H       -2.8082890     0.8538600     1.1573130
  H       -0.8779824    -2.2515005     0.3398009
  H       -0.8789600     2.1456520     0.3351900
  H       -3.0230990     0.8672620    -1.3527740
  H       -4.3574070    -0.0294260    -0.6053230
  H       -3.0076490    -0.8981260    -1.3586750
  H        2.8074370     0.0467670    -0.3362510
  H        1.1590650     3.1223080    -0.0299710
  H        2.6215300    -2.2543830    -0.2976190
units angstrom
no_reorient  #important for SAPT in psi4, default
symmetry c1  #important for SAPT in psi4, default
}

set PROPERTIES_ORIGIN ["COM"]
properties('MP2/aug-cc-pvtz', properties = ['dipole'])
--------------------------------------------------------------------------

    Molecular point group: c1
  Charge       = 0
  Multiplicity = 1
  Basis Set: AUG-CC-PVTZ
    Blend: AUG-CC-PVTZ
  Basis Set: (AUG-CC-PVTZ AUX)
    Blend: AUG-CC-PVTZ-JKFIT

    Orbital Energies [Eh]
    ---------------------

    Doubly Occupied:

       1A    -20.596052     2A    -20.593378     3A    -11.310943
       4A    -11.309908     5A    -11.252400     6A    -11.232052
       7A    -11.227029     8A    -11.224757     9A    -11.223537
      10A    -11.219590    11A     -1.405704    12A     -1.401950
      13A     -1.150585    14A     -1.064226    15A     -0.999336
      16A     -0.987826    17A     -0.876645    18A     -0.834128
      19A     -0.808171    20A     -0.739672    21A     -0.685201
      22A     -0.673484    23A     -0.660948    24A     -0.612110
      25A     -0.602620    26A     -0.595519    27A     -0.581452
      28A     -0.576674    29A     -0.553166    30A     -0.548441
      31A     -0.523319    32A     -0.513566    33A     -0.487803
      34A     -0.481783    35A     -0.454498    36A     -0.326533
      37A     -0.311906

  @DF-RHF Final Energy:  -458.65276987127146

   => Energetics <=

    Nuclear Repulsion Energy =            507.0007285247811524
    One-Electron Energy =               -1630.0131750045868557
    Two-Electron Energy =                 664.3596766085343006
    Total Energy =                       -458.6527698712714027
  Basis Set: (AUG-CC-PVTZ AUX)
    Blend: AUG-CC-PVTZ-RI
    Molecular point group: c1

    Geometry (in Angstrom), charge = 0, multiplicity = 1:

       Center              X                  Y                   Z               Mass
    ------------   -----------------  -----------------  -----------------  -----------------
         O            1.763130257522     2.369021969436    -0.145945811167    15.994914619570
         O            1.675755257522    -2.406354030564    -0.127966811167    15.994914619570
         C           -1.021230742478    -0.007076030564     0.364083188833    12.000000000000
         C           -2.513611742478    -0.018799030564     0.563372188833    12.000000000000
         C           -0.322724742478    -1.206746030564     0.234310188833    12.000000000000
         C           -0.336717742478     1.205869969436     0.234807188833    12.000000000000
         C           -3.273228742478    -0.019106030564    -0.764392811167    12.000000000000
         C            1.035028257522     1.211309969436    -0.018166811167    12.000000000000
         C            1.048397257522    -1.190396030564    -0.019065811167    12.000000000000
         C            1.737199257522     0.015426969436    -0.145808811167    12.000000000000
         H           -2.792443742478    -0.902396030564     1.148269188833     1.007825032230
         H           -2.807947742478     0.854501969436     1.157248188833     1.007825032230
         H           -0.877641142478    -2.250858530564     0.339736088833     1.007825032230
         H           -0.878618742478     2.146293969436     0.335125188833     1.007825032230
         H           -3.022757742478     0.867903969436    -1.352838811167     1.007825032230
         H           -4.357065742478    -0.028784030564    -0.605387811167     1.007825032230
         H           -3.007307742478    -0.897484030564    -1.358739811167     1.007825032230
         H            2.807778257522     0.047408969436    -0.336315811167     1.007825032230
         H            1.159406257522     3.122949969436    -0.030035811167     1.007825032230
         H            2.621871257522    -2.253741030564    -0.297683811167     1.007825032230

  Basis Set: AUG-CC-PVTZ
    Blend: AUG-CC-PVTZ
  Basis Set: (AUG-CC-PVTZ AUX)
    Blend: AUG-CC-PVTZ-JKFIT
	 Reference Energy          =    -458.6527698712714596 [Eh]
	 Singles Energy            =      -0.0000000000000000 [Eh]
	 Same-Spin Energy          =      -0.4820178340047602 [Eh]
	 Opposite-Spin Energy      =      -1.5061399690644448 [Eh]
	 Correlation Energy        =      -1.9881578030692051 [Eh]
	 Total Energy              =    -460.6409276743406735 [Eh]

	 ================> DF-SCS-MP2 Energies <==================
	-----------------------------------------------------------
	 SCS Same-Spin Scale       =       0.3333333333333333 [-]
	 SCS Opposite-Spin Scale   =       1.2000000000000000 [-]
	 SCS Same-Spin Energy      =      -0.1606726113349201 [Eh]
	 SCS Opposite-Spin Energy  =      -1.8073679628773336 [Eh]
	 SCS Correlation Energy    =      -1.9680405742122535 [Eh]
	 SCS Total Energy          =    -460.6208104454836985 [Eh]
	-----------------------------------------------------------

  Dipole Moment: [D]
     X:    -0.4830      Y:     1.2419      Z:     0.0065     Total:     1.3325

*** Psi4 exiting successfully. Buy a developer a beer!
