                               Psi4 1.3.2 release

  ==> Input File <==

--------------------------------------------------------------------------
#psi4
#
memory 32 gb

molecule  {
0 1
  O        1.7627890     2.3683800    -0.1458810
  O        1.6754140    -2.4069960    -0.1279020
  C       -1.0215720    -0.0077180     0.3641480
  C       -2.5139530    -0.0194410     0.5634370
  C       -0.3230660    -1.2073880     0.2343750
  C       -0.3370590     1.2052280     0.2348720
  C       -3.2735700    -0.0197480    -0.7643280
  C        1.0336682     1.2593452    -0.0178944
  C        1.0480560    -1.1910380    -0.0190010
  C        1.7368580     0.0147850    -0.1457440
  H       -2.7927850    -0.9030380     1.1483340
  H       -2.8082890     0.8538600     1.1573130
  H       -0.8312370    -2.1635460     0.3309200
  H       -0.8463524     2.1643125     0.3291841
  H       -3.0230990     0.8672620    -1.3527740
  H       -4.3574070    -0.0294260    -0.6053230
  H       -3.0076490    -0.8981260    -1.3586750
  H        2.8074370     0.0467670    -0.3362510
  H        1.1590650     3.1223080    -0.0299710
  H        2.6215300    -2.2543830    -0.2976190
units angstrom
no_reorient  #important for SAPT in psi4, default
symmetry c1  #important for SAPT in psi4, default
}

set PROPERTIES_ORIGIN ["COM"]
properties('MP2/aug-cc-pvtz', properties = ['dipole'])
--------------------------------------------------------------------------

    Molecular point group: c1
  Charge       = 0
  Multiplicity = 1
  Basis Set: AUG-CC-PVTZ
    Blend: AUG-CC-PVTZ
  Basis Set: (AUG-CC-PVTZ AUX)
    Blend: AUG-CC-PVTZ-JKFIT

    Orbital Energies [Eh]
    ---------------------

    Doubly Occupied:

       1A    -20.605096     2A    -20.591428     3A    -11.313918
       4A    -11.306620     5A    -11.251478     6A    -11.231508
       7A    -11.224152     8A    -11.221681     9A    -11.218972
      10A    -11.214485    11A     -1.428591    12A     -1.400487
      13A     -1.145882    14A     -1.059216    15A     -1.000860
      16A     -0.983621    17A     -0.875850    18A     -0.839603
      19A     -0.809326    20A     -0.744492    21A     -0.687147
      22A     -0.678270    23A     -0.663872    24A     -0.615079
      25A     -0.609032    26A     -0.596228    27A     -0.589628
      28A     -0.580341    29A     -0.553473    30A     -0.545307
      31A     -0.521230    32A     -0.515769    33A     -0.487282
      34A     -0.481818    35A     -0.451204    36A     -0.321503
      37A     -0.308470

  @DF-RHF Final Energy:  -458.65701367795185

   => Energetics <=

    Nuclear Repulsion Energy =            507.2071482869864099
    One-Electron Energy =               -1630.3824865428048270
    Two-Electron Energy =                 664.5183245778664514
    Total Energy =                       -458.6570136779519089
  Basis Set: (AUG-CC-PVTZ AUX)
    Blend: AUG-CC-PVTZ-RI
    Molecular point group: c1

    Geometry (in Angstrom), charge = 0, multiplicity = 1:

       Center              X                  Y                   Z               Mass
    ------------   -----------------  -----------------  -----------------  -----------------
         O            1.762639569595     2.364013022632    -0.145855188557    15.994914619570
         O            1.675264569595    -2.411362977368    -0.127876188557    15.994914619570
         C           -1.021721430405    -0.012084977368     0.364173811443    12.000000000000
         C           -2.514102430405    -0.023807977368     0.563462811443    12.000000000000
         C           -0.323215430405    -1.211754977368     0.234400811443    12.000000000000
         C           -0.337208430405     1.200861022632     0.234897811443    12.000000000000
         C           -3.273719430405    -0.024114977368    -0.764302188557    12.000000000000
         C            1.033518769595     1.254978222632    -0.017868588557    12.000000000000
         C            1.047906569595    -1.195404977368    -0.018975188557    12.000000000000
         C            1.736708569595     0.010418022632    -0.145718188557    12.000000000000
         H           -2.792934430405    -0.907404977368     1.148359811443     1.007825032230
         H           -2.808438430405     0.849493022632     1.157338811443     1.007825032230
         H           -0.831386430405    -2.167912977368     0.330945811443     1.007825032230
         H           -0.846501830405     2.159945522632     0.329209911443     1.007825032230
         H           -3.023248430405     0.862895022632    -1.352748188557     1.007825032230
         H           -4.357556430405    -0.033792977368    -0.605297188557     1.007825032230
         H           -3.007798430405    -0.902492977368    -1.358649188557     1.007825032230
         H            2.807287569595     0.042400022632    -0.336225188557     1.007825032230
         H            1.158915569595     3.117941022632    -0.029945188557     1.007825032230
         H            2.621380569595    -2.258749977368    -0.297593188557     1.007825032230

  Basis Set: AUG-CC-PVTZ
    Blend: AUG-CC-PVTZ
  Basis Set: (AUG-CC-PVTZ AUX)
    Blend: AUG-CC-PVTZ-JKFIT
	 Reference Energy          =    -458.6570136779518521 [Eh]
	 Singles Energy            =      -0.0000000000000000 [Eh]
	 Same-Spin Energy          =      -0.4817783642843654 [Eh]
	 Opposite-Spin Energy      =      -1.5051614987209563 [Eh]
	 Correlation Energy        =      -1.9869398630053217 [Eh]
	 Total Energy              =    -460.6439535409571704 [Eh]

	 ================> DF-SCS-MP2 Energies <==================
	-----------------------------------------------------------
	 SCS Same-Spin Scale       =       0.3333333333333333 [-]
	 SCS Opposite-Spin Scale   =       1.2000000000000000 [-]
	 SCS Same-Spin Energy      =      -0.1605927880947885 [Eh]
	 SCS Opposite-Spin Energy  =      -1.8061937984651475 [Eh]
	 SCS Correlation Energy    =      -1.9667865865599359 [Eh]
	 SCS Total Energy          =    -460.6238002645117717 [Eh]
	-----------------------------------------------------------

  Dipole Moment: [D]
     X:    -0.3721      Y:     1.4974      Z:    -0.0079     Total:     1.5429

*** Psi4 exiting successfully. Buy a developer a beer!
