                               Psi4 1.3.2 release

  ==> Input File <==

--------------------------------------------------------------------------
#psi4
#
memory 32 gb

molecule  {
0 1
  O        1.7627890     2.3683800    -0.1458810
  O        1.6754140    -2.4069960    -0.1279020
  C       -1.0215720    -0.0077180     0.3641480
  C       -2.5139530    -0.0194410     0.5634370
  C       -0.3230660    -1.2073880     0.2343750
  C       -0.3370590     1.2052280     0.2348720
  C       -3.2735700    -0.0197480    -0.7643280
  C        1.0346870     1.2106680    -0.0181020
  C        1.0480560    -1.1910380    -0.0190010
  C        1.7368580     0.0147850    -0.1457440
  H       -2.7927850    -0.9030380     1.1483340
  H       -2.8082890     0.8538600     1.1573130
  H       -0.8312370    -2.1635460     0.3309200
  H       -0.8789600     2.1456520     0.3351900
  H       -3.0230990     0.8672620    -1.3527740
  H       -4.3574070    -0.0294260    -0.6053230
  H       -3.0076490    -0.8981260    -1.3586750
  H        2.8074370     0.0467670    -0.3362510
  H        1.1590650     3.1223080    -0.0299710
  H        2.5243187    -2.2700636    -0.2801810
units angstrom
no_reorient  #important for SAPT in psi4, default
symmetry c1  #important for SAPT in psi4, default
}

set PROPERTIES_ORIGIN ["COM"]
properties('MP2/aug-cc-pvtz', properties = ['dipole'])
--------------------------------------------------------------------------

    Molecular point group: c1
  Charge       = 0
  Multiplicity = 1
  Basis Set: AUG-CC-PVTZ
    Blend: AUG-CC-PVTZ
  Basis Set: (AUG-CC-PVTZ AUX)
    Blend: AUG-CC-PVTZ-JKFIT

    Orbital Energies [Eh]
    ---------------------

    Doubly Occupied:

       1A    -20.596092     2A    -20.584217     3A    -11.311091
       4A    -11.309724     5A    -11.251786     6A    -11.232472
       7A    -11.224899     8A    -11.223498     9A    -11.220054
      10A    -11.216565    11A     -1.427599    12A     -1.405103
      13A     -1.152302    14A     -1.065284    15A     -1.005536
      16A     -0.988670    17A     -0.878983    18A     -0.840173
      19A     -0.816622    20A     -0.747007    21A     -0.689412
      22A     -0.681559    23A     -0.668169    24A     -0.612604
      25A     -0.603578    26A     -0.596225    27A     -0.590642
      28A     -0.578790    29A     -0.555935    30A     -0.549739
      31A     -0.524640    32A     -0.522158    33A     -0.488247
      34A     -0.483293    35A     -0.455172    36A     -0.326702
      37A     -0.312263

  @DF-RHF Final Energy:  -458.65533672732192

   => Energetics <=

    Nuclear Repulsion Energy =            508.1580224648204762
    One-Electron Energy =               -1632.1531067632051872
    Two-Electron Energy =                 665.3397475710627305
    Total Energy =                       -458.6553367273219237
  Basis Set: (AUG-CC-PVTZ AUX)
    Blend: AUG-CC-PVTZ-RI
    Molecular point group: c1

    Geometry (in Angstrom), charge = 0, multiplicity = 1:

       Center              X                  Y                   Z               Mass
    ------------   -----------------  -----------------  -----------------  -----------------
         O            1.763498632294     2.368494407628    -0.146008273538    15.994914619570
         O            1.676123632294    -2.406881592372    -0.128029273538    15.994914619570
         C           -1.020862367706    -0.007603592372     0.364020726462    12.000000000000
         C           -2.513243367706    -0.019326592372     0.563309726462    12.000000000000
         C           -0.322356367706    -1.207273592372     0.234247726462    12.000000000000
         C           -0.336349367706     1.205342407628     0.234744726462    12.000000000000
         C           -3.272860367706    -0.019633592372    -0.764455273538    12.000000000000
         C            1.035396632294     1.210782407628    -0.018229273538    12.000000000000
         C            1.048765632294    -1.190923592372    -0.019128273538    12.000000000000
         C            1.737567632294     0.014899407628    -0.145871273538    12.000000000000
         H           -2.792075367706    -0.902923592372     1.148206726462     1.007825032230
         H           -2.807579367706     0.853974407628     1.157185726462     1.007825032230
         H           -0.830527367706    -2.163431592372     0.330792726462     1.007825032230
         H           -0.878250367706     2.145766407628     0.335062726462     1.007825032230
         H           -3.022389367706     0.867376407628    -1.352901273538     1.007825032230
         H           -4.356697367706    -0.029311592372    -0.605450273538     1.007825032230
         H           -3.006939367706    -0.898011592372    -1.358802273538     1.007825032230
         H            2.808146632294     0.046881407628    -0.336378273538     1.007825032230
         H            1.159774632294     3.122422407628    -0.030098273538     1.007825032230
         H            2.525028332294    -2.269949192372    -0.280308273538     1.007825032230

  Basis Set: AUG-CC-PVTZ
    Blend: AUG-CC-PVTZ
  Basis Set: (AUG-CC-PVTZ AUX)
    Blend: AUG-CC-PVTZ-JKFIT
	 Reference Energy          =    -458.6553367273219237 [Eh]
	 Singles Energy            =      -0.0000000000000000 [Eh]
	 Same-Spin Energy          =      -0.4804895028862716 [Eh]
	 Opposite-Spin Energy      =      -1.5022322702486124 [Eh]
	 Correlation Energy        =      -1.9827217731348841 [Eh]
	 Total Energy              =    -460.6380585004567934 [Eh]

	 ================> DF-SCS-MP2 Energies <==================
	-----------------------------------------------------------
	 SCS Same-Spin Scale       =       0.3333333333333333 [-]
	 SCS Opposite-Spin Scale   =       1.2000000000000000 [-]
	 SCS Same-Spin Energy      =      -0.1601631676287572 [Eh]
	 SCS Opposite-Spin Energy  =      -1.8026787242983349 [Eh]
	 SCS Correlation Energy    =      -1.9628418919270920 [Eh]
	 SCS Total Energy          =    -460.6181786192490222 [Eh]
	-----------------------------------------------------------

  Dipole Moment: [D]
     X:    -0.6101      Y:     1.2581      Z:     0.0284     Total:     1.3985

*** Psi4 exiting successfully. Buy a developer a beer!
