                               Psi4 1.3.2 release

  ==> Input File <==

--------------------------------------------------------------------------
#psi4
#
memory 32 gb

molecule  {
0 1
  O        1.7627890     2.3683800    -0.1458810
  O        1.6754140    -2.4069960    -0.1279020
  C       -1.0215720    -0.0077180     0.3641480
  C       -2.5139530    -0.0194410     0.5634370
  C       -0.2228686    -1.3794750     0.2157597
  C       -0.3370590     1.2052280     0.2348720
  C       -3.2735700    -0.0197480    -0.7643280
  C        1.0346870     1.2106680    -0.0181020
  C        1.0480560    -1.1910380    -0.0190010
  C        1.7368580     0.0147850    -0.1457440
  H       -2.7927850    -0.9030380     1.1483340
  H       -2.8082890     0.8538600     1.1573130
  H       -0.8312370    -2.1635460     0.3309200
  H       -0.8789600     2.1456520     0.3351900
  H       -3.0230990     0.8672620    -1.3527740
  H       -4.3574070    -0.0294260    -0.6053230
  H       -3.0076490    -0.8981260    -1.3586750
  H        2.8074370     0.0467670    -0.3362510
  H        1.1590650     3.1223080    -0.0299710
  H        2.6215300    -2.2543830    -0.2976190
units angstrom
no_reorient  #important for SAPT in psi4, default
symmetry c1  #important for SAPT in psi4, default
}

set PROPERTIES_ORIGIN ["COM"]
properties('MP2/aug-cc-pvtz', properties = ['dipole'])
--------------------------------------------------------------------------

    Molecular point group: c1
  Charge       = 0
  Multiplicity = 1
  Basis Set: AUG-CC-PVTZ
    Blend: AUG-CC-PVTZ
  Basis Set: (AUG-CC-PVTZ AUX)
    Blend: AUG-CC-PVTZ-JKFIT

    Orbital Energies [Eh]
    ---------------------

    Doubly Occupied:

       1A    -20.599212     2A    -20.579007     3A    -11.314769
       4A    -11.293594     5A    -11.271193     6A    -11.236004
       7A    -11.228737     8A    -11.222519     9A    -11.222062
      10A    -11.213353    11A     -1.408106    12A     -1.395546
      13A     -1.139608    14A     -1.063679    15A     -1.014593
      16A     -0.982467    17A     -0.881815    18A     -0.835662
      19A     -0.798235    20A     -0.740938    21A     -0.699242
      22A     -0.678004    23A     -0.657644    24A     -0.614221
      25A     -0.603837    26A     -0.601013    27A     -0.587975
      28A     -0.575047    29A     -0.555446    30A     -0.543516
      31A     -0.530708    32A     -0.518472    33A     -0.490457
      34A     -0.466752    35A     -0.446826    36A     -0.329821
      37A     -0.306342

  @DF-RHF Final Energy:  -458.61667320939637

   => Energetics <=

    Nuclear Repulsion Energy =            505.9476849288276412
    One-Electron Energy =               -1627.8358732170283929
    Two-Electron Energy =                 663.2715150788044411
    Total Energy =                       -458.6166732093963674
  Basis Set: (AUG-CC-PVTZ AUX)
    Blend: AUG-CC-PVTZ-RI
    Molecular point group: c1

    Geometry (in Angstrom), charge = 0, multiplicity = 1:

       Center              X                  Y                   Z               Mass
    ------------   -----------------  -----------------  -----------------  -----------------
         O            1.754080519246     2.383336655781    -0.144263061656    15.994914619570
         O            1.666705519246    -2.392039344219    -0.126284061656    15.994914619570
         C           -1.030280480754     0.007238655781     0.365765938344    12.000000000000
         C           -2.522661480754    -0.004484344219     0.565054938344    12.000000000000
         C           -0.231577080754    -1.364518344219     0.217377638344    12.000000000000
         C           -0.345767480754     1.220184655781     0.236489938344    12.000000000000
         C           -3.282278480754    -0.004791344219    -0.762710061656    12.000000000000
         C            1.025978519246     1.225624655781    -0.016484061656    12.000000000000
         C            1.039347519246    -1.176081344219    -0.017383061656    12.000000000000
         C            1.728149519246     0.029741655781    -0.144126061656    12.000000000000
         H           -2.801493480754    -0.888081344219     1.149951938344     1.007825032230
         H           -2.816997480754     0.868816655781     1.158930938344     1.007825032230
         H           -0.839945480754    -2.148589344219     0.332537938344     1.007825032230
         H           -0.887668480754     2.160608655781     0.336807938344     1.007825032230
         H           -3.031807480754     0.882218655781    -1.351156061656     1.007825032230
         H           -4.366115480754    -0.014469344219    -0.603705061656     1.007825032230
         H           -3.016357480754    -0.883169344219    -1.357057061656     1.007825032230
         H            2.798728519246     0.061723655781    -0.334633061656     1.007825032230
         H            1.150356519246     3.137264655781    -0.028353061656     1.007825032230
         H            2.612821519246    -2.239426344219    -0.296001061656     1.007825032230

  Basis Set: AUG-CC-PVTZ
    Blend: AUG-CC-PVTZ
  Basis Set: (AUG-CC-PVTZ AUX)
    Blend: AUG-CC-PVTZ-JKFIT
	 Reference Energy          =    -458.6166732093963674 [Eh]
	 Singles Energy            =      -0.0000000000000000 [Eh]
	 Same-Spin Energy          =      -0.4814318527522951 [Eh]
	 Opposite-Spin Energy      =      -1.5070824849030091 [Eh]
	 Correlation Energy        =      -1.9885143376553041 [Eh]
	 Total Energy              =    -460.6051875470516848 [Eh]

	 ================> DF-SCS-MP2 Energies <==================
	-----------------------------------------------------------
	 SCS Same-Spin Scale       =       0.3333333333333333 [-]
	 SCS Opposite-Spin Scale   =       1.2000000000000000 [-]
	 SCS Same-Spin Energy      =      -0.1604772842507650 [Eh]
	 SCS Opposite-Spin Energy  =      -1.8084989818836108 [Eh]
	 SCS Correlation Energy    =      -1.9689762661343759 [Eh]
	 SCS Total Energy          =    -460.5856494755307153 [Eh]
	-----------------------------------------------------------

  Dipole Moment: [D]
     X:    -0.7133      Y:     1.5202      Z:     0.0376     Total:     1.6797

*** Psi4 exiting successfully. Buy a developer a beer!
