                               Psi4 1.3.2 release

  ==> Input File <==

--------------------------------------------------------------------------
#psi4
#
memory 32 gb

molecule  {
0 1
  O        1.7627890     2.3683800    -0.1458810
  O        1.6754140    -2.4069960    -0.1279020
  C       -1.0215720    -0.0077180     0.3641480
  C       -2.5138470    -0.0325736     0.5630251
  C       -0.3334984    -1.2135314     0.2355846
  C       -0.3370590     1.2052280     0.2348720
  C       -3.2735700    -0.0197480    -0.7643280
  C        1.0346870     1.2106680    -0.0181020
  C        1.0480560    -1.1910380    -0.0190010
  C        1.7368580     0.0147850    -0.1457440
  H       -2.7927850    -0.9030380     1.1483340
  H       -2.8082890     0.8538600     1.1573130
  H       -0.8312370    -2.1635460     0.3309200
  H       -0.8789600     2.1456520     0.3351900
  H       -3.0230990     0.8672620    -1.3527740
  H       -4.3574070    -0.0294260    -0.6053230
  H       -3.0076490    -0.8981260    -1.3586750
  H        2.8074370     0.0467670    -0.3362510
  H        1.1590650     3.1223080    -0.0299710
  H        2.6215300    -2.2543830    -0.2976190
units angstrom
no_reorient  #important for SAPT in psi4, default
symmetry c1  #important for SAPT in psi4, default
}

set PROPERTIES_ORIGIN ["COM"]
properties('MP2/aug-cc-pvtz', properties = ['dipole'])
--------------------------------------------------------------------------

    Molecular point group: c1
  Charge       = 0
  Multiplicity = 1
  Basis Set: AUG-CC-PVTZ
    Blend: AUG-CC-PVTZ
  Basis Set: (AUG-CC-PVTZ AUX)
    Blend: AUG-CC-PVTZ-JKFIT

    Orbital Energies [Eh]
    ---------------------

    Doubly Occupied:

       1A    -20.595973     2A    -20.593602     3A    -11.310946
       4A    -11.310165     5A    -11.251281     6A    -11.231699
       7A    -11.224071     8A    -11.222695     9A    -11.219499
      10A    -11.216023    11A     -1.405610    12A     -1.402051
      13A     -1.149614    14A     -1.063868    15A     -1.000379
      16A     -0.987975    17A     -0.876293    18A     -0.837291
      19A     -0.807532    20A     -0.740276    21A     -0.688056
      22A     -0.675185    23A     -0.665737    24A     -0.612698
      25A     -0.602202    26A     -0.594228    27A     -0.588538
      28A     -0.576493    29A     -0.552832    30A     -0.548977
      31A     -0.524438    32A     -0.522227    33A     -0.487535
      34A     -0.481480    35A     -0.453423    36A     -0.326314
      37A     -0.310466

  @DF-RHF Final Energy:  -458.65977616934595

   => Energetics <=

    Nuclear Repulsion Energy =            507.3385094445561663
    One-Electron Energy =               -1630.6812227619841451
    Two-Electron Energy =                 664.6829371480820328
    Total Energy =                       -458.6597761693459461
  Basis Set: (AUG-CC-PVTZ AUX)
    Blend: AUG-CC-PVTZ-RI
    Molecular point group: c1

    Geometry (in Angstrom), charge = 0, multiplicity = 1:

       Center              X                  Y                   Z               Mass
    ------------   -----------------  -----------------  -----------------  -----------------
         O            1.763686545521     2.370055294833    -0.145950316239    15.994914619570
         O            1.676311545521    -2.405320705167    -0.127971316239    15.994914619570
         C           -1.020674454479    -0.006042705167     0.364078683761    12.000000000000
         C           -2.512949454479    -0.030898305167     0.562955783761    12.000000000000
         C           -0.332600854479    -1.211856105167     0.235515283761    12.000000000000
         C           -0.336161454479     1.206903294833     0.234802683761    12.000000000000
         C           -3.272672454479    -0.018072705167    -0.764397316239    12.000000000000
         C            1.035584545521     1.212343294833    -0.018171316239    12.000000000000
         C            1.048953545521    -1.189362705167    -0.019070316239    12.000000000000
         C            1.737755545521     0.016460294833    -0.145813316239    12.000000000000
         H           -2.791887454479    -0.901362705167     1.148264683761     1.007825032230
         H           -2.807391454479     0.855535294833     1.157243683761     1.007825032230
         H           -0.830339454479    -2.161870705167     0.330850683761     1.007825032230
         H           -0.878062454479     2.147327294833     0.335120683761     1.007825032230
         H           -3.022201454479     0.868937294833    -1.352843316239     1.007825032230
         H           -4.356509454479    -0.027750705167    -0.605392316239     1.007825032230
         H           -3.006751454479    -0.896450705167    -1.358744316239     1.007825032230
         H            2.808334545521     0.048442294833    -0.336320316239     1.007825032230
         H            1.159962545521     3.123983294833    -0.030040316239     1.007825032230
         H            2.622427545521    -2.252707705167    -0.297688316239     1.007825032230

  Basis Set: AUG-CC-PVTZ
    Blend: AUG-CC-PVTZ
  Basis Set: (AUG-CC-PVTZ AUX)
    Blend: AUG-CC-PVTZ-JKFIT
	 Reference Energy          =    -458.6597761693459461 [Eh]
	 Singles Energy            =      -0.0000000000000000 [Eh]
	 Same-Spin Energy          =      -0.4816818170816707 [Eh]
	 Opposite-Spin Energy      =      -1.5052214508772039 [Eh]
	 Correlation Energy        =      -1.9869032679588745 [Eh]
	 Total Energy              =    -460.6466794373048401 [Eh]

	 ================> DF-SCS-MP2 Energies <==================
	-----------------------------------------------------------
	 SCS Same-Spin Scale       =       0.3333333333333333 [-]
	 SCS Opposite-Spin Scale   =       1.2000000000000000 [-]
	 SCS Same-Spin Energy      =      -0.1605606056938902 [Eh]
	 SCS Opposite-Spin Energy  =      -1.8062657410526446 [Eh]
	 SCS Correlation Energy    =      -1.9668263467465348 [Eh]
	 SCS Total Energy          =    -460.6266025160924755 [Eh]
	-----------------------------------------------------------

  Dipole Moment: [D]
     X:    -0.4809      Y:     1.2036      Z:     0.0076     Total:     1.2961

*** Psi4 exiting successfully. Buy a developer a beer!
