                               Psi4 1.4a3.dev225

  ==> Input File <==

--------------------------------------------------------------------------
#psi4
#
memory 32 gb

molecule  {
0 1
  O       -1.8116000     2.3801270     0.1363720
  O       -1.7799440    -2.3994320     0.1189850
  C        0.9489570    -0.0306590    -0.3689570
  C        2.4429910    -0.0568610    -0.5708560
  C        0.2354480    -1.2220220    -0.2373930
  C        0.2798030     1.1938580    -0.2383990
  C        3.1984060    -0.0265600     0.7613490
  C       -1.0921630     1.2139390     0.0079710
  C       -1.1396310    -1.1871160     0.0102260
  C       -1.8132500     0.0254130     0.1385790
  H        2.7180680    -0.9584190    -1.1301260
  H        2.7446220     0.7994920    -1.1857830
  H        0.7483878    -2.2316113    -0.3415265
  H        0.8309290     2.1284970    -0.3452230
  H        2.9508560     0.8787730     1.3230630
  H        4.2811760    -0.0477390     0.6027570
  H        2.9230980    -0.8883860     1.3756490
  H       -2.8837580     0.0741080     0.3259950
  H       -1.1979550     3.1274200     0.0245130
  H       -2.7238770    -2.2320380     0.2881370
units angstrom
no_reorient  #important for SAPT in psi4, default
symmetry c1  #important for SAPT in psi4, default
}

set PROPERTIES_ORIGIN ["COM"]
properties('MP2/aug-cc-pvtz', properties = ['dipole'])
--------------------------------------------------------------------------

    Molecular point group: c1
  Charge       = 0
  Multiplicity = 1
  Basis Set: AUG-CC-PVTZ
    Blend: AUG-CC-PVTZ
  Basis Set: (AUG-CC-PVTZ AUX)
    Blend: AUG-CC-PVTZ-JKFIT

    Orbital Energies [Eh]
    ---------------------

    Doubly Occupied:

       1A    -20.595847     2A    -20.593405     3A    -11.311348
       4A    -11.309795     5A    -11.252825     6A    -11.232595
       7A    -11.224951     8A    -11.223772     9A    -11.222534
      10A    -11.219827    11A     -1.404403    12A     -1.400882
      13A     -1.149787    14A     -1.063657    15A     -0.999858
      16A     -0.987657    17A     -0.876319    18A     -0.834655
      19A     -0.807594    20A     -0.738996    21A     -0.685326
      22A     -0.673084    23A     -0.663508    24A     -0.611781
      25A     -0.602219    26A     -0.595433    27A     -0.584137
      28A     -0.575882    29A     -0.553524    30A     -0.548193
      31A     -0.523101    32A     -0.518340    33A     -0.488347
      34A     -0.482363    35A     -0.453987    36A     -0.326251
      37A     -0.311796

  @DF-RHF Final Energy:  -458.65716341146049

   => Energetics <=

    Nuclear Repulsion Energy =            506.8287318684572824
    One-Electron Energy =               -1629.6758358049387425
    Two-Electron Energy =                 664.1899405250210293
    Total Energy =                       -458.6571634114604876
  Basis Set: (AUG-CC-PVTZ AUX)
    Blend: AUG-CC-PVTZ-RI
    Molecular point group: c1

    Geometry (in Angstrom), charge = 0, multiplicity = 1:

       Center              X                  Y                   Z               Mass
    ------------   -----------------  -----------------  -----------------  -----------------
         O           -1.737384101029     2.385441002349     0.143184258641    15.994914619570
         O           -1.705728101029    -2.394117997651     0.125797258641    15.994914619570
         C            1.023172898971    -0.025344997651    -0.362144741359    12.000000000000
         C            2.517206898971    -0.051546997651    -0.564043741359    12.000000000000
         C            0.309663898971    -1.216707997651    -0.230580741359    12.000000000000
         C            0.354018898971     1.199172002349    -0.231586741359    12.000000000000
         C            3.272621898971    -0.021245997651     0.768161258641    12.000000000000
         C           -1.017947101029     1.219253002349     0.014783258641    12.000000000000
         C           -1.065415101029    -1.181801997651     0.017038258641    12.000000000000
         C           -1.739034101029     0.030727002349     0.145391258641    12.000000000000
         H            2.792283898971    -0.953104997651    -1.123313741359     1.007825032230
         H            2.818837898971     0.804806002349    -1.178970741359     1.007825032230
         H            0.822603698971    -2.226297297651    -0.334714241359     1.007825032230
         H            0.905144898971     2.133811002349    -0.338410741359     1.007825032230
         H            3.025071898971     0.884087002349     1.329875258641     1.007825032230
         H            4.355391898971    -0.042424997651     0.609569258641     1.007825032230
         H            2.997313898971    -0.883071997651     1.382461258641     1.007825032230
         H           -2.809542101029     0.079422002349     0.332807258641     1.007825032230
         H           -1.123739101029     3.132734002349     0.031325258641     1.007825032230
         H           -2.649661101029    -2.226723997651     0.294949258641     1.007825032230

  Basis Set: AUG-CC-PVTZ
    Blend: AUG-CC-PVTZ
  Basis Set: (AUG-CC-PVTZ AUX)
    Blend: AUG-CC-PVTZ-JKFIT
	 Reference Energy          =    -458.6571634114604876 [Eh]
	 Singles Energy            =      -0.0000000000000000 [Eh]
	 Same-Spin Energy          =      -0.4818720613585663 [Eh]
	 Opposite-Spin Energy      =      -1.5059152723672928 [Eh]
	 Correlation Energy        =      -1.9877873337258591 [Eh]
	 Total Energy              =    -460.6449507451863496 [Eh]

	 ================> DF-SCS-MP2 Energies <==================
	-----------------------------------------------------------
	 SCS Same-Spin Scale       =       0.3333333333333333 [-]
	 SCS Opposite-Spin Scale   =       1.2000000000000000 [-]
	 SCS Same-Spin Energy      =      -0.1606240204528554 [Eh]
	 SCS Opposite-Spin Energy  =      -1.8070983268407512 [Eh]
	 SCS Correlation Energy    =      -1.9677223472936067 [Eh]
	 SCS Total Energy          =    -460.6248857587540897 [Eh]
	-----------------------------------------------------------

  Dipole Moment: [D]
     X:     0.5221      Y:     1.2318      Z:    -0.0164     Total:     1.3380

*** Psi4 exiting successfully. Buy a developer a beer!
