                               Psi4 1.3.2 release

  ==> Input File <==

--------------------------------------------------------------------------
#psi4
#
memory 32 gb

molecule  {
0 1
  O        1.7627890     2.3683800    -0.1458810
  O        1.6754140    -2.4069960    -0.1279020
  C       -1.0155247    -0.0078804     0.4163539
  C       -2.5139530    -0.0194410     0.5634370
  C       -0.3230660    -1.2073880     0.2343750
  C       -0.3370590     1.2052280     0.2348720
  C       -3.3194439    -0.0201923    -0.7370098
  C        1.0346870     1.2106680    -0.0181020
  C        1.0480560    -1.1910380    -0.0190010
  C        1.7368580     0.0147850    -0.1457440
  H       -2.7927850    -0.9030380     1.1483340
  H       -2.8082890     0.8538600     1.1573130
  H       -0.8312370    -2.1635460     0.3309200
  H       -0.8789600     2.1456520     0.3351900
  H       -3.0230990     0.8672620    -1.3527740
  H       -4.3574070    -0.0294260    -0.6053230
  H       -3.0076490    -0.8981260    -1.3586750
  H        2.8074370     0.0467670    -0.3362510
  H        1.1590650     3.1223080    -0.0299710
  H        2.6215300    -2.2543830    -0.2976190
units angstrom
no_reorient  #important for SAPT in psi4, default
symmetry c1  #important for SAPT in psi4, default
}

set PROPERTIES_ORIGIN ["COM"]
properties('MP2/aug-cc-pvtz', properties = ['dipole'])
--------------------------------------------------------------------------

    Molecular point group: c1
  Charge       = 0
  Multiplicity = 1
  Basis Set: AUG-CC-PVTZ
    Blend: AUG-CC-PVTZ
  Basis Set: (AUG-CC-PVTZ AUX)
    Blend: AUG-CC-PVTZ-JKFIT

    Orbital Energies [Eh]
    ---------------------

    Doubly Occupied:

       1A    -20.595855     2A    -20.593528     3A    -11.310697
       4A    -11.309030     5A    -11.252587     6A    -11.231927
       7A    -11.224963     8A    -11.223759     9A    -11.220725
      10A    -11.217072    11A     -1.405590    12A     -1.402095
      13A     -1.149993    14A     -1.063296    15A     -1.001475
      16A     -0.988774    17A     -0.878458    18A     -0.836761
      19A     -0.807767    20A     -0.739398    21A     -0.687659
      22A     -0.675466    23A     -0.665821    24A     -0.614027
      25A     -0.601529    26A     -0.595181    27A     -0.586762
      28A     -0.576750    29A     -0.558178    30A     -0.549629
      31A     -0.522399    32A     -0.518346    33A     -0.487911
      34A     -0.478483    35A     -0.453328    36A     -0.326598
      37A     -0.311349

  @DF-RHF Final Energy:  -458.65506333584955

   => Energetics <=

    Nuclear Repulsion Energy =            506.9343008614748101
    One-Electron Energy =               -1629.8523996612409519
    Two-Electron Energy =                 664.2630354639164807
    Total Energy =                       -458.6550633358496043
  Basis Set: (AUG-CC-PVTZ AUX)
    Blend: AUG-CC-PVTZ-RI
    Molecular point group: c1

    Geometry (in Angstrom), charge = 0, multiplicity = 1:

       Center              X                  Y                   Z               Mass
    ------------   -----------------  -----------------  -----------------  -----------------
         O            1.766250515420     2.368432677928    -0.152792714591    15.994914619570
         O            1.678875515420    -2.406943322072    -0.134813714591    15.994914619570
         C           -1.012063184580    -0.007827722072     0.409442185409    12.000000000000
         C           -2.510491484580    -0.019388322072     0.556525285409    12.000000000000
         C           -0.319604484580    -1.207335322072     0.227463285409    12.000000000000
         C           -0.333597484580     1.205280677928     0.227960285409    12.000000000000
         C           -3.315982384580    -0.020139622072    -0.743921514591    12.000000000000
         C            1.038148515420     1.210720677928    -0.025013714591    12.000000000000
         C            1.051517515420    -1.190985322072    -0.025912714591    12.000000000000
         C            1.740319515420     0.014837677928    -0.152655714591    12.000000000000
         H           -2.789323484580    -0.902985322072     1.141422285409     1.007825032230
         H           -2.804827484580     0.853912677928     1.150401285409     1.007825032230
         H           -0.827775484580    -2.163493322072     0.324008285409     1.007825032230
         H           -0.875498484580     2.145704677928     0.328278285409     1.007825032230
         H           -3.019637484580     0.867314677928    -1.359685714591     1.007825032230
         H           -4.353945484580    -0.029373322072    -0.612234714591     1.007825032230
         H           -3.004187484580    -0.898073322072    -1.365586714591     1.007825032230
         H            2.810898515420     0.046819677928    -0.343162714591     1.007825032230
         H            1.162526515420     3.122360677928    -0.036882714591     1.007825032230
         H            2.624991515420    -2.254330322072    -0.304530714591     1.007825032230

  Basis Set: AUG-CC-PVTZ
    Blend: AUG-CC-PVTZ
  Basis Set: (AUG-CC-PVTZ AUX)
    Blend: AUG-CC-PVTZ-JKFIT
	 Reference Energy          =    -458.6550633358495475 [Eh]
	 Singles Energy            =      -0.0000000000000000 [Eh]
	 Same-Spin Energy          =      -0.4818985888114687 [Eh]
	 Opposite-Spin Energy      =      -1.5056037148774970 [Eh]
	 Correlation Energy        =      -1.9875023036889656 [Eh]
	 Total Energy              =    -460.6425656395385317 [Eh]

	 ================> DF-SCS-MP2 Energies <==================
	-----------------------------------------------------------
	 SCS Same-Spin Scale       =       0.3333333333333333 [-]
	 SCS Opposite-Spin Scale   =       1.2000000000000000 [-]
	 SCS Same-Spin Energy      =      -0.1606328629371562 [Eh]
	 SCS Opposite-Spin Energy  =      -1.8067244578529964 [Eh]
	 SCS Correlation Energy    =      -1.9673573207901527 [Eh]
	 SCS Total Energy          =    -460.6224206566396902 [Eh]
	-----------------------------------------------------------

  Dipole Moment: [D]
     X:    -0.4678      Y:     1.2195      Z:    -0.0170     Total:     1.3063

*** Psi4 exiting successfully. Buy a developer a beer!
