                               Psi4 1.3.2 release

  ==> Input File <==

--------------------------------------------------------------------------
#psi4
#
memory 32 gb

molecule  {
0 1
  O        1.7825352     2.3553030    -0.1495965
  O        1.6754140    -2.4069960    -0.1279020
  C       -1.0215720    -0.0077180     0.3641480
  C       -2.5139530    -0.0194410     0.5634370
  C       -0.3230660    -1.2073880     0.2343750
  C       -0.3367811     1.1808852     0.2346838
  C       -3.2735700    -0.0197480    -0.7643280
  C        1.0346870     1.2106680    -0.0181020
  C        1.0480560    -1.1910380    -0.0190010
  C        1.7368580     0.0147850    -0.1457440
  H       -2.7927850    -0.9030380     1.1483340
  H       -2.8082890     0.8538600     1.1573130
  H       -0.8312370    -2.1635460     0.3309200
  H       -0.8789600     2.1456520     0.3351900
  H       -3.0230990     0.8672620    -1.3527740
  H       -4.3574070    -0.0294260    -0.6053230
  H       -3.0076490    -0.8981260    -1.3586750
  H        2.8074370     0.0467670    -0.3362510
  H        1.1590650     3.1223080    -0.0299710
  H        2.6215300    -2.2543830    -0.2976190
units angstrom
no_reorient  #important for SAPT in psi4, default
symmetry c1  #important for SAPT in psi4, default
}

set PROPERTIES_ORIGIN ["COM"]
properties('MP2/aug-cc-pvtz', properties = ['dipole'])
--------------------------------------------------------------------------

    Molecular point group: c1
  Charge       = 0
  Multiplicity = 1
  Basis Set: AUG-CC-PVTZ
    Blend: AUG-CC-PVTZ
  Basis Set: (AUG-CC-PVTZ AUX)
    Blend: AUG-CC-PVTZ-JKFIT

    Orbital Energies [Eh]
    ---------------------

    Doubly Occupied:

       1A    -20.599809     2A    -20.592470     3A    -11.310121
       4A    -11.307561     5A    -11.248844     6A    -11.232258
       7A    -11.223665     8A    -11.223316     9A    -11.219725
      10A    -11.215393    11A     -1.403303    12A     -1.400467
      13A     -1.152674    14A     -1.064036    15A     -1.000442
      16A     -0.988955    17A     -0.876254    18A     -0.834328
      19A     -0.808140    20A     -0.740761    21A     -0.686129
      22A     -0.671804    23A     -0.663301    24A     -0.612745
      25A     -0.602531    26A     -0.594986    27A     -0.587594
      28A     -0.576338    29A     -0.553051    30A     -0.549336
      31A     -0.522320    32A     -0.518832    33A     -0.488172
      34A     -0.483144    35A     -0.455465    36A     -0.327063
      37A     -0.310888

  @DF-RHF Final Energy:  -458.65694923367829

   => Energetics <=

    Nuclear Repulsion Energy =            507.7843872750696050
    One-Electron Energy =               -1631.5902258801402240
    Two-Electron Energy =                 665.1488893713924426
    Total Energy =                       -458.6569492336782332
  Basis Set: (AUG-CC-PVTZ AUX)
    Blend: AUG-CC-PVTZ-RI
    Molecular point group: c1

    Geometry (in Angstrom), charge = 0, multiplicity = 1:

       Center              X                  Y                   Z               Mass
    ------------   -----------------  -----------------  -----------------  -----------------
         O            1.780223528847     2.358933613538    -0.149149694732    15.994914619570
         O            1.673102328847    -2.403365386462    -0.127455194732    15.994914619570
         C           -1.023883671153    -0.004087386462     0.364594805268    12.000000000000
         C           -2.516264671153    -0.015810386462     0.563883805268    12.000000000000
         C           -0.325377671153    -1.203757386462     0.234821805268    12.000000000000
         C           -0.339092771153     1.184515813538     0.235130605268    12.000000000000
         C           -3.275881671153    -0.016117386462    -0.763881194732    12.000000000000
         C            1.032375328847     1.214298613538    -0.017655194732    12.000000000000
         C            1.045744328847    -1.187407386462    -0.018554194732    12.000000000000
         C            1.734546328847     0.018415613538    -0.145297194732    12.000000000000
         H           -2.795096671153    -0.899407386462     1.148780805268     1.007825032230
         H           -2.810600671153     0.857490613538     1.157759805268     1.007825032230
         H           -0.833548671153    -2.159915386462     0.331366805268     1.007825032230
         H           -0.881271671153     2.149282613538     0.335636805268     1.007825032230
         H           -3.025410671153     0.870892613538    -1.352327194732     1.007825032230
         H           -4.359718671153    -0.025795386462    -0.604876194732     1.007825032230
         H           -3.009960671153    -0.894495386462    -1.358228194732     1.007825032230
         H            2.805125328847     0.050397613538    -0.335804194732     1.007825032230
         H            1.156753328847     3.125938613538    -0.029524194732     1.007825032230
         H            2.619218328847    -2.250752386462    -0.297172194732     1.007825032230

  Basis Set: AUG-CC-PVTZ
    Blend: AUG-CC-PVTZ
  Basis Set: (AUG-CC-PVTZ AUX)
    Blend: AUG-CC-PVTZ-JKFIT
	 Reference Energy          =    -458.6569492336782901 [Eh]
	 Singles Energy            =      -0.0000000000000000 [Eh]
	 Same-Spin Energy          =      -0.4822661196529834 [Eh]
	 Opposite-Spin Energy      =      -1.5062539015801351 [Eh]
	 Correlation Energy        =      -1.9885200212331184 [Eh]
	 Total Energy              =    -460.6454692549114043 [Eh]

	 ================> DF-SCS-MP2 Energies <==================
	-----------------------------------------------------------
	 SCS Same-Spin Scale       =       0.3333333333333333 [-]
	 SCS Opposite-Spin Scale   =       1.2000000000000000 [-]
	 SCS Same-Spin Energy      =      -0.1607553732176611 [Eh]
	 SCS Opposite-Spin Energy  =      -1.8075046818961620 [Eh]
	 SCS Correlation Energy    =      -1.9682600551138232 [Eh]
	 SCS Total Energy          =    -460.6252092887921208 [Eh]
	-----------------------------------------------------------

  Dipole Moment: [D]
     X:    -0.5075      Y:     1.2642      Z:     0.0104     Total:     1.3623

*** Psi4 exiting successfully. Buy a developer a beer!
