                               Psi4 1.3.2 release

  ==> Input File <==

--------------------------------------------------------------------------
#psi4
#
memory 32 gb

molecule  {
0 1
  O        1.7627890     2.3683800    -0.1458810
  O        1.6754140    -2.4069960    -0.1279020
  C       -1.0215720    -0.0077180     0.3641480
  C       -2.5139530    -0.0194410     0.5634370
  C       -0.3230660    -1.2073880     0.2343750
  C       -0.3370590     1.2052280     0.2348720
  C       -3.2735700    -0.0197480    -0.7643280
  C        1.0346870     1.2106680    -0.0181020
  C        1.0023497    -1.1024491    -0.0110670
  C        1.7368580     0.0147850    -0.1457440
  H       -2.7927850    -0.9030380     1.1483340
  H       -2.8082890     0.8538600     1.1573130
  H       -0.8312370    -2.1635460     0.3309200
  H       -0.8789600     2.1456520     0.3351900
  H       -3.0230990     0.8672620    -1.3527740
  H       -4.3574070    -0.0294260    -0.6053230
  H       -3.0076490    -0.8981260    -1.3586750
  H        2.8074370     0.0467670    -0.3362510
  H        1.1590650     3.1223080    -0.0299710
  H        2.6215300    -2.2543830    -0.2976190
units angstrom
no_reorient  #important for SAPT in psi4, default
symmetry c1  #important for SAPT in psi4, default
}

set PROPERTIES_ORIGIN ["COM"]
properties('MP2/aug-cc-pvtz', properties = ['dipole'])
--------------------------------------------------------------------------

    Molecular point group: c1
  Charge       = 0
  Multiplicity = 1
  Basis Set: AUG-CC-PVTZ
    Blend: AUG-CC-PVTZ
  Basis Set: (AUG-CC-PVTZ AUX)
    Blend: AUG-CC-PVTZ-JKFIT

    Orbital Energies [Eh]
    ---------------------

    Doubly Occupied:

       1A    -20.598788     2A    -20.573696     3A    -11.313920
       4A    -11.300896     5A    -11.254529     6A    -11.234324
       7A    -11.227451     8A    -11.224698     9A    -11.221998
      10A    -11.216900    11A     -1.408143    12A     -1.354893
      13A     -1.163362    14A     -1.072071    15A     -1.009094
      16A     -0.995351    17A     -0.879980    18A     -0.840781
      19A     -0.800981    20A     -0.733035    21A     -0.693312
      22A     -0.670819    23A     -0.653021    24A     -0.612786
      25A     -0.603565    26A     -0.596816    27A     -0.583282
      28A     -0.562821    29A     -0.555242    30A     -0.548639
      31A     -0.527527    32A     -0.518838    33A     -0.489542
      34A     -0.485151    35A     -0.459862    36A     -0.335071
      37A     -0.319542

  @DF-RHF Final Energy:  -458.64756527297044

   => Energetics <=

    Nuclear Repulsion Energy =            508.3575529497522894
    One-Electron Energy =               -1632.7287878027811985
    Two-Electron Energy =                 665.7236695800584130
    Total Energy =                       -458.6475652729704962
  Basis Set: (AUG-CC-PVTZ AUX)
    Blend: AUG-CC-PVTZ-RI
    Molecular point group: c1

    Geometry (in Angstrom), charge = 0, multiplicity = 1:

       Center              X                  Y                   Z               Mass
    ------------   -----------------  -----------------  -----------------  -----------------
         O            1.766761541576     2.360680363248    -0.146570558081    15.994914619570
         O            1.679386541576    -2.414695636752    -0.128591558081    15.994914619570
         C           -1.017599458424    -0.015417636752     0.363458441919    12.000000000000
         C           -2.509980458424    -0.027140636752     0.562747441919    12.000000000000
         C           -0.319093458424    -1.215087636752     0.233685441919    12.000000000000
         C           -0.333086458424     1.197528363248     0.234182441919    12.000000000000
         C           -3.269597458424    -0.027447636752    -0.765017558081    12.000000000000
         C            1.038659541576     1.202968363248    -0.018791558081    12.000000000000
         C            1.006322241576    -1.110148736752    -0.011756558081    12.000000000000
         C            1.740830541576     0.007085363248    -0.146433558081    12.000000000000
         H           -2.788812458424    -0.910737636752     1.147644441919     1.007825032230
         H           -2.804316458424     0.846160363248     1.156623441919     1.007825032230
         H           -0.827264458424    -2.171245636752     0.330230441919     1.007825032230
         H           -0.874987458424     2.137952363248     0.334500441919     1.007825032230
         H           -3.019126458424     0.859562363248    -1.353463558081     1.007825032230
         H           -4.353434458424    -0.037125636752    -0.606012558081     1.007825032230
         H           -3.003676458424    -0.905825636752    -1.359364558081     1.007825032230
         H            2.811409541576     0.039067363248    -0.336940558081     1.007825032230
         H            1.163037541576     3.114608363248    -0.030660558081     1.007825032230
         H            2.625502541576    -2.262082636752    -0.298308558081     1.007825032230

  Basis Set: AUG-CC-PVTZ
    Blend: AUG-CC-PVTZ
  Basis Set: (AUG-CC-PVTZ AUX)
    Blend: AUG-CC-PVTZ-JKFIT
	 Reference Energy          =    -458.6475652729704393 [Eh]
	 Singles Energy            =      -0.0000000000000000 [Eh]
	 Same-Spin Energy          =      -0.4822122493133483 [Eh]
	 Opposite-Spin Energy      =      -1.5068474834559864 [Eh]
	 Correlation Energy        =      -1.9890597327693347 [Eh]
	 Total Energy              =    -460.6366250057398020 [Eh]

	 ================> DF-SCS-MP2 Energies <==================
	-----------------------------------------------------------
	 SCS Same-Spin Scale       =       0.3333333333333333 [-]
	 SCS Opposite-Spin Scale   =       1.2000000000000000 [-]
	 SCS Same-Spin Energy      =      -0.1607374164377827 [Eh]
	 SCS Opposite-Spin Energy  =      -1.8082169801471837 [Eh]
	 SCS Correlation Energy    =      -1.9689543965849665 [Eh]
	 SCS Total Energy          =    -460.6165196695554300 [Eh]
	-----------------------------------------------------------

  Dipole Moment: [D]
     X:    -0.8630      Y:     1.8092      Z:     0.0627     Total:     2.0055

*** Psi4 exiting successfully. Buy a developer a beer!
