                               Psi4 1.3.2 release

  ==> Input File <==

--------------------------------------------------------------------------
#psi4
#
memory 32 gb

molecule  {
0 1
  O        1.7627890     2.3683800    -0.1458810
  O        1.6544347    -2.4179232    -0.1241146
  C       -1.0215720    -0.0077180     0.3641480
  C       -2.5139530    -0.0194410     0.5634370
  C       -0.3230660    -1.2073880     0.2343750
  C       -0.3370590     1.2052280     0.2348720
  C       -3.2735700    -0.0197480    -0.7643280
  C        1.0346870     1.2106680    -0.0181020
  C        1.0480560    -1.1910380    -0.0190010
  C        1.7160320     0.0268242    -0.1420489
  H       -2.7927850    -0.9030380     1.1483340
  H       -2.8082890     0.8538600     1.1573130
  H       -0.8312370    -2.1635460     0.3309200
  H       -0.8789600     2.1456520     0.3351900
  H       -3.0230990     0.8672620    -1.3527740
  H       -4.3574070    -0.0294260    -0.6053230
  H       -3.0076490    -0.8981260    -1.3586750
  H        2.8074370     0.0467670    -0.3362510
  H        1.1590650     3.1223080    -0.0299710
  H        2.6215300    -2.2543830    -0.2976190
units angstrom
no_reorient  #important for SAPT in psi4, default
symmetry c1  #important for SAPT in psi4, default
}

set PROPERTIES_ORIGIN ["COM"]
properties('MP2/aug-cc-pvtz', properties = ['dipole'])
--------------------------------------------------------------------------

    Molecular point group: c1
  Charge       = 0
  Multiplicity = 1
  Basis Set: AUG-CC-PVTZ
    Blend: AUG-CC-PVTZ
  Basis Set: (AUG-CC-PVTZ AUX)
    Blend: AUG-CC-PVTZ-JKFIT

    Orbital Energies [Eh]
    ---------------------

    Doubly Occupied:

       1A    -20.597474     2A    -20.595320     3A    -11.308467
       4A    -11.307832     5A    -11.250377     6A    -11.231659
       7A    -11.224522     8A    -11.222493     9A    -11.219401
      10A    -11.215260    11A     -1.404982    12A     -1.399460
      13A     -1.151714    14A     -1.065103    15A     -1.001424
      16A     -0.987875    17A     -0.875695    18A     -0.837178
      19A     -0.805934    20A     -0.738023    21A     -0.688935
      22A     -0.673126    23A     -0.663183    24A     -0.611581
      25A     -0.602703    26A     -0.594690    27A     -0.587692
      28A     -0.576862    29A     -0.552544    30A     -0.547211
      31A     -0.525304    32A     -0.520341    33A     -0.487295
      34A     -0.481098    35A     -0.454947    36A     -0.327326
      37A     -0.311108

  @DF-RHF Final Energy:  -458.65695488277510

   => Energetics <=

    Nuclear Repulsion Energy =            507.8233917334558214
    One-Electron Energy =               -1631.6684118356738509
    Two-Electron Energy =                 665.1880652194429331
    Total Energy =                       -458.6569548827751532
  Basis Set: (AUG-CC-PVTZ AUX)
    Blend: AUG-CC-PVTZ-RI
    Molecular point group: c1

    Geometry (in Angstrom), charge = 0, multiplicity = 1:

       Center              X                  Y                   Z               Mass
    ------------   -----------------  -----------------  -----------------  -----------------
         O            1.767029514539     2.368599471231    -0.146640902651    15.994914619570
         O            1.658675214539    -2.417703728769    -0.124874502651    15.994914619570
         C           -1.017331485461    -0.007498528769     0.363388097349    12.000000000000
         C           -2.509712485461    -0.019221528769     0.562677097349    12.000000000000
         C           -0.318825485461    -1.207168528769     0.233615097349    12.000000000000
         C           -0.332818485461     1.205447471231     0.234112097349    12.000000000000
         C           -3.269329485461    -0.019528528769    -0.765087902651    12.000000000000
         C            1.038927514539     1.210887471231    -0.018861902651    12.000000000000
         C            1.052296514539    -1.190818528769    -0.019760902651    12.000000000000
         C            1.720272514539     0.027043671231    -0.142808802651    12.000000000000
         H           -2.788544485461    -0.902818528769     1.147574097349     1.007825032230
         H           -2.804048485461     0.854079471231     1.156553097349     1.007825032230
         H           -0.826996485461    -2.163326528769     0.330160097349     1.007825032230
         H           -0.874719485461     2.145871471231     0.334430097349     1.007825032230
         H           -3.018858485461     0.867481471231    -1.353533902651     1.007825032230
         H           -4.353166485461    -0.029206528769    -0.606082902651     1.007825032230
         H           -3.003408485461    -0.897906528769    -1.359434902651     1.007825032230
         H            2.811677514539     0.046986471231    -0.337010902651     1.007825032230
         H            1.163305514539     3.122527471231    -0.030730902651     1.007825032230
         H            2.625770514539    -2.254163528769    -0.298378902651     1.007825032230

  Basis Set: AUG-CC-PVTZ
    Blend: AUG-CC-PVTZ
  Basis Set: (AUG-CC-PVTZ AUX)
    Blend: AUG-CC-PVTZ-JKFIT
	 Reference Energy          =    -458.6569548827750964 [Eh]
	 Singles Energy            =      -0.0000000000000000 [Eh]
	 Same-Spin Energy          =      -0.4822480055493377 [Eh]
	 Opposite-Spin Energy      =      -1.5062118524937329 [Eh]
	 Correlation Energy        =      -1.9884598580430706 [Eh]
	 Total Energy              =    -460.6454147408181825 [Eh]

	 ================> DF-SCS-MP2 Energies <==================
	-----------------------------------------------------------
	 SCS Same-Spin Scale       =       0.3333333333333333 [-]
	 SCS Opposite-Spin Scale   =       1.2000000000000000 [-]
	 SCS Same-Spin Energy      =      -0.1607493351831125 [Eh]
	 SCS Opposite-Spin Energy  =      -1.8074542229924795 [Eh]
	 SCS Correlation Energy    =      -1.9682035581755921 [Eh]
	 SCS Total Energy          =    -460.6251584409507132 [Eh]
	-----------------------------------------------------------

  Dipole Moment: [D]
     X:    -0.4645      Y:     1.1896      Z:     0.0050     Total:     1.2771

*** Psi4 exiting successfully. Buy a developer a beer!
