                               Psi4 1.4a3.dev225

  ==> Input File <==

--------------------------------------------------------------------------
#psi4
#
memory 32 gb

molecule  {
0 1
  O       -1.8116000     2.3801270     0.1363720
  O       -1.7799440    -2.3994320     0.1189850
  C        0.9489570    -0.0306590    -0.3689570
  C        2.4429910    -0.0568610    -0.5708560
  C        0.2354480    -1.2220220    -0.2373930
  C        0.2798030     1.1938580    -0.2383990
  C        3.1984060    -0.0265600     0.7613490
  C       -1.0817080     1.1969917     0.0061050
  C       -1.1396310    -1.1871160     0.0102260
  C       -1.8132500     0.0254130     0.1385790
  H        2.7180680    -0.9584190    -1.1301260
  H        2.7446220     0.7994920    -1.1857830
  H        0.7258350    -2.1872220    -0.3369480
  H        0.8309290     2.1284970    -0.3452230
  H        2.9508560     0.8787730     1.3230630
  H        4.2811760    -0.0477390     0.6027570
  H        2.9230980    -0.8883860     1.3756490
  H       -2.8837580     0.0741080     0.3259950
  H       -1.1979550     3.1274200     0.0245130
  H       -2.7238770    -2.2320380     0.2881370
units angstrom
no_reorient  #important for SAPT in psi4, default
symmetry c1  #important for SAPT in psi4, default
}

set PROPERTIES_ORIGIN ["COM"]
properties('MP2/aug-cc-pvtz', properties = ['dipole'])
--------------------------------------------------------------------------

    Molecular point group: c1
  Charge       = 0
  Multiplicity = 1
  Basis Set: AUG-CC-PVTZ
    Blend: AUG-CC-PVTZ
  Basis Set: (AUG-CC-PVTZ AUX)
    Blend: AUG-CC-PVTZ-JKFIT

    Orbital Energies [Eh]
    ---------------------

    Doubly Occupied:

       1A    -20.593942     2A    -20.591706     3A    -11.309902
       4A    -11.309276     5A    -11.252949     6A    -11.233080
       7A    -11.224897     8A    -11.223334     9A    -11.220365
      10A    -11.217936    11A     -1.402366    12A     -1.393016
      13A     -1.152270    14A     -1.064995    15A     -1.002876
      16A     -0.989167    17A     -0.877428    18A     -0.834371
      19A     -0.807411    20A     -0.737490    21A     -0.687988
      22A     -0.670841    23A     -0.666104    24A     -0.611362
      25A     -0.600805    26A     -0.594991    27A     -0.585852
      28A     -0.572563    29A     -0.553588    30A     -0.550545
      31A     -0.525516    32A     -0.521580    33A     -0.488816
      34A     -0.483340    35A     -0.455179    36A     -0.327166
      37A     -0.313830

  @DF-RHF Final Energy:  -458.65896065537981

   => Energetics <=

    Nuclear Repulsion Energy =            507.2436426839795445
    One-Electron Energy =               -1630.5075209273877590
    Two-Electron Energy =                 664.6049175880284565
    Total Energy =                       -458.6589606553798149
  Basis Set: (AUG-CC-PVTZ AUX)
    Blend: AUG-CC-PVTZ-RI
    Molecular point group: c1

    Geometry (in Angstrom), charge = 0, multiplicity = 1:

       Center              X                  Y                   Z               Mass
    ------------   -----------------  -----------------  -----------------  -----------------
         O           -1.738128159496     2.386589935200     0.143313018837    15.994914619570
         O           -1.706472159496    -2.392969064800     0.125926018837    15.994914619570
         C            1.022428840504    -0.024196064800    -0.362015981163    12.000000000000
         C            2.516462840504    -0.050398064800    -0.563914981163    12.000000000000
         C            0.308919840504    -1.215559064800    -0.230451981163    12.000000000000
         C            0.353274840504     1.200320935200    -0.231457981163    12.000000000000
         C            3.271877840504    -0.020097064800     0.768290018837    12.000000000000
         C           -1.008236159496     1.203454635200     0.013046018837    12.000000000000
         C           -1.066159159496    -1.180653064800     0.017167018837    12.000000000000
         C           -1.739778159496     0.031875935200     0.145520018837    12.000000000000
         H            2.791539840504    -0.951956064800    -1.123184981163     1.007825032230
         H            2.818093840504     0.805954935200    -1.178841981163     1.007825032230
         H            0.799306840504    -2.180759064800    -0.330006981163     1.007825032230
         H            0.904400840504     2.134959935200    -0.338281981163     1.007825032230
         H            3.024327840504     0.885235935200     1.330004018837     1.007825032230
         H            4.354647840504    -0.041276064800     0.609698018837     1.007825032230
         H            2.996569840504    -0.881923064800     1.382590018837     1.007825032230
         H           -2.810286159496     0.080570935200     0.332936018837     1.007825032230
         H           -1.124483159496     3.133882935200     0.031454018837     1.007825032230
         H           -2.650405159496    -2.225575064800     0.295078018837     1.007825032230

  Basis Set: AUG-CC-PVTZ
    Blend: AUG-CC-PVTZ
  Basis Set: (AUG-CC-PVTZ AUX)
    Blend: AUG-CC-PVTZ-JKFIT
	 Reference Energy          =    -458.6589606553798149 [Eh]
	 Singles Energy            =      -0.0000000000000000 [Eh]
	 Same-Spin Energy          =      -0.4817664612328096 [Eh]
	 Opposite-Spin Energy      =      -1.5057159423711282 [Eh]
	 Correlation Energy        =      -1.9874824036039378 [Eh]
	 Total Energy              =    -460.6464430589837775 [Eh]

	 ================> DF-SCS-MP2 Energies <==================
	-----------------------------------------------------------
	 SCS Same-Spin Scale       =       0.3333333333333333 [-]
	 SCS Opposite-Spin Scale   =       1.2000000000000000 [-]
	 SCS Same-Spin Energy      =      -0.1605888204109365 [Eh]
	 SCS Opposite-Spin Energy  =      -1.8068591308453537 [Eh]
	 SCS Correlation Energy    =      -1.9674479512562901 [Eh]
	 SCS Total Energy          =    -460.6264086066361187 [Eh]
	-----------------------------------------------------------

  Dipole Moment: [D]
     X:     0.5958      Y:     1.0990      Z:    -0.0274     Total:     1.2504

*** Psi4 exiting successfully. Buy a developer a beer!
