                               Psi4 1.4a3.dev225

  ==> Input File <==

--------------------------------------------------------------------------
#psi4
#
memory 32 gb

molecule  {
0 1
  O       -1.8116000     2.3801270     0.1363720
  O       -1.7799440    -2.3994320     0.1189850
  C        0.9489570    -0.0306590    -0.3689570
  C        2.4429910    -0.0568610    -0.5708560
  C        0.2354480    -1.2220220    -0.2373930
  C        0.3036755     1.1501726    -0.2430567
  C        3.1984060    -0.0265600     0.7613490
  C       -1.0921630     1.2139390     0.0079710
  C       -1.1396310    -1.1871160     0.0102260
  C       -1.8132500     0.0254130     0.1385790
  H        2.7180680    -0.9584190    -1.1301260
  H        2.7446220     0.7994920    -1.1857830
  H        0.7258350    -2.1872220    -0.3369480
  H        0.8309290     2.1284970    -0.3452230
  H        2.9508560     0.8787730     1.3230630
  H        4.2811760    -0.0477390     0.6027570
  H        2.9230980    -0.8883860     1.3756490
  H       -2.8837580     0.0741080     0.3259950
  H       -1.1979550     3.1274200     0.0245130
  H       -2.7238770    -2.2320380     0.2881370
units angstrom
no_reorient  #important for SAPT in psi4, default
symmetry c1  #important for SAPT in psi4, default
}

set PROPERTIES_ORIGIN ["COM"]
properties('MP2/aug-cc-pvtz', properties = ['dipole'])
--------------------------------------------------------------------------

    Molecular point group: c1
  Charge       = 0
  Multiplicity = 1
  Basis Set: AUG-CC-PVTZ
    Blend: AUG-CC-PVTZ
  Basis Set: (AUG-CC-PVTZ AUX)
    Blend: AUG-CC-PVTZ-JKFIT

    Orbital Energies [Eh]
    ---------------------

    Doubly Occupied:

       1A    -20.599726     2A    -20.592523     3A    -11.314643
       4A    -11.307952     5A    -11.245518     6A    -11.231669
       7A    -11.225096     8A    -11.224562     9A    -11.219248
      10A    -11.215128    11A     -1.406202    12A     -1.400358
      13A     -1.153899    14A     -1.064165    15A     -0.997966
      16A     -0.990358    17A     -0.873995    18A     -0.837627
      19A     -0.807943    20A     -0.742698    21A     -0.686044
      22A     -0.674949    23A     -0.661720    24A     -0.612555
      25A     -0.602446    26A     -0.595479    27A     -0.586599
      28A     -0.576193    29A     -0.555896    30A     -0.548302
      31A     -0.522244    32A     -0.519438    33A     -0.488659
      34A     -0.479458    35A     -0.456218    36A     -0.330807
      37A     -0.307910

  @DF-RHF Final Energy:  -458.65610098547546

   => Energetics <=

    Nuclear Repulsion Energy =            507.5634606876887460
    One-Electron Energy =               -1631.1267393628531863
    Two-Electron Energy =                 664.9071776896889787
    Total Energy =                       -458.6561009854754047
  Basis Set: (AUG-CC-PVTZ AUX)
    Blend: AUG-CC-PVTZ-RI
    Molecular point group: c1

    Geometry (in Angstrom), charge = 0, multiplicity = 1:

       Center              X                  Y                   Z               Mass
    ------------   -----------------  -----------------  -----------------  -----------------
         O           -1.739294323323     2.388913840921     0.143555655659    15.994914619570
         O           -1.707638323323    -2.390645159079     0.126168655659    15.994914619570
         C            1.021262676677    -0.021872159079    -0.361773344341    12.000000000000
         C            2.515296676677    -0.048074159079    -0.563672344341    12.000000000000
         C            0.307753676677    -1.213235159079    -0.230209344341    12.000000000000
         C            0.375981176677     1.158959440921    -0.235873044341    12.000000000000
         C            3.270711676677    -0.017773159079     0.768532655659    12.000000000000
         C           -1.019857323323     1.222725840921     0.015154655659    12.000000000000
         C           -1.067325323323    -1.178329159079     0.017409655659    12.000000000000
         C           -1.740944323323     0.034199840921     0.145762655659    12.000000000000
         H            2.790373676677    -0.949632159079    -1.122942344341     1.007825032230
         H            2.816927676677     0.808278840921    -1.178599344341     1.007825032230
         H            0.798140676677    -2.178435159079    -0.329764344341     1.007825032230
         H            0.903234676677     2.137283840921    -0.338039344341     1.007825032230
         H            3.023161676677     0.887559840921     1.330246655659     1.007825032230
         H            4.353481676677    -0.038952159079     0.609940655659     1.007825032230
         H            2.995403676677    -0.879599159079     1.382832655659     1.007825032230
         H           -2.811452323323     0.082894840921     0.333178655659     1.007825032230
         H           -1.125649323323     3.136206840921     0.031696655659     1.007825032230
         H           -2.651571323323    -2.223251159079     0.295320655659     1.007825032230

  Basis Set: AUG-CC-PVTZ
    Blend: AUG-CC-PVTZ
  Basis Set: (AUG-CC-PVTZ AUX)
    Blend: AUG-CC-PVTZ-JKFIT
	 Reference Energy          =    -458.6561009854754616 [Eh]
	 Singles Energy            =      -0.0000000000000000 [Eh]
	 Same-Spin Energy          =      -0.4819979179249838 [Eh]
	 Opposite-Spin Energy      =      -1.5058629314437355 [Eh]
	 Correlation Energy        =      -1.9878608493687193 [Eh]
	 Total Energy              =    -460.6439618348441627 [Eh]

	 ================> DF-SCS-MP2 Energies <==================
	-----------------------------------------------------------
	 SCS Same-Spin Scale       =       0.3333333333333333 [-]
	 SCS Opposite-Spin Scale   =       1.2000000000000000 [-]
	 SCS Same-Spin Energy      =      -0.1606659726416612 [Eh]
	 SCS Opposite-Spin Energy  =      -1.8070355177324826 [Eh]
	 SCS Correlation Energy    =      -1.9677014903741439 [Eh]
	 SCS Total Energy          =    -460.6238024758496294 [Eh]
	-----------------------------------------------------------

  Dipole Moment: [D]
     X:     0.4813      Y:     1.2998      Z:    -0.0106     Total:     1.3861

*** Psi4 exiting successfully. Buy a developer a beer!
