                               Psi4 1.3.2 release

  ==> Input File <==

--------------------------------------------------------------------------
#psi4
#
memory 32 gb

molecule  {
0 1
  O        1.7627890     2.3683800    -0.1458810
  O        1.6754140    -2.4069960    -0.1279020
  C       -1.0215720    -0.0077180     0.3641480
  C       -2.5139530    -0.0194410     0.5634370
  C       -0.3857301    -1.2429264     0.2461432
  C       -0.4003986     1.2400236     0.2467048
  C       -3.2735700    -0.0197480    -0.7643280
  C        1.0346870     1.2106680    -0.0181020
  C        1.0480560    -1.1910380    -0.0190010
  C        1.7368580     0.0147850    -0.1457440
  H       -2.7927850    -0.9030380     1.1483340
  H       -2.8082890     0.8538600     1.1573130
  H       -0.8312370    -2.1635460     0.3309200
  H       -0.8789600     2.1456520     0.3351900
  H       -3.0230990     0.8672620    -1.3527740
  H       -4.3574070    -0.0294260    -0.6053230
  H       -3.0076490    -0.8981260    -1.3586750
  H        2.8074370     0.0467670    -0.3362510
  H        1.1590650     3.1223080    -0.0299710
  H        2.6215300    -2.2543830    -0.2976190
units angstrom
no_reorient  #important for SAPT in psi4, default
symmetry c1  #important for SAPT in psi4, default
}

set PROPERTIES_ORIGIN ["COM"]
properties('MP2/aug-cc-pvtz', properties = ['dipole'])
--------------------------------------------------------------------------

    Molecular point group: c1
  Charge       = 0
  Multiplicity = 1
  Basis Set: AUG-CC-PVTZ
    Blend: AUG-CC-PVTZ
  Basis Set: (AUG-CC-PVTZ AUX)
    Blend: AUG-CC-PVTZ-JKFIT

    Orbital Energies [Eh]
    ---------------------

    Doubly Occupied:

       1A    -20.599138     2A    -20.597075     3A    -11.321515
       4A    -11.319663     5A    -11.251086     6A    -11.226673
       7A    -11.225787     8A    -11.222341     9A    -11.216964
      10A    -11.216181    11A     -1.407924    12A     -1.404674
      13A     -1.141574    14A     -1.062326    15A     -0.991999
      16A     -0.987045    17A     -0.871423    18A     -0.844947
      19A     -0.802954    20A     -0.736232    21A     -0.698876
      22A     -0.680038    23A     -0.664511    24A     -0.609113
      25A     -0.602411    26A     -0.595524    27A     -0.593535
      28A     -0.577214    29A     -0.558079    30A     -0.547729
      31A     -0.537804    32A     -0.518952    33A     -0.484301
      34A     -0.468750    35A     -0.447880    36A     -0.330997
      37A     -0.301051

  @DF-RHF Final Energy:  -458.64492811562110

   => Energetics <=

    Nuclear Repulsion Energy =            505.5332947383092232
    One-Electron Energy =               -1627.0278676918294423
    Two-Electron Energy =                 662.8496448378991772
    Total Energy =                       -458.6449281156210418
  Basis Set: (AUG-CC-PVTZ AUX)
    Blend: AUG-CC-PVTZ-RI
    Molecular point group: c1

    Geometry (in Angstrom), charge = 0, multiplicity = 1:

       Center              X                  Y                   Z               Mass
    ------------   -----------------  -----------------  -----------------  -----------------
         O            1.773740481264     2.368444506875    -0.147932234151    15.994914619570
         O            1.686365481264    -2.406931493125    -0.129953234151    15.994914619570
         C           -1.010620518736    -0.007653493125     0.362096765849    12.000000000000
         C           -2.503001518736    -0.019376493125     0.561385765849    12.000000000000
         C           -0.374778618736    -1.242861893125     0.244091965849    12.000000000000
         C           -0.389447118736     1.240088106875     0.244653565849    12.000000000000
         C           -3.262618518736    -0.019683493125    -0.766379234151    12.000000000000
         C            1.045638481264     1.210732506875    -0.020153234151    12.000000000000
         C            1.059007481264    -1.190973493125    -0.021052234151    12.000000000000
         C            1.747809481264     0.014849506875    -0.147795234151    12.000000000000
         H           -2.781833518736    -0.902973493125     1.146282765849     1.007825032230
         H           -2.797337518736     0.853924506875     1.155261765849     1.007825032230
         H           -0.820285518736    -2.163481493125     0.328868765849     1.007825032230
         H           -0.868008518736     2.145716506875     0.333138765849     1.007825032230
         H           -3.012147518736     0.867326506875    -1.354825234151     1.007825032230
         H           -4.346455518736    -0.029361493125    -0.607374234151     1.007825032230
         H           -2.996697518736    -0.898061493125    -1.360726234151     1.007825032230
         H            2.818388481264     0.046831506875    -0.338302234151     1.007825032230
         H            1.170016481264     3.122372506875    -0.032022234151     1.007825032230
         H            2.632481481264    -2.254318493125    -0.299670234151     1.007825032230

  Basis Set: AUG-CC-PVTZ
    Blend: AUG-CC-PVTZ
  Basis Set: (AUG-CC-PVTZ AUX)
    Blend: AUG-CC-PVTZ-JKFIT
	 Reference Energy          =    -458.6449281156210986 [Eh]
	 Singles Energy            =      -0.0000000000000000 [Eh]
	 Same-Spin Energy          =      -0.4814319136701387 [Eh]
	 Opposite-Spin Energy      =      -1.5059555031660656 [Eh]
	 Correlation Energy        =      -1.9873874168362042 [Eh]
	 Total Energy              =    -460.6323155324573122 [Eh]

	 ================> DF-SCS-MP2 Energies <==================
	-----------------------------------------------------------
	 SCS Same-Spin Scale       =       0.3333333333333333 [-]
	 SCS Opposite-Spin Scale   =       1.2000000000000000 [-]
	 SCS Same-Spin Energy      =      -0.1604773045567129 [Eh]
	 SCS Opposite-Spin Energy  =      -1.8071466037992787 [Eh]
	 SCS Correlation Energy    =      -1.9676239083559917 [Eh]
	 SCS Total Energy          =    -460.6125520239771163 [Eh]
	-----------------------------------------------------------

  Dipole Moment: [D]
     X:    -0.2865      Y:     1.2256      Z:    -0.0105     Total:     1.2586

*** Psi4 exiting successfully. Buy a developer a beer!
