                               Psi4 1.3.2 release

  ==> Input File <==

--------------------------------------------------------------------------
#psi4
#
memory 32 gb

molecule  {
0 1
  O        1.7627890     2.3683800    -0.1458810
  O        1.6754140    -2.4069960    -0.1279020
  C       -1.0215720    -0.0077180     0.3641480
  C       -2.5139530    -0.0194410     0.5634370
  C       -0.3230660    -1.2073880     0.2343750
  C       -0.3370590     1.2052280     0.2348720
  C       -3.2735700    -0.0197480    -0.7643280
  C        1.0546535     1.1979437    -0.0218645
  C        1.0480560    -1.1910380    -0.0190010
  C        1.7368580     0.0147850    -0.1457440
  H       -2.7927850    -0.9030380     1.1483340
  H       -2.8082890     0.8538600     1.1573130
  H       -0.8312370    -2.1635460     0.3309200
  H       -0.8789600     2.1456520     0.3351900
  H       -3.0230990     0.8672620    -1.3527740
  H       -4.3574070    -0.0294260    -0.6053230
  H       -3.0076490    -0.8981260    -1.3586750
  H        2.8074370     0.0467670    -0.3362510
  H        1.1721072     3.1329216    -0.0323187
  H        2.6215300    -2.2543830    -0.2976190
units angstrom
no_reorient  #important for SAPT in psi4, default
symmetry c1  #important for SAPT in psi4, default
}

set PROPERTIES_ORIGIN ["COM"]
properties('MP2/aug-cc-pvtz', properties = ['dipole'])
--------------------------------------------------------------------------

    Molecular point group: c1
  Charge       = 0
  Multiplicity = 1
  Basis Set: AUG-CC-PVTZ
    Blend: AUG-CC-PVTZ
  Basis Set: (AUG-CC-PVTZ AUX)
    Blend: AUG-CC-PVTZ-JKFIT

    Orbital Energies [Eh]
    ---------------------

    Doubly Occupied:

       1A    -20.594455     2A    -20.593915     3A    -11.310692
       4A    -11.309500     5A    -11.250592     6A    -11.231622
       7A    -11.223771     8A    -11.222839     9A    -11.219376
      10A    -11.215355    11A     -1.404459    12A     -1.401684
      13A     -1.150187    14A     -1.065771    15A     -0.999370
      16A     -0.988544    17A     -0.875514    18A     -0.838591
      19A     -0.807585    20A     -0.738690    21A     -0.688974
      22A     -0.677508    23A     -0.665906    24A     -0.610992
      25A     -0.601918    26A     -0.595311    27A     -0.586759
      28A     -0.576162    29A     -0.552636    30A     -0.547830
      31A     -0.525028    32A     -0.520842    33A     -0.487388
      34A     -0.480420    35A     -0.453713    36A     -0.328693
      37A     -0.308710

  @DF-RHF Final Energy:  -458.65953632210443

   => Energetics <=

    Nuclear Repulsion Energy =            507.4729915455455966
    One-Electron Energy =               -1630.9624523938182392
    Two-Electron Energy =                 664.8299245261683836
    Total Energy =                       -458.6595363221043726
  Basis Set: (AUG-CC-PVTZ AUX)
    Blend: AUG-CC-PVTZ-RI
    Molecular point group: c1

    Geometry (in Angstrom), charge = 0, multiplicity = 1:

       Center              X                  Y                   Z               Mass
    ------------   -----------------  -----------------  -----------------  -----------------
         O            1.760958477913     2.369408388959    -0.145536835650    15.994914619570
         O            1.673583477913    -2.405967611041    -0.127557835650    15.994914619570
         C           -1.023402522087    -0.006689611041     0.364492164350    12.000000000000
         C           -2.515783522087    -0.018412611041     0.563781164350    12.000000000000
         C           -0.324896522087    -1.206359611041     0.234719164350    12.000000000000
         C           -0.338889522087     1.206256388959     0.235216164350    12.000000000000
         C           -3.275400522087    -0.018719611041    -0.763983835650    12.000000000000
         C            1.052822977913     1.198972088959    -0.021520335650    12.000000000000
         C            1.046225477913    -1.190009611041    -0.018656835650    12.000000000000
         C            1.735027477913     0.015813388959    -0.145399835650    12.000000000000
         H           -2.794615522087    -0.902009611041     1.148678164350     1.007825032230
         H           -2.810119522087     0.854888388959     1.157657164350     1.007825032230
         H           -0.833067522087    -2.162517611041     0.331264164350     1.007825032230
         H           -0.880790522087     2.146680388959     0.335534164350     1.007825032230
         H           -3.024929522087     0.868290388959    -1.352429835650     1.007825032230
         H           -4.359237522087    -0.028397611041    -0.604978835650     1.007825032230
         H           -3.009479522087    -0.897097611041    -1.358330835650     1.007825032230
         H            2.805606477913     0.047795388959    -0.335906835650     1.007825032230
         H            1.170276677913     3.133949988959    -0.031974535650     1.007825032230
         H            2.619699477913    -2.253354611041    -0.297274835650     1.007825032230

  Basis Set: AUG-CC-PVTZ
    Blend: AUG-CC-PVTZ
  Basis Set: (AUG-CC-PVTZ AUX)
    Blend: AUG-CC-PVTZ-JKFIT
	 Reference Energy          =    -458.6595363221044295 [Eh]
	 Singles Energy            =      -0.0000000000000000 [Eh]
	 Same-Spin Energy          =      -0.4816466364014997 [Eh]
	 Opposite-Spin Energy      =      -1.5050139531625075 [Eh]
	 Correlation Energy        =      -1.9866605895640073 [Eh]
	 Total Energy              =    -460.6461969116684259 [Eh]

	 ================> DF-SCS-MP2 Energies <==================
	-----------------------------------------------------------
	 SCS Same-Spin Scale       =       0.3333333333333333 [-]
	 SCS Opposite-Spin Scale   =       1.2000000000000000 [-]
	 SCS Same-Spin Energy      =      -0.1605488788004999 [Eh]
	 SCS Opposite-Spin Energy  =      -1.8060167437950090 [Eh]
	 SCS Correlation Energy    =      -1.9665656225955088 [Eh]
	 SCS Total Energy          =    -460.6261019446999398 [Eh]
	-----------------------------------------------------------

  Dipole Moment: [D]
     X:    -0.4586      Y:     1.2285      Z:     0.0029     Total:     1.3113

*** Psi4 exiting successfully. Buy a developer a beer!
