                               Psi4 1.3.2 release

  ==> Input File <==

--------------------------------------------------------------------------
#psi4
#
memory 32 gb

molecule  {
0 1
  O        1.7627890     2.3683800    -0.1458810
  O        1.6754140    -2.4069960    -0.1279020
  C       -1.0184867    -0.0524579     0.3915502
  C       -2.5139530    -0.0194410     0.5634370
  C       -0.3230660    -1.2073880     0.2343750
  C       -0.3370590     1.2052280     0.2348720
  C       -3.2735700    -0.0197480    -0.7643280
  C        1.0346870     1.2106680    -0.0181020
  C        1.0480560    -1.1910380    -0.0190010
  C        1.7368580     0.0147850    -0.1457440
  H       -2.7558681    -0.9129338     1.1497331
  H       -2.8082890     0.8538600     1.1573130
  H       -0.8312370    -2.1635460     0.3309200
  H       -0.8789600     2.1456520     0.3351900
  H       -3.0230990     0.8672620    -1.3527740
  H       -4.3574070    -0.0294260    -0.6053230
  H       -3.0076490    -0.8981260    -1.3586750
  H        2.8074370     0.0467670    -0.3362510
  H        1.1590650     3.1223080    -0.0299710
  H        2.6215300    -2.2543830    -0.2976190
units angstrom
no_reorient  #important for SAPT in psi4, default
symmetry c1  #important for SAPT in psi4, default
}

set PROPERTIES_ORIGIN ["COM"]
properties('MP2/aug-cc-pvtz', properties = ['dipole'])
--------------------------------------------------------------------------

    Molecular point group: c1
  Charge       = 0
  Multiplicity = 1
  Basis Set: AUG-CC-PVTZ
    Blend: AUG-CC-PVTZ
  Basis Set: (AUG-CC-PVTZ AUX)
    Blend: AUG-CC-PVTZ-JKFIT

    Orbital Energies [Eh]
    ---------------------

    Doubly Occupied:

       1A    -20.594640     2A    -20.594399     3A    -11.310621
       4A    -11.309035     5A    -11.250667     6A    -11.232109
       7A    -11.224088     8A    -11.223715     9A    -11.220337
      10A    -11.214390    11A     -1.405005    12A     -1.402290
      13A     -1.150484    14A     -1.064016    15A     -1.003238
      16A     -0.985445    17A     -0.878094    18A     -0.838073
      19A     -0.808813    20A     -0.734933    21A     -0.688167
      22A     -0.676263    23A     -0.666407    24A     -0.609060
      25A     -0.602903    26A     -0.596005    27A     -0.588043
      28A     -0.576588    29A     -0.553350    30A     -0.549561
      31A     -0.525043    32A     -0.520857    33A     -0.492651
      34A     -0.475228    35A     -0.453783    36A     -0.327366
      37A     -0.310582

  @DF-RHF Final Energy:  -458.65697679041472

   => Energetics <=

    Nuclear Repulsion Energy =            507.4711695679736181
    One-Electron Energy =               -1630.9437950254327916
    Two-Electron Energy =                 664.8156486670444565
    Total Energy =                       -458.6569767904146602
  Basis Set: (AUG-CC-PVTZ AUX)
    Blend: AUG-CC-PVTZ-RI
    Molecular point group: c1

    Geometry (in Angstrom), charge = 0, multiplicity = 1:

       Center              X                  Y                   Z               Mass
    ------------   -----------------  -----------------  -----------------  -----------------
         O            1.762251411661     2.372340689372    -0.148272822998    15.994914619570
         O            1.674876411661    -2.403035310628    -0.130293822998    15.994914619570
         C           -1.019024288339    -0.048497210628     0.389158377002    12.000000000000
         C           -2.514490588339    -0.015480310628     0.561045177002    12.000000000000
         C           -0.323603588339    -1.203427310628     0.231983177002    12.000000000000
         C           -0.337596588339     1.209188689372     0.232480177002    12.000000000000
         C           -3.274107588339    -0.015787310628    -0.766719822998    12.000000000000
         C            1.034149411661     1.214628689372    -0.020493822998    12.000000000000
         C            1.047518411661    -1.187077310628    -0.021392822998    12.000000000000
         C            1.736320411661     0.018745689372    -0.148135822998    12.000000000000
         H           -2.756405688339    -0.908973110628     1.147341277002     1.007825032230
         H           -2.808826588339     0.857820689372     1.154921177002     1.007825032230
         H           -0.831774588339    -2.159585310628     0.328528177002     1.007825032230
         H           -0.879497588339     2.149612689372     0.332798177002     1.007825032230
         H           -3.023636588339     0.871222689372    -1.355165822998     1.007825032230
         H           -4.357944588339    -0.025465310628    -0.607714822998     1.007825032230
         H           -3.008186588339    -0.894165310628    -1.361066822998     1.007825032230
         H            2.806899411661     0.050727689372    -0.338642822998     1.007825032230
         H            1.158527411661     3.126268689372    -0.032362822998     1.007825032230
         H            2.620992411661    -2.250422310628    -0.300010822998     1.007825032230

  Basis Set: AUG-CC-PVTZ
    Blend: AUG-CC-PVTZ
  Basis Set: (AUG-CC-PVTZ AUX)
    Blend: AUG-CC-PVTZ-JKFIT
	 Reference Energy          =    -458.6569767904147170 [Eh]
	 Singles Energy            =      -0.0000000000000000 [Eh]
	 Same-Spin Energy          =      -0.4816592574115720 [Eh]
	 Opposite-Spin Energy      =      -1.5053652153873749 [Eh]
	 Correlation Energy        =      -1.9870244727989470 [Eh]
	 Total Energy              =    -460.6440012632136813 [Eh]

	 ================> DF-SCS-MP2 Energies <==================
	-----------------------------------------------------------
	 SCS Same-Spin Scale       =       0.3333333333333333 [-]
	 SCS Opposite-Spin Scale   =       1.2000000000000000 [-]
	 SCS Same-Spin Energy      =      -0.1605530858038573 [Eh]
	 SCS Opposite-Spin Energy  =      -1.8064382584648497 [Eh]
	 SCS Correlation Energy    =      -1.9669913442687070 [Eh]
	 SCS Total Energy          =    -460.6239681346834232 [Eh]
	-----------------------------------------------------------

  Dipole Moment: [D]
     X:    -0.4888      Y:     1.1682      Z:    -0.0159     Total:     1.2665

*** Psi4 exiting successfully. Buy a developer a beer!
