                               Psi4 1.4a3.dev225

  ==> Input File <==

--------------------------------------------------------------------------
#psi4
#
memory 32 gb

molecule  {
0 1
  O       -1.8116000     2.3801270     0.1363720
  O       -1.7799440    -2.3994320     0.1189850
  C        0.9489570    -0.0306590    -0.3689570
  C        2.4429910    -0.0568610    -0.5708560
  C        0.2354480    -1.2220220    -0.2373930
  C        0.2798030     1.1938580    -0.2383990
  C        3.1984060    -0.0265600     0.7613490
  C       -1.0921630     1.2139390     0.0079710
  C       -1.1199537    -1.1876155     0.0066826
  C       -1.8132500     0.0254130     0.1385790
  H        2.7180680    -0.9584190    -1.1301260
  H        2.7446220     0.7994920    -1.1857830
  H        0.7258350    -2.1872220    -0.3369480
  H        0.8309290     2.1284970    -0.3452230
  H        2.9508560     0.8787730     1.3230630
  H        4.2811760    -0.0477390     0.6027570
  H        2.9230980    -0.8883860     1.3756490
  H       -2.8837580     0.0741080     0.3259950
  H       -1.1979550     3.1274200     0.0245130
  H       -2.7238770    -2.2320380     0.2881370
units angstrom
no_reorient  #important for SAPT in psi4, default
symmetry c1  #important for SAPT in psi4, default
}

set PROPERTIES_ORIGIN ["COM"]
properties('MP2/aug-cc-pvtz', properties = ['dipole'])
--------------------------------------------------------------------------

    Molecular point group: c1
  Charge       = 0
  Multiplicity = 1
  Basis Set: AUG-CC-PVTZ
    Blend: AUG-CC-PVTZ
  Basis Set: (AUG-CC-PVTZ AUX)
    Blend: AUG-CC-PVTZ-JKFIT

    Orbital Energies [Eh]
    ---------------------

    Doubly Occupied:

       1A    -20.595623     2A    -20.590722     3A    -11.310912
       4A    -11.308322     5A    -11.253435     6A    -11.233231
       7A    -11.225395     8A    -11.224218     9A    -11.220416
      10A    -11.215749    11A     -1.403820    12A     -1.395606
      13A     -1.151306    14A     -1.063279    15A     -1.004522
      16A     -0.987267    17A     -0.877368    18A     -0.834463
      19A     -0.807481    20A     -0.738330    21A     -0.686561
      22A     -0.674178    23A     -0.666593    24A     -0.611828
      25A     -0.601765    26A     -0.594685    27A     -0.586589
      28A     -0.573842    29A     -0.554129    30A     -0.548838
      31A     -0.523309    32A     -0.520560    33A     -0.489071
      34A     -0.484245    35A     -0.454471    36A     -0.324492
      37A     -0.314545

  @DF-RHF Final Energy:  -458.65915407242807

   => Energetics <=

    Nuclear Repulsion Energy =            507.1793625083644770
    One-Electron Energy =               -1630.3747026658252253
    Two-Electron Energy =                 664.5361860850326821
    Total Energy =                       -458.6591540724281231
  Basis Set: (AUG-CC-PVTZ AUX)
    Blend: AUG-CC-PVTZ-RI
    Molecular point group: c1

    Geometry (in Angstrom), charge = 0, multiplicity = 1:

       Center              X                  Y                   Z               Mass
    ------------   -----------------  -----------------  -----------------  -----------------
         O           -1.738929703201     2.385160396956     0.143458807785    15.994914619570
         O           -1.707273703201    -2.394398603044     0.126071807785    15.994914619570
         C            1.021627296799    -0.025625603044    -0.361870192215    12.000000000000
         C            2.515661296799    -0.051827603044    -0.563769192215    12.000000000000
         C            0.308118296799    -1.216988603044    -0.230306192215    12.000000000000
         C            0.352473296799     1.198891396956    -0.231312192215    12.000000000000
         C            3.271076296799    -0.021526603044     0.768435807785    12.000000000000
         C           -1.019492703201     1.218972396956     0.015057807785    12.000000000000
         C           -1.047283403201    -1.182582103044     0.013769407785    12.000000000000
         C           -1.740579703201     0.030446396956     0.145665807785    12.000000000000
         H            2.790738296799    -0.953385603044    -1.123039192215     1.007825032230
         H            2.817292296799     0.804525396956    -1.178696192215     1.007825032230
         H            0.798505296799    -2.182188603044    -0.329861192215     1.007825032230
         H            0.903599296799     2.133530396956    -0.338136192215     1.007825032230
         H            3.023526296799     0.883806396956     1.330149807785     1.007825032230
         H            4.353846296799    -0.042705603044     0.609843807785     1.007825032230
         H            2.995768296799    -0.883352603044     1.382735807785     1.007825032230
         H           -2.811087703201     0.079141396956     0.333081807785     1.007825032230
         H           -1.125284703201     3.132453396956     0.031599807785     1.007825032230
         H           -2.651206703201    -2.227004603044     0.295223807785     1.007825032230

  Basis Set: AUG-CC-PVTZ
    Blend: AUG-CC-PVTZ
  Basis Set: (AUG-CC-PVTZ AUX)
    Blend: AUG-CC-PVTZ-JKFIT
	 Reference Energy          =    -458.6591540724280662 [Eh]
	 Singles Energy            =      -0.0000000000000000 [Eh]
	 Same-Spin Energy          =      -0.4817495703947937 [Eh]
	 Opposite-Spin Energy      =      -1.5055382696260722 [Eh]
	 Correlation Energy        =      -1.9872878400208660 [Eh]
	 Total Energy              =    -460.6464419124489496 [Eh]

	 ================> DF-SCS-MP2 Energies <==================
	-----------------------------------------------------------
	 SCS Same-Spin Scale       =       0.3333333333333333 [-]
	 SCS Opposite-Spin Scale   =       1.2000000000000000 [-]
	 SCS Same-Spin Energy      =      -0.1605831901315979 [Eh]
	 SCS Opposite-Spin Energy  =      -1.8066459235512866 [Eh]
	 SCS Correlation Energy    =      -1.9672291136828846 [Eh]
	 SCS Total Energy          =    -460.6263831861109566 [Eh]
	-----------------------------------------------------------

  Dipole Moment: [D]
     X:     0.5917      Y:     1.2805      Z:    -0.0269     Total:     1.4109

*** Psi4 exiting successfully. Buy a developer a beer!
