                               Psi4 1.3.2 release

  ==> Input File <==

--------------------------------------------------------------------------
#psi4
#
memory 32 gb

molecule  {
0 1
  O        1.7825642     2.3553024    -0.1494365
  O        1.6754140    -2.4069960    -0.1279020
  C       -1.0215720    -0.0077180     0.3641480
  C       -2.5139530    -0.0194410     0.5634370
  C       -0.3230660    -1.2073880     0.2343750
  C       -0.3370590     1.2052280     0.2348720
  C       -3.2735700    -0.0197480    -0.7643280
  C        1.0346870     1.2106680    -0.0181020
  C        1.0480560    -1.1910380    -0.0190010
  C        1.7573014     0.0274225    -0.1493697
  H       -2.7927850    -0.9030380     1.1483340
  H       -2.8082890     0.8538600     1.1573130
  H       -0.8312370    -2.1635460     0.3309200
  H       -0.8789600     2.1456520     0.3351900
  H       -3.0230990     0.8672620    -1.3527740
  H       -4.3574070    -0.0294260    -0.6053230
  H       -3.0076490    -0.8981260    -1.3586750
  H        2.8074370     0.0467670    -0.3362510
  H        1.1590650     3.1223080    -0.0299710
  H        2.6215300    -2.2543830    -0.2976190
units angstrom
no_reorient  #important for SAPT in psi4, default
symmetry c1  #important for SAPT in psi4, default
}

set PROPERTIES_ORIGIN ["COM"]
properties('MP2/aug-cc-pvtz', properties = ['dipole'])
--------------------------------------------------------------------------

    Molecular point group: c1
  Charge       = 0
  Multiplicity = 1
  Basis Set: AUG-CC-PVTZ
    Blend: AUG-CC-PVTZ
  Basis Set: (AUG-CC-PVTZ AUX)
    Blend: AUG-CC-PVTZ-JKFIT

    Orbital Energies [Eh]
    ---------------------

    Doubly Occupied:

       1A    -20.597245     2A    -20.593521     3A    -11.311202
       4A    -11.309902     5A    -11.252338     6A    -11.232483
       7A    -11.223126     8A    -11.223099     9A    -11.220016
      10A    -11.215929    11A     -1.403229    12A     -1.399932
      13A     -1.148644    14A     -1.062527    15A     -1.000292
      16A     -0.987757    17A     -0.877699    18A     -0.832429
      19A     -0.807422    20A     -0.738425    21A     -0.687843
      22A     -0.670304    23A     -0.666909    24A     -0.612218
      25A     -0.602037    26A     -0.595500    27A     -0.588542
      28A     -0.575892    29A     -0.552859    30A     -0.550732
      31A     -0.524164    32A     -0.519149    33A     -0.488121
      34A     -0.484018    35A     -0.452800    36A     -0.324113
      37A     -0.311371

  @DF-RHF Final Energy:  -458.65697735582444

   => Energetics <=

    Nuclear Repulsion Energy =            507.0462077991941214
    One-Electron Energy =               -1630.1187977607501125
    Two-Electron Energy =                 664.4156126057314395
    Total Energy =                       -458.6569773558244378
  Basis Set: (AUG-CC-PVTZ AUX)
    Blend: AUG-CC-PVTZ-RI
    Molecular point group: c1

    Geometry (in Angstrom), charge = 0, multiplicity = 1:

       Center              X                  Y                   Z               Mass
    ------------   -----------------  -----------------  -----------------  -----------------
         O            1.778496512154     2.355718990395    -0.148709464763    15.994914619570
         O            1.671346312154    -2.406579409605    -0.127174964763    15.994914619570
         C           -1.025639687846    -0.007301409605     0.364875035237    12.000000000000
         C           -2.518020687846    -0.019024409605     0.564164035237    12.000000000000
         C           -0.327133687846    -1.206971409605     0.235102035237    12.000000000000
         C           -0.341126687846     1.205644590395     0.235599035237    12.000000000000
         C           -3.277637687846    -0.019331409605    -0.763600964763    12.000000000000
         C            1.030619312154     1.211084590395    -0.017374964763    12.000000000000
         C            1.043988312154    -1.190621409605    -0.018273964763    12.000000000000
         C            1.753233712154     0.027839090395    -0.148642664763    12.000000000000
         H           -2.796852687846    -0.902621409605     1.149061035237     1.007825032230
         H           -2.812356687846     0.854276590395     1.158040035237     1.007825032230
         H           -0.835304687846    -2.163129409605     0.331647035237     1.007825032230
         H           -0.883027687846     2.146068590395     0.335917035237     1.007825032230
         H           -3.027166687846     0.867678590395    -1.352046964763     1.007825032230
         H           -4.361474687846    -0.029009409605    -0.604595964763     1.007825032230
         H           -3.011716687846    -0.897709409605    -1.357947964763     1.007825032230
         H            2.803369312154     0.047183590395    -0.335523964763     1.007825032230
         H            1.154997312154     3.122724590395    -0.029243964763     1.007825032230
         H            2.617462312154    -2.253966409605    -0.296891964763     1.007825032230

  Basis Set: AUG-CC-PVTZ
    Blend: AUG-CC-PVTZ
  Basis Set: (AUG-CC-PVTZ AUX)
    Blend: AUG-CC-PVTZ-JKFIT
	 Reference Energy          =    -458.6569773558244378 [Eh]
	 Singles Energy            =      -0.0000000000000000 [Eh]
	 Same-Spin Energy          =      -0.4820244012630359 [Eh]
	 Opposite-Spin Energy      =      -1.5061541124881082 [Eh]
	 Correlation Energy        =      -1.9881785137511441 [Eh]
	 Total Energy              =    -460.6451558695756034 [Eh]

	 ================> DF-SCS-MP2 Energies <==================
	-----------------------------------------------------------
	 SCS Same-Spin Scale       =       0.3333333333333333 [-]
	 SCS Opposite-Spin Scale   =       1.2000000000000000 [-]
	 SCS Same-Spin Energy      =      -0.1606748004210120 [Eh]
	 SCS Opposite-Spin Energy  =      -1.8073849349857296 [Eh]
	 SCS Correlation Energy    =      -1.9680597354067415 [Eh]
	 SCS Total Energy          =    -460.6250370912312064 [Eh]
	-----------------------------------------------------------

  Dipole Moment: [D]
     X:    -0.5155      Y:     1.2136      Z:     0.0112     Total:     1.3186

*** Psi4 exiting successfully. Buy a developer a beer!
