                               Psi4 1.4a3.dev225

  ==> Input File <==

--------------------------------------------------------------------------
#psi4
#
memory 32 gb

molecule  {
0 1
  O       -1.8116000     2.3801270     0.1363720
  O       -1.7799440    -2.3994320     0.1189850
  C        0.9489570    -0.0306590    -0.3689570
  C        2.4429910    -0.0568610    -0.5708560
  C        0.2354480    -1.2220220    -0.2373930
  C        0.2798030     1.1938580    -0.2383990
  C        3.1984060    -0.0265600     0.7613490
  C       -1.0921630     1.2139390     0.0079710
  C       -1.1593083    -1.1866165     0.0137694
  C       -1.8132500     0.0254130     0.1385790
  H        2.7180680    -0.9584190    -1.1301260
  H        2.7446220     0.7994920    -1.1857830
  H        0.7258350    -2.1872220    -0.3369480
  H        0.8309290     2.1284970    -0.3452230
  H        2.9508560     0.8787730     1.3230630
  H        4.2811760    -0.0477390     0.6027570
  H        2.9230980    -0.8883860     1.3756490
  H       -2.8837580     0.0741080     0.3259950
  H       -1.1979550     3.1274200     0.0245130
  H       -2.7238770    -2.2320380     0.2881370
units angstrom
no_reorient  #important for SAPT in psi4, default
symmetry c1  #important for SAPT in psi4, default
}

set PROPERTIES_ORIGIN ["COM"]
properties('MP2/aug-cc-pvtz', properties = ['dipole'])
--------------------------------------------------------------------------

    Molecular point group: c1
  Charge       = 0
  Multiplicity = 1
  Basis Set: AUG-CC-PVTZ
    Blend: AUG-CC-PVTZ
  Basis Set: (AUG-CC-PVTZ AUX)
    Blend: AUG-CC-PVTZ-JKFIT

    Orbital Energies [Eh]
    ---------------------

    Doubly Occupied:

       1A    -20.596019     2A    -20.595754     3A    -11.311389
       4A    -11.310134     5A    -11.251279     6A    -11.232035
       7A    -11.223759     8A    -11.222610     9A    -11.219383
      10A    -11.217939    11A     -1.407614    12A     -1.403178
      13A     -1.148329    14A     -1.063897    15A     -0.997934
      16A     -0.988052    17A     -0.875344    18A     -0.837649
      19A     -0.807846    20A     -0.739845    21A     -0.688096
      22A     -0.674012    23A     -0.664594    24A     -0.611697
      25A     -0.602670    26A     -0.596070    27A     -0.588192
      28A     -0.577593    29A     -0.552567    30A     -0.548099
      31A     -0.524774    32A     -0.520927    33A     -0.487661
      34A     -0.481000    35A     -0.453046    36A     -0.327485
      37A     -0.308681

  @DF-RHF Final Energy:  -458.65913462719828

   => Energetics <=

    Nuclear Repulsion Energy =            506.9995087669661871
    One-Electron Energy =               -1630.0029842884268874
    Two-Electron Energy =                 664.3443408942622455
    Total Energy =                       -458.6591346271983411
  Basis Set: (AUG-CC-PVTZ AUX)
    Blend: AUG-CC-PVTZ-RI
    Molecular point group: c1

    Geometry (in Angstrom), charge = 0, multiplicity = 1:

       Center              X                  Y                   Z               Mass
    ------------   -----------------  -----------------  -----------------  -----------------
         O           -1.735509251483     2.385073570225     0.142842868168    15.994914619570
         O           -1.703853251483    -2.394485429775     0.125455868168    15.994914619570
         C            1.025047748517    -0.025712429775    -0.362486131832    12.000000000000
         C            2.519081748517    -0.051914429775    -0.564385131832    12.000000000000
         C            0.311538748517    -1.217075429775    -0.230922131832    12.000000000000
         C            0.355893748517     1.198804570225    -0.231928131832    12.000000000000
         C            3.274496748517    -0.021613429775     0.767819868168    12.000000000000
         C           -1.016072251483     1.218885570225     0.014441868168    12.000000000000
         C           -1.083217551483    -1.181669929775     0.020240268168    12.000000000000
         C           -1.737159251483     0.030359570225     0.145049868168    12.000000000000
         H            2.794158748517    -0.953472429775    -1.123655131832     1.007825032230
         H            2.820712748517     0.804438570225    -1.179312131832     1.007825032230
         H            0.801925748517    -2.182275429775    -0.330477131832     1.007825032230
         H            0.907019748517     2.133443570225    -0.338752131832     1.007825032230
         H            3.026946748517     0.883719570225     1.329533868168     1.007825032230
         H            4.357266748517    -0.042792429775     0.609227868168     1.007825032230
         H            2.999188748517    -0.883439429775     1.382119868168     1.007825032230
         H           -2.807667251483     0.079054570225     0.332465868168     1.007825032230
         H           -1.121864251483     3.132366570225     0.030983868168     1.007825032230
         H           -2.647786251483    -2.227091429775     0.294607868168     1.007825032230

  Basis Set: AUG-CC-PVTZ
    Blend: AUG-CC-PVTZ
  Basis Set: (AUG-CC-PVTZ AUX)
    Blend: AUG-CC-PVTZ-JKFIT
	 Reference Energy          =    -458.6591346271982843 [Eh]
	 Singles Energy            =      -0.0000000000000000 [Eh]
	 Same-Spin Energy          =      -0.4817086801022966 [Eh]
	 Opposite-Spin Energy      =      -1.5054977532895637 [Eh]
	 Correlation Energy        =      -1.9872064333918602 [Eh]
	 Total Energy              =    -460.6463410605901458 [Eh]

	 ================> DF-SCS-MP2 Energies <==================
	-----------------------------------------------------------
	 SCS Same-Spin Scale       =       0.3333333333333333 [-]
	 SCS Opposite-Spin Scale   =       1.2000000000000000 [-]
	 SCS Same-Spin Energy      =      -0.1605695600340989 [Eh]
	 SCS Opposite-Spin Energy  =      -1.8065973039474763 [Eh]
	 SCS Correlation Energy    =      -1.9671668639815751 [Eh]
	 SCS Total Energy          =    -460.6263014911798450 [Eh]
	-----------------------------------------------------------

  Dipole Moment: [D]
     X:     0.4674      Y:     1.1660      Z:    -0.0086     Total:     1.2562

*** Psi4 exiting successfully. Buy a developer a beer!
