                               Psi4 1.3.2 release

  ==> Input File <==

--------------------------------------------------------------------------
#psi4
#
memory 32 gb

molecule  {
0 1
  O        1.7627890     2.3683800    -0.1458810
  O        1.6754140    -2.4069960    -0.1279020
  C       -1.0215720    -0.0077180     0.3641480
  C       -2.5139530    -0.0194410     0.5634370
  C       -0.3230660    -1.2073880     0.2343750
  C       -0.3370590     1.2052280     0.2348720
  C       -3.2735700    -0.0197480    -0.7643280
  C        1.0346870     1.2106680    -0.0181020
  C        1.0480560    -1.1910380    -0.0190010
  C        1.7368580     0.0147850    -0.1457440
  H       -2.7927850    -0.9030380     1.1483340
  H       -2.8082890     0.8538600     1.1573130
  H       -0.8312370    -2.1635460     0.3309200
  H       -0.8789600     2.1456520     0.3351900
  H       -3.0230990     0.8672620    -1.3527740
  H       -4.3574070    -0.0294260    -0.6053230
  H       -3.0076490    -0.8981260    -1.3586750
  H        2.6106154     0.0408872    -0.3012271
  H        1.1590650     3.1223080    -0.0299710
  H        2.6215300    -2.2543830    -0.2976190
units angstrom
no_reorient  #important for SAPT in psi4, default
symmetry c1  #important for SAPT in psi4, default
}

set PROPERTIES_ORIGIN ["COM"]
properties('MP2/aug-cc-pvtz', properties = ['dipole'])
--------------------------------------------------------------------------

    Molecular point group: c1
  Charge       = 0
  Multiplicity = 1
  Basis Set: AUG-CC-PVTZ
    Blend: AUG-CC-PVTZ
  Basis Set: (AUG-CC-PVTZ AUX)
    Blend: AUG-CC-PVTZ-JKFIT

    Orbital Energies [Eh]
    ---------------------

    Doubly Occupied:

       1A    -20.595672     2A    -20.594020     3A    -11.309027
       4A    -11.307521     5A    -11.250980     6A    -11.231752
       7A    -11.221513     8A    -11.219473     9A    -11.214747
      10A    -11.200124    11A     -1.405609    12A     -1.402311
      13A     -1.150545    14A     -1.067925    15A     -1.000581
      16A     -0.995566    17A     -0.883333    18A     -0.836395
      19A     -0.811631    20A     -0.743749    21A     -0.708602
      22A     -0.680965    23A     -0.667557    24A     -0.612820
      25A     -0.604669    26A     -0.599225    27A     -0.590432
      28A     -0.576670    29A     -0.557182    30A     -0.550907
      31A     -0.524174    32A     -0.520900    33A     -0.487481
      34A     -0.483397    35A     -0.453379    36A     -0.325586
      37A     -0.310481

  @DF-RHF Final Energy:  -458.62562725432917

   => Energetics <=

    Nuclear Repulsion Energy =            508.7213668717249675
    One-Electron Energy =               -1633.3001851830376836
    Two-Electron Energy =                 665.9531910569835418
    Total Energy =                       -458.6256272543291743
  Basis Set: (AUG-CC-PVTZ AUX)
    Blend: AUG-CC-PVTZ-RI
    Molecular point group: c1

    Geometry (in Angstrom), charge = 0, multiplicity = 1:

       Center              X                  Y                   Z               Mass
    ------------   -----------------  -----------------  -----------------  -----------------
         O            1.764225735576     2.368422866896    -0.146136641443    15.994914619570
         O            1.676850735576    -2.406953133104    -0.128157641443    15.994914619570
         C           -1.020135264424    -0.007675133104     0.363892358557    12.000000000000
         C           -2.512516264424    -0.019398133104     0.563181358557    12.000000000000
         C           -0.321629264424    -1.207345133104     0.234119358557    12.000000000000
         C           -0.335622264424     1.205270866896     0.234616358557    12.000000000000
         C           -3.272133264424    -0.019705133104    -0.764583641443    12.000000000000
         C            1.036123735576     1.210710866896    -0.018357641443    12.000000000000
         C            1.049492735576    -1.190995133104    -0.019256641443    12.000000000000
         C            1.738294735576     0.014827866896    -0.145999641443    12.000000000000
         H           -2.791348264424    -0.902995133104     1.148078358557     1.007825032230
         H           -2.806852264424     0.853902866896     1.157057358557     1.007825032230
         H           -0.829800264424    -2.163503133104     0.330664358557     1.007825032230
         H           -0.877523264424     2.145694866896     0.334934358557     1.007825032230
         H           -3.021662264424     0.867304866896    -1.353029641443     1.007825032230
         H           -4.355970264424    -0.029383133104    -0.605578641443     1.007825032230
         H           -3.006212264424    -0.898083133104    -1.358930641443     1.007825032230
         H            2.612052135576     0.040930066896    -0.301482741443     1.007825032230
         H            1.160501735576     3.122350866896    -0.030226641443     1.007825032230
         H            2.622966735576    -2.254340133104    -0.297874641443     1.007825032230

  Basis Set: AUG-CC-PVTZ
    Blend: AUG-CC-PVTZ
  Basis Set: (AUG-CC-PVTZ AUX)
    Blend: AUG-CC-PVTZ-JKFIT
	 Reference Energy          =    -458.6256272543291743 [Eh]
	 Singles Energy            =      -0.0000000000000000 [Eh]
	 Same-Spin Energy          =      -0.4814481942580638 [Eh]
	 Opposite-Spin Energy      =      -1.5047121961389149 [Eh]
	 Correlation Energy        =      -1.9861603903969787 [Eh]
	 Total Energy              =    -460.6117876447261779 [Eh]

	 ================> DF-SCS-MP2 Energies <==================
	-----------------------------------------------------------
	 SCS Same-Spin Scale       =       0.3333333333333333 [-]
	 SCS Opposite-Spin Scale   =       1.2000000000000000 [-]
	 SCS Same-Spin Energy      =      -0.1604827314193546 [Eh]
	 SCS Opposite-Spin Energy  =      -1.8056546353666978 [Eh]
	 SCS Correlation Energy    =      -1.9661373667860524 [Eh]
	 SCS Total Energy          =    -460.5917646211152032 [Eh]
	-----------------------------------------------------------

  Dipole Moment: [D]
     X:    -0.4769      Y:     1.1971      Z:     0.0063     Total:     1.2886

*** Psi4 exiting successfully. Buy a developer a beer!
