                               Psi4 1.3.2 release

  ==> Input File <==

--------------------------------------------------------------------------
#psi4
#
memory 32 gb

molecule  {
0 1
  O        1.7627890     2.3683800    -0.1458810
  O        1.6754140    -2.4069960    -0.1279020
  C       -1.0111339    -0.0137508     0.3622383
  C       -2.5139530    -0.0194410     0.5634370
  C       -0.3230660    -1.2073880     0.2343750
  C       -0.3370590     1.2052280     0.2348720
  C       -3.2735700    -0.0197480    -0.7643280
  C        1.0346869     1.1984954    -0.0180714
  C        1.0480560    -1.1910380    -0.0190010
  C        1.7368580     0.0147850    -0.1457440
  H       -2.7927850    -0.9030380     1.1483340
  H       -2.8082890     0.8538600     1.1573130
  H       -0.8312370    -2.1635460     0.3309200
  H       -0.8789600     2.1456520     0.3351900
  H       -3.0230990     0.8672620    -1.3527740
  H       -4.3574070    -0.0294260    -0.6053230
  H       -3.0076490    -0.8981260    -1.3586750
  H        2.8074370     0.0467670    -0.3362510
  H        1.1590650     3.1223080    -0.0299710
  H        2.6215300    -2.2543830    -0.2976190
units angstrom
no_reorient  #important for SAPT in psi4, default
symmetry c1  #important for SAPT in psi4, default
}

set PROPERTIES_ORIGIN ["COM"]
properties('MP2/aug-cc-pvtz', properties = ['dipole'])
--------------------------------------------------------------------------

    Molecular point group: c1
  Charge       = 0
  Multiplicity = 1
  Basis Set: AUG-CC-PVTZ
    Blend: AUG-CC-PVTZ
  Basis Set: (AUG-CC-PVTZ AUX)
    Blend: AUG-CC-PVTZ-JKFIT

    Orbital Energies [Eh]
    ---------------------

    Doubly Occupied:

       1A    -20.594057     2A    -20.593307     3A    -11.309648
       4A    -11.309445     5A    -11.250606     6A    -11.232433
       7A    -11.223775     8A    -11.222757     9A    -11.219550
      10A    -11.215608    11A     -1.403680    12A     -1.398597
      13A     -1.152440    14A     -1.063897    15A     -1.002451
      16A     -0.989259    17A     -0.875731    18A     -0.836789
      19A     -0.808174    20A     -0.738241    21A     -0.688636
      22A     -0.674339    23A     -0.666366    24A     -0.610362
      25A     -0.601477    26A     -0.594973    27A     -0.587028
      28A     -0.574879    29A     -0.553662    30A     -0.549568
      31A     -0.525949    32A     -0.521195    33A     -0.488323
      34A     -0.479641    35A     -0.455510    36A     -0.328116
      37A     -0.312129

  @DF-RHF Final Energy:  -458.66007132545911

   => Energetics <=

    Nuclear Repulsion Energy =            507.6786672942372434
    One-Electron Energy =               -1631.3722803896348523
    Two-Electron Energy =                 665.0335417699385516
    Total Energy =                       -458.6600713254591710
  Basis Set: (AUG-CC-PVTZ AUX)
    Blend: AUG-CC-PVTZ-RI
    Molecular point group: c1

    Geometry (in Angstrom), charge = 0, multiplicity = 1:

       Center              X                  Y                   Z               Mass
    ------------   -----------------  -----------------  -----------------  -----------------
         O            1.761881835839     2.369962245085    -0.145717665795    15.994914619570
         O            1.674506835839    -2.405413754915    -0.127738665795    15.994914619570
         C           -1.012041064161    -0.012168554915     0.362401634205    12.000000000000
         C           -2.514860164161    -0.017858754915     0.563600334205    12.000000000000
         C           -0.323973164161    -1.205805754915     0.234538334205    12.000000000000
         C           -0.337966164161     1.206810245085     0.235035334205    12.000000000000
         C           -3.274477164161    -0.018165754915    -0.764164665795    12.000000000000
         C            1.033779735839     1.200077645085    -0.017908065795    12.000000000000
         C            1.047148835839    -1.189455754915    -0.018837665795    12.000000000000
         C            1.735950835839     0.016367245085    -0.145580665795    12.000000000000
         H           -2.793692164161    -0.901455754915     1.148497334205     1.007825032230
         H           -2.809196164161     0.855442245085     1.157476334205     1.007825032230
         H           -0.832144164161    -2.161963754915     0.331083334205     1.007825032230
         H           -0.879867164161     2.147234245085     0.335353334205     1.007825032230
         H           -3.024006164161     0.868844245085    -1.352610665795     1.007825032230
         H           -4.358314164161    -0.027843754915    -0.605159665795     1.007825032230
         H           -3.008556164161    -0.896543754915    -1.358511665795     1.007825032230
         H            2.806529835839     0.048349245085    -0.336087665795     1.007825032230
         H            1.158157835839     3.123890245085    -0.029807665795     1.007825032230
         H            2.620622835839    -2.252800754915    -0.297455665795     1.007825032230

  Basis Set: AUG-CC-PVTZ
    Blend: AUG-CC-PVTZ
  Basis Set: (AUG-CC-PVTZ AUX)
    Blend: AUG-CC-PVTZ-JKFIT
	 Reference Energy          =    -458.6600713254591142 [Eh]
	 Singles Energy            =      -0.0000000000000000 [Eh]
	 Same-Spin Energy          =      -0.4816168228217654 [Eh]
	 Opposite-Spin Energy      =      -1.5051048158362859 [Eh]
	 Correlation Energy        =      -1.9867216386580513 [Eh]
	 Total Energy              =    -460.6467929641171395 [Eh]

	 ================> DF-SCS-MP2 Energies <==================
	-----------------------------------------------------------
	 SCS Same-Spin Scale       =       0.3333333333333333 [-]
	 SCS Opposite-Spin Scale   =       1.2000000000000000 [-]
	 SCS Same-Spin Energy      =      -0.1605389409405885 [Eh]
	 SCS Opposite-Spin Energy  =      -1.8061257790035430 [Eh]
	 SCS Correlation Energy    =      -1.9666647199441314 [Eh]
	 SCS Total Energy          =    -460.6267360454032200 [Eh]
	-----------------------------------------------------------

  Dipole Moment: [D]
     X:    -0.5107      Y:     1.1451      Z:     0.0133     Total:     1.2539

*** Psi4 exiting successfully. Buy a developer a beer!
