                               Psi4 1.3.2 release

  ==> Input File <==

--------------------------------------------------------------------------
#psi4
#
memory 32 gb

molecule  {
0 1
  O        1.7627890     2.3683800    -0.1458810
  O        1.6754140    -2.4069960    -0.1279020
  C       -0.9581893    -0.0425132     0.3525471
  C       -2.5139530    -0.0194410     0.5634370
  C       -0.3230660    -1.2073880     0.2343750
  C       -0.3370590     1.2052280     0.2348720
  C       -3.2735700    -0.0197480    -0.7643280
  C        1.0331198     1.1376585    -0.0176296
  C        1.0480560    -1.1910380    -0.0190010
  C        1.7368580     0.0147850    -0.1457440
  H       -2.7927850    -0.9030380     1.1483340
  H       -2.8082890     0.8538600     1.1573130
  H       -0.8312370    -2.1635460     0.3309200
  H       -0.8789600     2.1456520     0.3351900
  H       -3.0230990     0.8672620    -1.3527740
  H       -4.3574070    -0.0294260    -0.6053230
  H       -3.0076490    -0.8981260    -1.3586750
  H        2.8074370     0.0467670    -0.3362510
  H        1.1590650     3.1223080    -0.0299710
  H        2.6215300    -2.2543830    -0.2976190
units angstrom
no_reorient  #important for SAPT in psi4, default
symmetry c1  #important for SAPT in psi4, default
}

set PROPERTIES_ORIGIN ["COM"]
properties('MP2/aug-cc-pvtz', properties = ['dipole'])
--------------------------------------------------------------------------

    Molecular point group: c1
  Charge       = 0
  Multiplicity = 1
  Basis Set: AUG-CC-PVTZ
    Blend: AUG-CC-PVTZ
  Basis Set: (AUG-CC-PVTZ AUX)
    Blend: AUG-CC-PVTZ-JKFIT

    Orbital Energies [Eh]
    ---------------------

    Doubly Occupied:

       1A    -20.597890     2A    -20.581301     3A    -11.314226
       4A    -11.304792     5A    -11.247050     6A    -11.233857
       7A    -11.223342     8A    -11.222637     9A    -11.218714
      10A    -11.213741    11A     -1.407270    12A     -1.371770
      13A     -1.164295    14A     -1.064708    15A     -1.009746
      16A     -0.993496    17A     -0.872056    18A     -0.839163
      19A     -0.807062    20A     -0.731728    21A     -0.694617
      22A     -0.669177    23A     -0.666771    24A     -0.606350
      25A     -0.598236    26A     -0.595787    27A     -0.586229
      28A     -0.564835    29A     -0.559852    30A     -0.549131
      31A     -0.535841    32A     -0.519175    33A     -0.489604
      34A     -0.463090    35A     -0.461524    36A     -0.342127
      37A     -0.313428

  @DF-RHF Final Energy:  -458.64675354569266

   => Energetics <=

    Nuclear Repulsion Energy =            508.6374818876326458
    One-Electron Energy =               -1633.2992352652577210
    Two-Electron Energy =                 666.0149998319324141
    Total Energy =                       -458.6467535456926043
  Basis Set: (AUG-CC-PVTZ AUX)
    Blend: AUG-CC-PVTZ-RI
    Molecular point group: c1

    Geometry (in Angstrom), charge = 0, multiplicity = 1:

       Center              X                  Y                   Z               Mass
    ------------   -----------------  -----------------  -----------------  -----------------
         O            1.757416430063     2.377749646803    -0.144913766731    15.994914619570
         O            1.670041430063    -2.397626353197    -0.126934766731    15.994914619570
         C           -0.963561869937    -0.033143553197     0.353514333269    12.000000000000
         C           -2.519325569937    -0.010071353197     0.564404233269    12.000000000000
         C           -0.328438569937    -1.198018353197     0.235342233269    12.000000000000
         C           -0.342431569937     1.214597646803     0.235839233269    12.000000000000
         C           -3.278942569937    -0.010378353197    -0.763360766731    12.000000000000
         C            1.027747230063     1.147028146803    -0.016662366731    12.000000000000
         C            1.042683430063    -1.181668353197    -0.018033766731    12.000000000000
         C            1.731485430063     0.024154646803    -0.144776766731    12.000000000000
         H           -2.798157569937    -0.893668353197     1.149301233269     1.007825032230
         H           -2.813661569937     0.863229646803     1.158280233269     1.007825032230
         H           -0.836609569937    -2.154176353197     0.331887233269     1.007825032230
         H           -0.884332569937     2.155021646803     0.336157233269     1.007825032230
         H           -3.028471569937     0.876631646803    -1.351806766731     1.007825032230
         H           -4.362779569937    -0.020056353197    -0.604355766731     1.007825032230
         H           -3.013021569937    -0.888756353197    -1.357707766731     1.007825032230
         H            2.802064430063     0.056136646803    -0.335283766731     1.007825032230
         H            1.153692430063     3.131677646803    -0.029003766731     1.007825032230
         H            2.616157430063    -2.245013353197    -0.296651766731     1.007825032230

  Basis Set: AUG-CC-PVTZ
    Blend: AUG-CC-PVTZ
  Basis Set: (AUG-CC-PVTZ AUX)
    Blend: AUG-CC-PVTZ-JKFIT
	 Reference Energy          =    -458.6467535456926612 [Eh]
	 Singles Energy            =      -0.0000000000000000 [Eh]
	 Same-Spin Energy          =      -0.4814904553308342 [Eh]
	 Opposite-Spin Energy      =      -1.5054675305594216 [Eh]
	 Correlation Energy        =      -1.9869579858902560 [Eh]
	 Total Energy              =    -460.6337115315828896 [Eh]

	 ================> DF-SCS-MP2 Energies <==================
	-----------------------------------------------------------
	 SCS Same-Spin Scale       =       0.3333333333333333 [-]
	 SCS Opposite-Spin Scale   =       1.2000000000000000 [-]
	 SCS Same-Spin Energy      =      -0.1604968184436114 [Eh]
	 SCS Opposite-Spin Energy  =      -1.8065610366713059 [Eh]
	 SCS Correlation Energy    =      -1.9670578551149172 [Eh]
	 SCS Total Energy          =    -460.6138114008076059 [Eh]
	-----------------------------------------------------------

  Dipole Moment: [D]
     X:    -0.5647      Y:     0.7579      Z:     0.0308     Total:     0.9457

*** Psi4 exiting successfully. Buy a developer a beer!
