                               Psi4 1.3.2 release

  ==> Input File <==

--------------------------------------------------------------------------
#psi4
#
memory 32 gb

molecule  {
0 1
  O        1.7627890     2.3683800    -0.1458810
  O        1.6754140    -2.4069960    -0.1279020
  C       -1.0296073     0.0593480     0.3235103
  C       -2.5139530    -0.0194410     0.5634370
  C       -0.3230660    -1.2073880     0.2343750
  C       -0.3370590     1.2052280     0.2348720
  C       -3.2735700    -0.0197480    -0.7643280
  C        1.0346870     1.2106680    -0.0181020
  C        1.0480560    -1.1910380    -0.0190010
  C        1.7368580     0.0147850    -0.1457440
  H       -2.8475094    -0.8861800     1.1448999
  H       -2.8082890     0.8538600     1.1573130
  H       -0.8312370    -2.1635460     0.3309200
  H       -0.8789600     2.1456520     0.3351900
  H       -3.0230990     0.8672620    -1.3527740
  H       -4.3574070    -0.0294260    -0.6053230
  H       -3.0076490    -0.8981260    -1.3586750
  H        2.8074370     0.0467670    -0.3362510
  H        1.1590650     3.1223080    -0.0299710
  H        2.6215300    -2.2543830    -0.2976190
units angstrom
no_reorient  #important for SAPT in psi4, default
symmetry c1  #important for SAPT in psi4, default
}

set PROPERTIES_ORIGIN ["COM"]
properties('MP2/aug-cc-pvtz', properties = ['dipole'])
--------------------------------------------------------------------------

    Molecular point group: c1
  Charge       = 0
  Multiplicity = 1
  Basis Set: AUG-CC-PVTZ
    Blend: AUG-CC-PVTZ
  Basis Set: (AUG-CC-PVTZ AUX)
    Blend: AUG-CC-PVTZ-JKFIT

    Orbital Energies [Eh]
    ---------------------

    Doubly Occupied:

       1A    -20.597602     2A    -20.591332     3A    -11.312587
       4A    -11.305959     5A    -11.251946     6A    -11.232486
       7A    -11.224174     8A    -11.220916     9A    -11.218915
      10A    -11.218081    11A     -1.406826    12A     -1.400292
      13A     -1.151705    14A     -1.064602    15A     -1.003865
      16A     -0.986666    17A     -0.874732    18A     -0.836158
      19A     -0.806093    20A     -0.746199    21A     -0.687356
      22A     -0.673718    23A     -0.665146    24A     -0.617790
      25A     -0.602227    26A     -0.594514    27A     -0.586723
      28A     -0.576050    29A     -0.551637    30A     -0.548980
      31A     -0.521592    32A     -0.521323    33A     -0.493087
      34A     -0.474795    35A     -0.454470    36A     -0.330767
      37A     -0.306630

  @DF-RHF Final Energy:  -458.65295851862118

   => Energetics <=

    Nuclear Repulsion Energy =            507.5373713377667286
    One-Electron Energy =               -1631.0647786933932366
    Two-Electron Energy =                 664.8744488370053887
    Total Energy =                       -458.6529585186211762
  Basis Set: (AUG-CC-PVTZ AUX)
    Blend: AUG-CC-PVTZ-RI
    Molecular point group: c1

    Geometry (in Angstrom), charge = 0, multiplicity = 1:

       Center              X                  Y                   Z               Mass
    ------------   -----------------  -----------------  -----------------  -----------------
         O            1.763886877273     2.362427942315    -0.142323947468    15.994914619570
         O            1.676511877273    -2.412948057685    -0.124344947468    15.994914619570
         C           -1.028509422727     0.053395942315     0.327067352532    12.000000000000
         C           -2.512855122727    -0.025393057685     0.566994052532    12.000000000000
         C           -0.321968122727    -1.213340057685     0.237932052532    12.000000000000
         C           -0.335961122727     1.199275942315     0.238429052532    12.000000000000
         C           -3.272472122727    -0.025700057685    -0.760770947468    12.000000000000
         C            1.035784877273     1.204715942315    -0.014544947468    12.000000000000
         C            1.049153877273    -1.196990057685    -0.015443947468    12.000000000000
         C            1.737955877273     0.008832942315    -0.142186947468    12.000000000000
         H           -2.846411522727    -0.892132057685     1.148456952532     1.007825032230
         H           -2.807191122727     0.847907942315     1.160870052532     1.007825032230
         H           -0.830139122727    -2.169498057685     0.334477052532     1.007825032230
         H           -0.877862122727     2.139699942315     0.338747052532     1.007825032230
         H           -3.022001122727     0.861309942315    -1.349216947468     1.007825032230
         H           -4.356309122727    -0.035378057685    -0.601765947468     1.007825032230
         H           -3.006551122727    -0.904078057685    -1.355117947468     1.007825032230
         H            2.808534877273     0.040814942315    -0.332693947468     1.007825032230
         H            1.160162877273     3.116355942315    -0.026413947468     1.007825032230
         H            2.622627877273    -2.260335057685    -0.294061947468     1.007825032230

  Basis Set: AUG-CC-PVTZ
    Blend: AUG-CC-PVTZ
  Basis Set: (AUG-CC-PVTZ AUX)
    Blend: AUG-CC-PVTZ-JKFIT
	 Reference Energy          =    -458.6529585186211762 [Eh]
	 Singles Energy            =      -0.0000000000000000 [Eh]
	 Same-Spin Energy          =      -0.4818272474640922 [Eh]
	 Opposite-Spin Energy      =      -1.5057054746206908 [Eh]
	 Correlation Energy        =      -1.9875327220847829 [Eh]
	 Total Energy              =    -460.6404912407059555 [Eh]

	 ================> DF-SCS-MP2 Energies <==================
	-----------------------------------------------------------
	 SCS Same-Spin Scale       =       0.3333333333333333 [-]
	 SCS Opposite-Spin Scale   =       1.2000000000000000 [-]
	 SCS Same-Spin Energy      =      -0.1606090824880307 [Eh]
	 SCS Opposite-Spin Energy  =      -1.8068465695448288 [Eh]
	 SCS Correlation Energy    =      -1.9674556520328594 [Eh]
	 SCS Total Energy          =    -460.6204141706540440 [Eh]
	-----------------------------------------------------------

  Dipole Moment: [D]
     X:    -0.5169      Y:     1.3008      Z:     0.0450     Total:     1.4004

*** Psi4 exiting successfully. Buy a developer a beer!
