                               Psi4 1.3.2 release

  ==> Input File <==

--------------------------------------------------------------------------
#psi4
#
memory 32 gb

molecule  {
0 1
  O        1.7627890     2.3683800    -0.1458810
  O        1.6754140    -2.4069960    -0.1279020
  C       -1.0008908     0.0044985     0.3602500
  C       -2.5139530    -0.0194410     0.5634370
  C       -0.3230660    -1.2073880     0.2343750
  C       -0.3370590     1.2052280     0.2348720
  C       -3.2735700    -0.0197480    -0.7643280
  C        1.0346870     1.2106680    -0.0181020
  C        1.0480560    -1.1910380    -0.0190010
  C        1.7368580     0.0147850    -0.1457440
  H       -2.7927850    -0.9030380     1.1483340
  H       -2.8082890     0.8538600     1.1573130
  H       -0.8147571    -2.1724278     0.3278356
  H       -0.8789600     2.1456520     0.3351900
  H       -3.0230990     0.8672620    -1.3527740
  H       -4.3574070    -0.0294260    -0.6053230
  H       -3.0076490    -0.8981260    -1.3586750
  H        2.8074370     0.0467670    -0.3362510
  H        1.1590650     3.1223080    -0.0299710
  H        2.6215300    -2.2543830    -0.2976190
units angstrom
no_reorient  #important for SAPT in psi4, default
symmetry c1  #important for SAPT in psi4, default
}

set PROPERTIES_ORIGIN ["COM"]
properties('MP2/aug-cc-pvtz', properties = ['dipole'])
--------------------------------------------------------------------------

    Molecular point group: c1
  Charge       = 0
  Multiplicity = 1
  Basis Set: AUG-CC-PVTZ
    Blend: AUG-CC-PVTZ
  Basis Set: (AUG-CC-PVTZ AUX)
    Blend: AUG-CC-PVTZ-JKFIT

    Orbital Energies [Eh]
    ---------------------

    Doubly Occupied:

       1A    -20.596156     2A    -20.593153     3A    -11.310984
       4A    -11.308055     5A    -11.249962     6A    -11.232500
       7A    -11.223771     8A    -11.221486     9A    -11.219022
      10A    -11.215350    11A     -1.405775    12A     -1.401827
      13A     -1.152078    14A     -1.061285    15A     -1.002820
      16A     -0.988942    17A     -0.874115    18A     -0.837048
      19A     -0.808285    20A     -0.741106    21A     -0.688074
      22A     -0.674937    23A     -0.666132    24A     -0.610654
      25A     -0.602393    26A     -0.594124    27A     -0.587416
      28A     -0.576541    29A     -0.554420    30A     -0.548648
      31A     -0.525041    32A     -0.521024    33A     -0.488029
      34A     -0.477328    35A     -0.455807    36A     -0.327742
      37A     -0.311410

  @DF-RHF Final Energy:  -458.65995359877104

   => Energetics <=

    Nuclear Repulsion Energy =            507.6887080446677487
    One-Electron Energy =               -1631.3904453492134508
    Two-Electron Energy =                 665.0417837057747192
    Total Energy =                       -458.6599535987710397
  Basis Set: (AUG-CC-PVTZ AUX)
    Blend: AUG-CC-PVTZ-RI
    Molecular point group: c1

    Geometry (in Angstrom), charge = 0, multiplicity = 1:

       Center              X                  Y                   Z               Mass
    ------------   -----------------  -----------------  -----------------  -----------------
         O            1.760871267312     2.367382999392    -0.145519681325    15.994914619570
         O            1.673496267312    -2.407993000608    -0.127540681325    15.994914619570
         C           -1.002808532688     0.003501499392     0.360611318675    12.000000000000
         C           -2.515870732688    -0.020438000608     0.563798318675    12.000000000000
         C           -0.324983732688    -1.208385000608     0.234736318675    12.000000000000
         C           -0.338976732688     1.204230999392     0.235233318675    12.000000000000
         C           -3.275487732688    -0.020745000608    -0.763966681325    12.000000000000
         C            1.032769267312     1.209670999392    -0.017740681325    12.000000000000
         C            1.046138267312    -1.192035000608    -0.018639681325    12.000000000000
         C            1.734940267312     0.013787999392    -0.145382681325    12.000000000000
         H           -2.794702732688    -0.904035000608     1.148695318675     1.007825032230
         H           -2.810206732688     0.852862999392     1.157674318675     1.007825032230
         H           -0.816674832688    -2.173424800608     0.328196918675     1.007825032230
         H           -0.880877732688     2.144654999392     0.335551318675     1.007825032230
         H           -3.025016732688     0.866264999392    -1.352412681325     1.007825032230
         H           -4.359324732688    -0.030423000608    -0.604961681325     1.007825032230
         H           -3.009566732688    -0.899123000608    -1.358313681325     1.007825032230
         H            2.805519267312     0.045769999392    -0.335889681325     1.007825032230
         H            1.157147267312     3.121310999392    -0.029609681325     1.007825032230
         H            2.619612267312    -2.255380000608    -0.297257681325     1.007825032230

  Basis Set: AUG-CC-PVTZ
    Blend: AUG-CC-PVTZ
  Basis Set: (AUG-CC-PVTZ AUX)
    Blend: AUG-CC-PVTZ-JKFIT
	 Reference Energy          =    -458.6599535987710397 [Eh]
	 Singles Energy            =      -0.0000000000000000 [Eh]
	 Same-Spin Energy          =      -0.4815534394303480 [Eh]
	 Opposite-Spin Energy      =      -1.5049343200785934 [Eh]
	 Correlation Energy        =      -1.9864877595089414 [Eh]
	 Total Energy              =    -460.6464413582799580 [Eh]

	 ================> DF-SCS-MP2 Energies <==================
	-----------------------------------------------------------
	 SCS Same-Spin Scale       =       0.3333333333333333 [-]
	 SCS Opposite-Spin Scale   =       1.2000000000000000 [-]
	 SCS Same-Spin Energy      =      -0.1605178131434493 [Eh]
	 SCS Opposite-Spin Energy  =      -1.8059211840943119 [Eh]
	 SCS Correlation Energy    =      -1.9664389972377612 [Eh]
	 SCS Total Energy          =    -460.6263925960088272 [Eh]
	-----------------------------------------------------------

  Dipole Moment: [D]
     X:    -0.4648      Y:     1.2336      Z:     0.0091     Total:     1.3183

*** Psi4 exiting successfully. Buy a developer a beer!
