                               Psi4 1.3.2 release

  ==> Input File <==

--------------------------------------------------------------------------
#psi4
#
memory 32 gb

molecule  {
0 1
  O        1.7627890     2.3683800    -0.1458810
  O        1.6754140    -2.4069960    -0.1279020
  C       -1.0215720    -0.0077180     0.3641480
  C       -2.5139530    -0.0194410     0.5634370
  C       -0.3230660    -1.2073880     0.2343750
  C       -0.3370590     1.2052280     0.2348720
  C       -3.2735700    -0.0197480    -0.7643280
  C        1.0346870     1.2106680    -0.0181020
  C        1.0480560    -1.1910380    -0.0190010
  C        1.7368580     0.0147850    -0.1457440
  H       -2.7927850    -0.9030380     1.1483340
  H       -2.8082890     0.8538600     1.1573130
  H       -0.8312370    -2.1635460     0.3309200
  H       -0.8789600     2.1456520     0.3351900
  H       -3.0230990     0.8672620    -1.3527740
  H       -4.3574070    -0.0294260    -0.6053230
  H       -3.0076490    -0.8981260    -1.3586750
  H        3.0042586     0.0526468    -0.3712749
  H        1.1590650     3.1223080    -0.0299710
  H        2.6215300    -2.2543830    -0.2976190
units angstrom
no_reorient  #important for SAPT in psi4, default
symmetry c1  #important for SAPT in psi4, default
}

set PROPERTIES_ORIGIN ["COM"]
properties('MP2/aug-cc-pvtz', properties = ['dipole'])
--------------------------------------------------------------------------

    Molecular point group: c1
  Charge       = 0
  Multiplicity = 1
  Basis Set: AUG-CC-PVTZ
    Blend: AUG-CC-PVTZ
  Basis Set: (AUG-CC-PVTZ AUX)
    Blend: AUG-CC-PVTZ-JKFIT

    Orbital Energies [Eh]
    ---------------------

    Doubly Occupied:

       1A    -20.596045     2A    -20.592798     3A    -11.313037
       4A    -11.311111     5A    -11.252411     6A    -11.245240
       7A    -11.232842     8A    -11.224482     9A    -11.220301
      10A    -11.217666    11A     -1.405559    12A     -1.401588
      13A     -1.151558    14A     -1.063258    15A     -1.002887
      16A     -0.984882    17A     -0.873831    18A     -0.837736
      19A     -0.806879    20A     -0.739089    21A     -0.685641
      22A     -0.670496    23A     -0.656710    24A     -0.611932
      25A     -0.602410    26A     -0.593867    27A     -0.580435
      28A     -0.576468    29A     -0.552666    30A     -0.537743
      31A     -0.523942    32A     -0.516616    33A     -0.488420
      34A     -0.480263    35A     -0.455062    36A     -0.327336
      37A     -0.312668

  @DF-RHF Final Energy:  -458.63812348276150

   => Energetics <=

    Nuclear Repulsion Energy =            506.5285603203640221
    One-Electron Energy =               -1629.0416192644490820
    Two-Electron Energy =                 663.8749354613235028
    Total Energy =                       -458.6381234827615572
  Basis Set: (AUG-CC-PVTZ AUX)
    Blend: AUG-CC-PVTZ-RI
    Molecular point group: c1

    Geometry (in Angstrom), charge = 0, multiplicity = 1:

       Center              X                  Y                   Z               Mass
    ------------   -----------------  -----------------  -----------------  -----------------
         O            1.761352345347     2.368337027944    -0.145625329006    15.994914619570
         O            1.673977345347    -2.407038972056    -0.127646329006    15.994914619570
         C           -1.023008654653    -0.007760972056     0.364403670994    12.000000000000
         C           -2.515389654653    -0.019483972056     0.563692670994    12.000000000000
         C           -0.324502654653    -1.207430972056     0.234630670994    12.000000000000
         C           -0.338495654653     1.205185027944     0.235127670994    12.000000000000
         C           -3.275006654653    -0.019790972056    -0.764072329006    12.000000000000
         C            1.033250345347     1.210625027944    -0.017846329006    12.000000000000
         C            1.046619345347    -1.191080972056    -0.018745329006    12.000000000000
         C            1.735421345347     0.014742027944    -0.145488329006    12.000000000000
         H           -2.794221654653    -0.903080972056     1.148589670994     1.007825032230
         H           -2.809725654653     0.853817027944     1.157568670994     1.007825032230
         H           -0.832673654653    -2.163588972056     0.331175670994     1.007825032230
         H           -0.880396654653     2.145609027944     0.335445670994     1.007825032230
         H           -3.024535654653     0.867219027944    -1.352518329006     1.007825032230
         H           -4.358843654653    -0.029468972056    -0.605067329006     1.007825032230
         H           -3.009085654653    -0.898168972056    -1.358419329006     1.007825032230
         H            3.002821945347     0.052603827944    -0.371019229006     1.007825032230
         H            1.157628345347     3.122265027944    -0.029715329006     1.007825032230
         H            2.620093345347    -2.254425972056    -0.297363329006     1.007825032230

  Basis Set: AUG-CC-PVTZ
    Blend: AUG-CC-PVTZ
  Basis Set: (AUG-CC-PVTZ AUX)
    Blend: AUG-CC-PVTZ-JKFIT
	 Reference Energy          =    -458.6381234827615003 [Eh]
	 Singles Energy            =      -0.0000000000000000 [Eh]
	 Same-Spin Energy          =      -0.4822747853829062 [Eh]
	 Opposite-Spin Energy      =      -1.5072001299917215 [Eh]
	 Correlation Energy        =      -1.9894749153746276 [Eh]
	 Total Energy              =    -460.6275983981361151 [Eh]

	 ================> DF-SCS-MP2 Energies <==================
	-----------------------------------------------------------
	 SCS Same-Spin Scale       =       0.3333333333333333 [-]
	 SCS Opposite-Spin Scale   =       1.2000000000000000 [-]
	 SCS Same-Spin Energy      =      -0.1607582617943021 [Eh]
	 SCS Opposite-Spin Energy  =      -1.8086401559900658 [Eh]
	 SCS Correlation Energy    =      -1.9693984177843677 [Eh]
	 SCS Total Energy          =    -460.6075219005458621 [Eh]
	-----------------------------------------------------------

  Dipole Moment: [D]
     X:    -0.5635      Y:     1.2478      Z:     0.0196     Total:     1.3693

*** Psi4 exiting successfully. Buy a developer a beer!
