                               Psi4 1.3.2 release

  ==> Input File <==

--------------------------------------------------------------------------
#psi4
#
memory 32 gb

molecule  {
0 1
  O        1.7627890     2.3683800    -0.1458810
  O        1.6754140    -2.4069960    -0.1279020
  C       -1.0111402    -0.0137508     0.3622040
  C       -2.5139530    -0.0194410     0.5634370
  C       -0.3230660    -1.2073880     0.2343750
  C       -0.3370590     1.2052280     0.2348720
  C       -3.2735700    -0.0197480    -0.7643280
  C        1.0346870     1.2106680    -0.0181020
  C        1.0480560    -1.1910380    -0.0190010
  C        1.7368580     0.0147850    -0.1457440
  H       -2.7927850    -0.9030380     1.1483340
  H       -2.8082890     0.8538600     1.1573130
  H       -0.8312370    -2.1635460     0.3309200
  H       -0.8708734     2.1504254     0.3336730
  H       -3.0230990     0.8672620    -1.3527740
  H       -4.3574070    -0.0294260    -0.6053230
  H       -3.0076490    -0.8981260    -1.3586750
  H        2.8074370     0.0467670    -0.3362510
  H        1.1590650     3.1223080    -0.0299710
  H        2.6215300    -2.2543830    -0.2976190
units angstrom
no_reorient  #important for SAPT in psi4, default
symmetry c1  #important for SAPT in psi4, default
}

set PROPERTIES_ORIGIN ["COM"]
properties('MP2/aug-cc-pvtz', properties = ['dipole'])
--------------------------------------------------------------------------

    Molecular point group: c1
  Charge       = 0
  Multiplicity = 1
  Basis Set: AUG-CC-PVTZ
    Blend: AUG-CC-PVTZ
  Basis Set: (AUG-CC-PVTZ AUX)
    Blend: AUG-CC-PVTZ-JKFIT

    Orbital Energies [Eh]
    ---------------------

    Doubly Occupied:

       1A    -20.595626     2A    -20.593579     3A    -11.310226
       4A    -11.309095     5A    -11.250614     6A    -11.232283
       7A    -11.223866     8A    -11.222463     9A    -11.219362
      10A    -11.215254    11A     -1.405406    12A     -1.402064
      13A     -1.151197    14A     -1.062624    15A     -1.002240
      16A     -0.988229    17A     -0.875499    18A     -0.837164
      19A     -0.808556    20A     -0.739280    21A     -0.688341
      22A     -0.675424    23A     -0.665771    24A     -0.610779
      25A     -0.602383    26A     -0.594981    27A     -0.587736
      28A     -0.576563    29A     -0.553823    30A     -0.548671
      31A     -0.524399    32A     -0.521216    33A     -0.488138
      34A     -0.479757    35A     -0.454834    36A     -0.326635
      37A     -0.311740

  @DF-RHF Final Energy:  -458.66034882271674

   => Energetics <=

    Nuclear Repulsion Energy =            507.5959893752139465
    One-Electron Energy =               -1631.2010466411011294
    Two-Electron Energy =                 664.9447084431703843
    Total Energy =                       -458.6603488227167418
  Basis Set: (AUG-CC-PVTZ AUX)
    Blend: AUG-CC-PVTZ-RI
    Molecular point group: c1

    Geometry (in Angstrom), charge = 0, multiplicity = 1:

       Center              X                  Y                   Z               Mass
    ------------   -----------------  -----------------  -----------------  -----------------
         O            1.761823346737     2.368869436722    -0.145700951790    15.994914619570
         O            1.674448346737    -2.406506563278    -0.127721951790    15.994914619570
         C           -1.012105853263    -0.013261363278     0.362384048210    12.000000000000
         C           -2.514918653263    -0.018951563278     0.563617048210    12.000000000000
         C           -0.324031653263    -1.206898563278     0.234555048210    12.000000000000
         C           -0.338024653263     1.205717436722     0.235052048210    12.000000000000
         C           -3.274535653263    -0.019258563278    -0.764147951790    12.000000000000
         C            1.033721346737     1.211157436722    -0.017921951790    12.000000000000
         C            1.047090346737    -1.190548563278    -0.018820951790    12.000000000000
         C            1.735892346737     0.015274436722    -0.145563951790    12.000000000000
         H           -2.793750653263    -0.902548563278     1.148514048210     1.007825032230
         H           -2.809254653263     0.854349436722     1.157493048210     1.007825032230
         H           -0.832202653263    -2.163056563278     0.331100048210     1.007825032230
         H           -0.871839053263     2.150914836722     0.333853048210     1.007825032230
         H           -3.024064653263     0.867751436722    -1.352593951790     1.007825032230
         H           -4.358372653263    -0.028936563278    -0.605142951790     1.007825032230
         H           -3.008614653263    -0.897636563278    -1.358494951790     1.007825032230
         H            2.806471346737     0.047256436722    -0.336070951790     1.007825032230
         H            1.158099346737     3.122797436722    -0.029790951790     1.007825032230
         H            2.620564346737    -2.253893563278    -0.297438951790     1.007825032230

  Basis Set: AUG-CC-PVTZ
    Blend: AUG-CC-PVTZ
  Basis Set: (AUG-CC-PVTZ AUX)
    Blend: AUG-CC-PVTZ-JKFIT
	 Reference Energy          =    -458.6603488227167418 [Eh]
	 Singles Energy            =      -0.0000000000000000 [Eh]
	 Same-Spin Energy          =      -0.4816050055117738 [Eh]
	 Opposite-Spin Energy      =      -1.5050308126057854 [Eh]
	 Correlation Energy        =      -1.9866358181175592 [Eh]
	 Total Energy              =    -460.6469846408343187 [Eh]

	 ================> DF-SCS-MP2 Energies <==================
	-----------------------------------------------------------
	 SCS Same-Spin Scale       =       0.3333333333333333 [-]
	 SCS Opposite-Spin Scale   =       1.2000000000000000 [-]
	 SCS Same-Spin Energy      =      -0.1605350018372579 [Eh]
	 SCS Opposite-Spin Energy  =      -1.8060369751269425 [Eh]
	 SCS Correlation Energy    =      -1.9665719769642005 [Eh]
	 SCS Total Energy          =    -460.6269207996809314 [Eh]
	-----------------------------------------------------------

  Dipole Moment: [D]
     X:    -0.4802      Y:     1.2147      Z:     0.0091     Total:     1.3062

*** Psi4 exiting successfully. Buy a developer a beer!
