                               Psi4 1.3.2 release

  ==> Input File <==

--------------------------------------------------------------------------
#psi4
#
memory 32 gb

molecule  {
0 1
  O        1.7627890     2.3683800    -0.1458810
  O        1.6754140    -2.4069960    -0.1279020
  C       -1.0237968     0.0146500     0.3505359
  C       -2.5139530    -0.0194410     0.5634370
  C       -0.3230660    -1.2073880     0.2343750
  C       -0.3370590     1.2052280     0.2348720
  C       -3.2735700    -0.0197480    -0.7643280
  C        1.0346870     1.2106680    -0.0181020
  C        1.0480560    -1.1910380    -0.0190010
  C        1.7368580     0.0147850    -0.1457440
  H       -2.8111188    -0.8976856     1.1473671
  H       -2.8082890     0.8538600     1.1573130
  H       -0.8312370    -2.1635460     0.3309200
  H       -0.8789600     2.1456520     0.3351900
  H       -3.0230990     0.8672620    -1.3527740
  H       -4.3574070    -0.0294260    -0.6053230
  H       -3.0076490    -0.8981260    -1.3586750
  H        2.8074370     0.0467670    -0.3362510
  H        1.1590650     3.1223080    -0.0299710
  H        2.6215300    -2.2543830    -0.2976190
units angstrom
no_reorient  #important for SAPT in psi4, default
symmetry c1  #important for SAPT in psi4, default
}

set PROPERTIES_ORIGIN ["COM"]
properties('MP2/aug-cc-pvtz', properties = ['dipole'])
--------------------------------------------------------------------------

    Molecular point group: c1
  Charge       = 0
  Multiplicity = 1
  Basis Set: AUG-CC-PVTZ
    Blend: AUG-CC-PVTZ
  Basis Set: (AUG-CC-PVTZ AUX)
    Blend: AUG-CC-PVTZ-JKFIT

    Orbital Energies [Eh]
    ---------------------

    Doubly Occupied:

       1A    -20.596345     2A    -20.592652     3A    -11.311221
       4A    -11.307849     5A    -11.251637     6A    -11.232181
       7A    -11.223982     8A    -11.222164     9A    -11.219448
      10A    -11.216684    11A     -1.405822    12A     -1.401396
      13A     -1.150665    14A     -1.064130    15A     -1.001451
      16A     -0.988287    17A     -0.875971    18A     -0.836308
      19A     -0.807603    20A     -0.742095    21A     -0.687465
      22A     -0.674711    23A     -0.665786    24A     -0.613727
      25A     -0.602238    26A     -0.594957    27A     -0.587204
      28A     -0.576364    29A     -0.552488    30A     -0.549011
      31A     -0.522856    32A     -0.521265    33A     -0.488367
      34A     -0.482146    35A     -0.454101    36A     -0.326854
      37A     -0.310301

  @DF-RHF Final Energy:  -458.65939504270210

   => Energetics <=

    Nuclear Repulsion Energy =            507.5186120846565814
    One-Electron Energy =               -1631.0405509844724747
    Two-Electron Energy =                 664.8625438571137920
    Total Energy =                       -458.6593950427021582
  Basis Set: (AUG-CC-PVTZ AUX)
    Blend: AUG-CC-PVTZ-RI
    Molecular point group: c1

    Geometry (in Angstrom), charge = 0, multiplicity = 1:

       Center              X                  Y                   Z               Mass
    ------------   -----------------  -----------------  -----------------  -----------------
         O            1.763116233124     2.366396793286    -0.144690850137    15.994914619570
         O            1.675741233124    -2.408979206714    -0.126711850137    15.994914619570
         C           -1.023469566876     0.012666793286     0.351726049863    12.000000000000
         C           -2.513625766876    -0.021424206714     0.564627149863    12.000000000000
         C           -0.322738766876    -1.209371206714     0.235565149863    12.000000000000
         C           -0.336731766876     1.203244793286     0.236062149863    12.000000000000
         C           -3.273242766876    -0.021731206714    -0.763137850137    12.000000000000
         C            1.035014233124     1.208684793286    -0.016911850137    12.000000000000
         C            1.048383233124    -1.193021206714    -0.017810850137    12.000000000000
         C            1.737185233124     0.012801793286    -0.144553850137    12.000000000000
         H           -2.810791566876    -0.899668806714     1.148557249863     1.007825032230
         H           -2.807961766876     0.851876793286     1.158503149863     1.007825032230
         H           -0.830909766876    -2.165529206714     0.332110149863     1.007825032230
         H           -0.878632766876     2.143668793286     0.336380149863     1.007825032230
         H           -3.022771766876     0.865278793286    -1.351583850137     1.007825032230
         H           -4.357079766876    -0.031409206714    -0.604132850137     1.007825032230
         H           -3.007321766876    -0.900109206714    -1.357484850137     1.007825032230
         H            2.807764233124     0.044783793286    -0.335060850137     1.007825032230
         H            1.159392233124     3.120324793286    -0.028780850137     1.007825032230
         H            2.621857233124    -2.256366206714    -0.296428850137     1.007825032230

  Basis Set: AUG-CC-PVTZ
    Blend: AUG-CC-PVTZ
  Basis Set: (AUG-CC-PVTZ AUX)
    Blend: AUG-CC-PVTZ-JKFIT
	 Reference Energy          =    -458.6593950427021014 [Eh]
	 Singles Energy            =      -0.0000000000000000 [Eh]
	 Same-Spin Energy          =      -0.4817657838523660 [Eh]
	 Opposite-Spin Energy      =      -1.5052757710759792 [Eh]
	 Correlation Energy        =      -1.9870415549283451 [Eh]
	 Total Energy              =    -460.6464365976304407 [Eh]

	 ================> DF-SCS-MP2 Energies <==================
	-----------------------------------------------------------
	 SCS Same-Spin Scale       =       0.3333333333333333 [-]
	 SCS Opposite-Spin Scale   =       1.2000000000000000 [-]
	 SCS Same-Spin Energy      =      -0.1605885946174553 [Eh]
	 SCS Opposite-Spin Energy  =      -1.8063309252911750 [Eh]
	 SCS Correlation Energy    =      -1.9669195199086302 [Eh]
	 SCS Total Energy          =    -460.6263145626107303 [Eh]
	-----------------------------------------------------------

  Dipole Moment: [D]
     X:    -0.5036      Y:     1.2475      Z:     0.0217     Total:     1.3455

*** Psi4 exiting successfully. Buy a developer a beer!
