                               Psi4 1.3.2 release

  ==> Input File <==

--------------------------------------------------------------------------
#psi4
#
memory 32 gb

molecule  {
0 1
  O        1.8021117     2.3418762    -0.1529519
  O        1.6754140    -2.4069960    -0.1279020
  C       -1.0215720    -0.0077180     0.3641480
  C       -2.5139530    -0.0194410     0.5634370
  C       -0.3230660    -1.2073880     0.2343750
  C       -0.3370590     1.2052280     0.2348720
  C       -3.2735700    -0.0197480    -0.7643280
  C        1.0346870     1.2106680    -0.0181020
  C        1.0480560    -1.1910380    -0.0190010
  C        1.7775246     0.0404203    -0.1529553
  H       -2.7927850    -0.9030380     1.1483340
  H       -2.8082890     0.8538600     1.1573130
  H       -0.8312370    -2.1635460     0.3309200
  H       -0.8789600     2.1456520     0.3351900
  H       -3.0230990     0.8672620    -1.3527740
  H       -4.3574070    -0.0294260    -0.6053230
  H       -3.0076490    -0.8981260    -1.3586750
  H        2.8074370     0.0467670    -0.3362510
  H        1.1590650     3.1223080    -0.0299710
  H        2.6215300    -2.2543830    -0.2976190
units angstrom
no_reorient  #important for SAPT in psi4, default
symmetry c1  #important for SAPT in psi4, default
}

set PROPERTIES_ORIGIN ["COM"]
properties('MP2/aug-cc-pvtz', properties = ['dipole'])
--------------------------------------------------------------------------

    Molecular point group: c1
  Charge       = 0
  Multiplicity = 1
  Basis Set: AUG-CC-PVTZ
    Blend: AUG-CC-PVTZ
  Basis Set: (AUG-CC-PVTZ AUX)
    Blend: AUG-CC-PVTZ-JKFIT

    Orbital Energies [Eh]
    ---------------------

    Doubly Occupied:

       1A    -20.598676     2A    -20.593729     3A    -11.313517
       4A    -11.309442     5A    -11.253330     6A    -11.232883
       7A    -11.223526     8A    -11.222380     9A    -11.220317
      10A    -11.215956    11A     -1.402784    12A     -1.396606
      13A     -1.147086    14A     -1.061058    15A     -0.999468
      16A     -0.987476    17A     -0.878810    18A     -0.828825
      19A     -0.806490    20A     -0.736956    21A     -0.689453
      22A     -0.667922    23A     -0.664463    24A     -0.612476
      25A     -0.602027    26A     -0.595820    27A     -0.589315
      28A     -0.575368    29A     -0.555075    30A     -0.549983
      31A     -0.524988    32A     -0.516040    33A     -0.488477
      34A     -0.485131    35A     -0.451739    36A     -0.322497
      37A     -0.311292

  @DF-RHF Final Energy:  -458.65083581157893

   => Energetics <=

    Nuclear Repulsion Energy =            506.6093033649474364
    One-Electron Energy =               -1629.2575155835490932
    Two-Electron Energy =                 663.9973764070226707
    Total Energy =                       -458.6508358115789861
  Basis Set: (AUG-CC-PVTZ AUX)
    Blend: AUG-CC-PVTZ-RI
    Molecular point group: c1

    Geometry (in Angstrom), charge = 0, multiplicity = 1:

       Center              X                  Y                   Z               Mass
    ------------   -----------------  -----------------  -----------------  -----------------
         O            1.794021800827     2.342718503006    -0.151505975045    15.994914619570
         O            1.667324100827    -2.406153696994    -0.126456075045    15.994914619570
         C           -1.029661899173    -0.006875696994     0.365593924955    12.000000000000
         C           -2.522042899173    -0.018598696994     0.564882924955    12.000000000000
         C           -0.331155899173    -1.206545696994     0.235820924955    12.000000000000
         C           -0.345148899173     1.206070303006     0.236317924955    12.000000000000
         C           -3.281659899173    -0.018905696994    -0.762882075045    12.000000000000
         C            1.026597100827     1.211510303006    -0.016656075045    12.000000000000
         C            1.039966100827    -1.190195696994    -0.017555075045    12.000000000000
         C            1.769434700827     0.041262603006    -0.151509375045    12.000000000000
         H           -2.800874899173    -0.902195696994     1.149779924955     1.007825032230
         H           -2.816378899173     0.854702303006     1.158758924955     1.007825032230
         H           -0.839326899173    -2.162703696994     0.332365924955     1.007825032230
         H           -0.887049899173     2.146494303006     0.336635924955     1.007825032230
         H           -3.031188899173     0.868104303006    -1.351328075045     1.007825032230
         H           -4.365496899173    -0.028583696994    -0.603877075045     1.007825032230
         H           -3.015738899173    -0.897283696994    -1.357229075045     1.007825032230
         H            2.799347100827     0.047609303006    -0.334805075045     1.007825032230
         H            1.150975100827     3.123150303006    -0.028525075045     1.007825032230
         H            2.613440100827    -2.253540696994    -0.296173075045     1.007825032230

  Basis Set: AUG-CC-PVTZ
    Blend: AUG-CC-PVTZ
  Basis Set: (AUG-CC-PVTZ AUX)
    Blend: AUG-CC-PVTZ-JKFIT
	 Reference Energy          =    -458.6508358115789292 [Eh]
	 Singles Energy            =      -0.0000000000000000 [Eh]
	 Same-Spin Energy          =      -0.4823673498090057 [Eh]
	 Opposite-Spin Energy      =      -1.5072598505884938 [Eh]
	 Correlation Energy        =      -1.9896272003974995 [Eh]
	 Total Energy              =    -460.6404630119764079 [Eh]

	 ================> DF-SCS-MP2 Energies <==================
	-----------------------------------------------------------
	 SCS Same-Spin Scale       =       0.3333333333333333 [-]
	 SCS Opposite-Spin Scale   =       1.2000000000000000 [-]
	 SCS Same-Spin Energy      =      -0.1607891166030019 [Eh]
	 SCS Opposite-Spin Energy  =      -1.8087118207061925 [Eh]
	 SCS Correlation Energy    =      -1.9695009373091943 [Eh]
	 SCS Total Energy          =    -460.6203367488881213 [Eh]
	-----------------------------------------------------------

  Dipole Moment: [D]
     X:    -0.5349      Y:     1.2044      Z:     0.0133     Total:     1.3179

*** Psi4 exiting successfully. Buy a developer a beer!
