                               Psi4 1.3.2 release

  ==> Input File <==

--------------------------------------------------------------------------
#psi4
#
memory 32 gb

molecule  {
0 1
  O        1.7627890     2.3683800    -0.1458810
  O        1.6754140    -2.4069960    -0.1279020
  C       -1.0215720    -0.0077180     0.3641480
  C       -2.4148359    -0.0186624     0.5502011
  C       -0.3230660    -1.2073880     0.2343750
  C       -0.3370590     1.2052280     0.2348720
  C       -3.2735700    -0.0197480    -0.7643280
  C        1.0346870     1.2106680    -0.0181020
  C        1.0480560    -1.1910380    -0.0190010
  C        1.7368580     0.0147850    -0.1457440
  H       -2.7927850    -0.9030380     1.1483340
  H       -2.8082890     0.8538600     1.1573130
  H       -0.8312370    -2.1635460     0.3309200
  H       -0.8789600     2.1456520     0.3351900
  H       -3.0230990     0.8672620    -1.3527740
  H       -4.3574070    -0.0294260    -0.6053230
  H       -3.0076490    -0.8981260    -1.3586750
  H        2.8074370     0.0467670    -0.3362510
  H        1.1590650     3.1223080    -0.0299710
  H        2.6215300    -2.2543830    -0.2976190
units angstrom
no_reorient  #important for SAPT in psi4, default
symmetry c1  #important for SAPT in psi4, default
}

set PROPERTIES_ORIGIN ["COM"]
properties('MP2/aug-cc-pvtz', properties = ['dipole'])
--------------------------------------------------------------------------

    Molecular point group: c1
  Charge       = 0
  Multiplicity = 1
  Basis Set: AUG-CC-PVTZ
    Blend: AUG-CC-PVTZ
  Basis Set: (AUG-CC-PVTZ AUX)
    Blend: AUG-CC-PVTZ-JKFIT

    Orbital Energies [Eh]
    ---------------------

    Doubly Occupied:

       1A    -20.596162     2A    -20.593786     3A    -11.311028
       4A    -11.309298     5A    -11.246940     6A    -11.233790
       7A    -11.224702     8A    -11.223322     9A    -11.222843
      10A    -11.216621    11A     -1.405862    12A     -1.402333
      13A     -1.156988    14A     -1.070133    15A     -1.002445
      16A     -0.982826    17A     -0.885369    18A     -0.838345
      19A     -0.804722    20A     -0.740207    21A     -0.688635
      22A     -0.676191    23A     -0.668761    24A     -0.617487
      25A     -0.601628    26A     -0.593536    27A     -0.585727
      28A     -0.576929    29A     -0.554985    30A     -0.552072
      31A     -0.523878    32A     -0.513926    33A     -0.501230
      34A     -0.472867    35A     -0.448400    36A     -0.324062
      37A     -0.312059

  @DF-RHF Final Energy:  -458.64765897658043

   => Energetics <=

    Nuclear Repulsion Energy =            509.0028990614736699
    One-Electron Energy =               -1633.9409311075169171
    Two-Electron Energy =                 666.2903730694627029
    Total Energy =                       -458.6476589765804874
  Basis Set: (AUG-CC-PVTZ AUX)
    Blend: AUG-CC-PVTZ-RI
    Molecular point group: c1

    Geometry (in Angstrom), charge = 0, multiplicity = 1:

       Center              X                  Y                   Z               Mass
    ------------   -----------------  -----------------  -----------------  -----------------
         O            1.754174412056     2.368312276456    -0.144730604916    15.994914619570
         O            1.666799412056    -2.407063723544    -0.126751604916    15.994914619570
         C           -1.030186587944    -0.007785723544     0.365298395084    12.000000000000
         C           -2.423450487944    -0.018730123544     0.551351495084    12.000000000000
         C           -0.331680587944    -1.207455723544     0.235525395084    12.000000000000
         C           -0.345673587944     1.205160276456     0.236022395084    12.000000000000
         C           -3.282184587944    -0.019815723544    -0.763177604916    12.000000000000
         C            1.026072412056     1.210600276456    -0.016951604916    12.000000000000
         C            1.039441412056    -1.191105723544    -0.017850604916    12.000000000000
         C            1.728243412056     0.014717276456    -0.144593604916    12.000000000000
         H           -2.801399587944    -0.903105723544     1.149484395084     1.007825032230
         H           -2.816903587944     0.853792276456     1.158463395084     1.007825032230
         H           -0.839851587944    -2.163613723544     0.332070395084     1.007825032230
         H           -0.887574587944     2.145584276456     0.336340395084     1.007825032230
         H           -3.031713587944     0.867194276456    -1.351623604916     1.007825032230
         H           -4.366021587944    -0.029493723544    -0.604172604916     1.007825032230
         H           -3.016263587944    -0.898193723544    -1.357524604916     1.007825032230
         H            2.798822412056     0.046699276456    -0.335100604916     1.007825032230
         H            1.150450412056     3.122240276456    -0.028820604916     1.007825032230
         H            2.612915412056    -2.254450723544    -0.296468604916     1.007825032230

  Basis Set: AUG-CC-PVTZ
    Blend: AUG-CC-PVTZ
  Basis Set: (AUG-CC-PVTZ AUX)
    Blend: AUG-CC-PVTZ-JKFIT
	 Reference Energy          =    -458.6476589765804306 [Eh]
	 Singles Energy            =      -0.0000000000000000 [Eh]
	 Same-Spin Energy          =      -0.4829029793172016 [Eh]
	 Opposite-Spin Energy      =      -1.5068071427928784 [Eh]
	 Correlation Energy        =      -1.9897101221100799 [Eh]
	 Total Energy              =    -460.6373690986904990 [Eh]

	 ================> DF-SCS-MP2 Energies <==================
	-----------------------------------------------------------
	 SCS Same-Spin Scale       =       0.3333333333333333 [-]
	 SCS Opposite-Spin Scale   =       1.2000000000000000 [-]
	 SCS Same-Spin Energy      =      -0.1609676597724005 [Eh]
	 SCS Opposite-Spin Energy  =      -1.8081685713514539 [Eh]
	 SCS Correlation Energy    =      -1.9691362311238545 [Eh]
	 SCS Total Energy          =    -460.6167952077042855 [Eh]
	-----------------------------------------------------------

  Dipole Moment: [D]
     X:    -0.4541      Y:     1.2200      Z:    -0.0023     Total:     1.3017

*** Psi4 exiting successfully. Buy a developer a beer!
