                               Psi4 1.3.2 release

  ==> Input File <==

--------------------------------------------------------------------------
#psi4
#
memory 32 gb

molecule  {
0 1
  O        1.7627890     2.3683800    -0.1458810
  O        1.6754140    -2.4069960    -0.1279020
  C       -1.0008758     0.0044985     0.3603303
  C       -2.5139530    -0.0194410     0.5634370
  C       -0.3230660    -1.2073880     0.2343750
  C       -0.3370590     1.2052280     0.2348720
  C       -3.2735700    -0.0197480    -0.7643280
  C        1.0346870     1.2106680    -0.0181020
  C        1.0475691    -1.1667060    -0.0188971
  C        1.7368580     0.0147850    -0.1457440
  H       -2.7927850    -0.9030380     1.1483340
  H       -2.8082890     0.8538600     1.1573130
  H       -0.8312370    -2.1635460     0.3309200
  H       -0.8789600     2.1456520     0.3351900
  H       -3.0230990     0.8672620    -1.3527740
  H       -4.3574070    -0.0294260    -0.6053230
  H       -3.0076490    -0.8981260    -1.3586750
  H        2.8074370     0.0467670    -0.3362510
  H        1.1590650     3.1223080    -0.0299710
  H        2.6215300    -2.2543830    -0.2976190
units angstrom
no_reorient  #important for SAPT in psi4, default
symmetry c1  #important for SAPT in psi4, default
}

set PROPERTIES_ORIGIN ["COM"]
properties('MP2/aug-cc-pvtz', properties = ['dipole'])
--------------------------------------------------------------------------

    Molecular point group: c1
  Charge       = 0
  Multiplicity = 1
  Basis Set: AUG-CC-PVTZ
    Blend: AUG-CC-PVTZ
  Basis Set: (AUG-CC-PVTZ AUX)
    Blend: AUG-CC-PVTZ-JKFIT

    Orbital Energies [Eh]
    ---------------------

    Doubly Occupied:

       1A    -20.597066     2A    -20.589194     3A    -11.312057
       4A    -11.306369     5A    -11.249866     6A    -11.232800
       7A    -11.223546     8A    -11.222346     9A    -11.219389
      10A    -11.216323    11A     -1.406325    12A     -1.391295
      13A     -1.154624    14A     -1.063813    15A     -1.002909
      16A     -0.991103    17A     -0.874124    18A     -0.839268
      19A     -0.805588    20A     -0.739350    21A     -0.689437
      22A     -0.674522    23A     -0.661580    24A     -0.610763
      25A     -0.602153    26A     -0.594418    27A     -0.585503
      28A     -0.572403    29A     -0.555820    30A     -0.549523
      31A     -0.526829    32A     -0.522006    33A     -0.488351
      34A     -0.477676    35A     -0.457181    36A     -0.331243
      37A     -0.311973

  @DF-RHF Final Energy:  -458.65889056551816

   => Energetics <=

    Nuclear Repulsion Energy =            507.8483334491480150
    One-Electron Energy =               -1631.7169757258209302
    Two-Electron Energy =                 665.2097517111548086
    Total Energy =                       -458.6588905655181634
  Basis Set: (AUG-CC-PVTZ AUX)
    Blend: AUG-CC-PVTZ-RI
    Molecular point group: c1

    Geometry (in Angstrom), charge = 0, multiplicity = 1:

       Center              X                  Y                   Z               Mass
    ------------   -----------------  -----------------  -----------------  -----------------
         O            1.761032576543     2.365203384079    -0.145558205331    15.994914619570
         O            1.673657576543    -2.410172615921    -0.127579205331    15.994914619570
         C           -1.002632223457     0.001321884079     0.360653094669    12.000000000000
         C           -2.515709423457    -0.022617615921     0.563759794669    12.000000000000
         C           -0.324822423457    -1.210564615921     0.234697794669    12.000000000000
         C           -0.338815423457     1.202051384079     0.235194794669    12.000000000000
         C           -3.275326423457    -0.022924615921    -0.764005205331    12.000000000000
         C            1.032930576543     1.207491384079    -0.017779205331    12.000000000000
         C            1.045812676543    -1.169882615921    -0.018574305331    12.000000000000
         C            1.735101576543     0.011608384079    -0.145421205331    12.000000000000
         H           -2.794541423457    -0.906214615921     1.148656794669     1.007825032230
         H           -2.810045423457     0.850683384079     1.157635794669     1.007825032230
         H           -0.832993423457    -2.166722615921     0.331242794669     1.007825032230
         H           -0.880716423457     2.142475384079     0.335512794669     1.007825032230
         H           -3.024855423457     0.864085384079    -1.352451205331     1.007825032230
         H           -4.359163423457    -0.032602615921    -0.605000205331     1.007825032230
         H           -3.009405423457    -0.901302615921    -1.358352205331     1.007825032230
         H            2.805680576543     0.043590384079    -0.335928205331     1.007825032230
         H            1.157308576543     3.119131384079    -0.029648205331     1.007825032230
         H            2.619773576543    -2.257559615921    -0.297296205331     1.007825032230

  Basis Set: AUG-CC-PVTZ
    Blend: AUG-CC-PVTZ
  Basis Set: (AUG-CC-PVTZ AUX)
    Blend: AUG-CC-PVTZ-JKFIT
	 Reference Energy          =    -458.6588905655181634 [Eh]
	 Singles Energy            =      -0.0000000000000000 [Eh]
	 Same-Spin Energy          =      -0.4816300388527714 [Eh]
	 Opposite-Spin Energy      =      -1.5052678709711240 [Eh]
	 Correlation Energy        =      -1.9868979098238955 [Eh]
	 Total Energy              =    -460.6457884753420444 [Eh]

	 ================> DF-SCS-MP2 Energies <==================
	-----------------------------------------------------------
	 SCS Same-Spin Scale       =       0.3333333333333333 [-]
	 SCS Opposite-Spin Scale   =       1.2000000000000000 [-]
	 SCS Same-Spin Energy      =      -0.1605433462842571 [Eh]
	 SCS Opposite-Spin Energy  =      -1.8063214451653486 [Eh]
	 SCS Correlation Energy    =      -1.9668647914496058 [Eh]
	 SCS Total Energy          =    -460.6257553569677725 [Eh]
	-----------------------------------------------------------

  Dipole Moment: [D]
     X:    -0.5354      Y:     1.3717      Z:     0.0191     Total:     1.4726

*** Psi4 exiting successfully. Buy a developer a beer!
