                               Psi4 1.3.2 release

  ==> Input File <==

--------------------------------------------------------------------------
#psi4
#
memory 32 gb

molecule  {
0 1
  O        1.7627890     2.3683800    -0.1458810
  O        1.6754140    -2.4069960    -0.1279020
  C       -1.0215720    -0.0077180     0.3641480
  C       -2.5139530    -0.0194410     0.5634370
  C       -0.3333816    -1.2135422     0.2363125
  C       -0.3474899     1.2112608     0.2368204
  C       -3.2735700    -0.0197480    -0.7643280
  C        1.0346870     1.2106680    -0.0181020
  C        1.0480560    -1.1910380    -0.0190010
  C        1.7368580     0.0147850    -0.1457440
  H       -2.7927850    -0.9030380     1.1483340
  H       -2.8082890     0.8538600     1.1573130
  H       -0.8312370    -2.1635460     0.3309200
  H       -0.8789600     2.1456520     0.3351900
  H       -3.0230990     0.8672620    -1.3527740
  H       -4.3574070    -0.0294260    -0.6053230
  H       -3.0076490    -0.8981260    -1.3586750
  H        2.8074370     0.0467670    -0.3362510
  H        1.1590650     3.1223080    -0.0299710
  H        2.6215300    -2.2543830    -0.2976190
units angstrom
no_reorient  #important for SAPT in psi4, default
symmetry c1  #important for SAPT in psi4, default
}

set PROPERTIES_ORIGIN ["COM"]
properties('MP2/aug-cc-pvtz', properties = ['dipole'])
--------------------------------------------------------------------------

    Molecular point group: c1
  Charge       = 0
  Multiplicity = 1
  Basis Set: AUG-CC-PVTZ
    Blend: AUG-CC-PVTZ
  Basis Set: (AUG-CC-PVTZ AUX)
    Blend: AUG-CC-PVTZ-JKFIT

    Orbital Energies [Eh]
    ---------------------

    Doubly Occupied:

       1A    -20.596222     2A    -20.593890     3A    -11.312337
       4A    -11.310600     5A    -11.251239     6A    -11.231194
       7A    -11.224195     8A    -11.222620     9A    -11.219281
      10A    -11.215931    11A     -1.405768    12A     -1.402290
      13A     -1.148763    14A     -1.063634    15A     -0.999556
      16A     -0.987886    17A     -0.875706    18A     -0.838087
      19A     -0.807127    20A     -0.739155    21A     -0.688729
      22A     -0.675376    23A     -0.666995    24A     -0.611388
      25A     -0.602271    26A     -0.595132    27A     -0.588204
      28A     -0.576545    29A     -0.553393    30A     -0.548906
      31A     -0.526314    32A     -0.521571    33A     -0.487318
      34A     -0.480624    35A     -0.452883    36A     -0.326727
      37A     -0.309508

  @DF-RHF Final Energy:  -458.65975755856954

   => Energetics <=

    Nuclear Repulsion Energy =            507.1643655445084278
    One-Electron Energy =               -1630.3335168427611279
    Two-Electron Energy =                 664.5093937396832189
    Total Energy =                       -458.6597575585694813
  Basis Set: (AUG-CC-PVTZ AUX)
    Blend: AUG-CC-PVTZ-RI
    Molecular point group: c1

    Geometry (in Angstrom), charge = 0, multiplicity = 1:

       Center              X                  Y                   Z               Mass
    ------------   -----------------  -----------------  -----------------  -----------------
         O            1.764592194389     2.368390498736    -0.146218722956    15.994914619570
         O            1.677217194389    -2.406985501264    -0.128239722956    15.994914619570
         C           -1.019768805611    -0.007707501264     0.363810277044    12.000000000000
         C           -2.512149805611    -0.019430501264     0.563099277044    12.000000000000
         C           -0.331578405611    -1.213531701264     0.235974777044    12.000000000000
         C           -0.345686705611     1.211271298736     0.236482677044    12.000000000000
         C           -3.271766805611    -0.019737501264    -0.764665722956    12.000000000000
         C            1.036490194389     1.210678498736    -0.018439722956    12.000000000000
         C            1.049859194389    -1.191027501264    -0.019338722956    12.000000000000
         C            1.738661194389     0.014795498736    -0.146081722956    12.000000000000
         H           -2.790981805611    -0.903027501264     1.147996277044     1.007825032230
         H           -2.806485805611     0.853870498736     1.156975277044     1.007825032230
         H           -0.829433805611    -2.163535501264     0.330582277044     1.007825032230
         H           -0.877156805611     2.145662498736     0.334852277044     1.007825032230
         H           -3.021295805611     0.867272498736    -1.353111722956     1.007825032230
         H           -4.355603805611    -0.029415501264    -0.605660722956     1.007825032230
         H           -3.005845805611    -0.898115501264    -1.359012722956     1.007825032230
         H            2.809240194389     0.046777498736    -0.336588722956     1.007825032230
         H            1.160868194389     3.122318498736    -0.030308722956     1.007825032230
         H            2.623333194389    -2.254372501264    -0.297956722956     1.007825032230

  Basis Set: AUG-CC-PVTZ
    Blend: AUG-CC-PVTZ
  Basis Set: (AUG-CC-PVTZ AUX)
    Blend: AUG-CC-PVTZ-JKFIT
	 Reference Energy          =    -458.6597575585695381 [Eh]
	 Singles Energy            =      -0.0000000000000000 [Eh]
	 Same-Spin Energy          =      -0.4816400118865550 [Eh]
	 Opposite-Spin Energy      =      -1.5052188351047955 [Eh]
	 Correlation Energy        =      -1.9868588469913506 [Eh]
	 Total Energy              =    -460.6466164055609056 [Eh]

	 ================> DF-SCS-MP2 Energies <==================
	-----------------------------------------------------------
	 SCS Same-Spin Scale       =       0.3333333333333333 [-]
	 SCS Opposite-Spin Scale   =       1.2000000000000000 [-]
	 SCS Same-Spin Energy      =      -0.1605466706288517 [Eh]
	 SCS Opposite-Spin Energy  =      -1.8062626021257544 [Eh]
	 SCS Correlation Energy    =      -1.9668092727546060 [Eh]
	 SCS Total Energy          =    -460.6265668313241690 [Eh]
	-----------------------------------------------------------

  Dipole Moment: [D]
     X:    -0.4642      Y:     1.2220      Z:     0.0064     Total:     1.3072

*** Psi4 exiting successfully. Buy a developer a beer!
