                               Psi4 1.3.2 release

  ==> Input File <==

--------------------------------------------------------------------------
#psi4
#
memory 32 gb

molecule  {
0 1
  O        1.7627890     2.3683800    -0.1458810
  O        1.6754140    -2.4069960    -0.1279020
  C       -1.0215720    -0.0077180     0.3641480
  C       -2.5139530    -0.0194410     0.5634370
  C       -0.3230660    -1.2073880     0.2343750
  C       -0.3370590     1.2052280     0.2348720
  C       -3.2735700    -0.0197480    -0.7643280
  C        1.0553231     1.2229413    -0.0218838
  C        1.0688635    -1.2030774    -0.0227985
  C        1.7368580     0.0147850    -0.1457440
  H       -2.7927850    -0.9030380     1.1483340
  H       -2.8082890     0.8538600     1.1573130
  H       -0.8312370    -2.1635460     0.3309200
  H       -0.8789600     2.1456520     0.3351900
  H       -3.0230990     0.8672620    -1.3527740
  H       -4.3574070    -0.0294260    -0.6053230
  H       -3.0076490    -0.8981260    -1.3586750
  H        2.8074370     0.0467670    -0.3362510
  H        1.1590650     3.1223080    -0.0299710
  H        2.6215300    -2.2543830    -0.2976190
units angstrom
no_reorient  #important for SAPT in psi4, default
symmetry c1  #important for SAPT in psi4, default
}

set PROPERTIES_ORIGIN ["COM"]
properties('MP2/aug-cc-pvtz', properties = ['dipole'])
--------------------------------------------------------------------------

    Molecular point group: c1
  Charge       = 0
  Multiplicity = 1
  Basis Set: AUG-CC-PVTZ
    Blend: AUG-CC-PVTZ
  Basis Set: (AUG-CC-PVTZ AUX)
    Blend: AUG-CC-PVTZ-JKFIT

    Orbital Energies [Eh]
    ---------------------

    Doubly Occupied:

       1A    -20.599347     2A    -20.597842     3A    -11.312547
       4A    -11.310629     5A    -11.249291     6A    -11.230685
       7A    -11.222515     8A    -11.221929     9A    -11.218393
      10A    -11.215110    11A     -1.416330    12A     -1.413356
      13A     -1.144933    14A     -1.062338    15A     -0.994864
      16A     -0.986340    17A     -0.874068    18A     -0.840367
      19A     -0.810000    20A     -0.742849    21A     -0.690804
      22A     -0.677460    23A     -0.665942    24A     -0.612691
      25A     -0.606000    26A     -0.595967    27A     -0.590654
      28A     -0.583612    29A     -0.551109    30A     -0.545544
      31A     -0.522396    32A     -0.519055    33A     -0.486302
      34A     -0.478647    35A     -0.450745    36A     -0.325764
      37A     -0.304213

  @DF-RHF Final Energy:  -458.65893267655952

   => Energetics <=

    Nuclear Repulsion Energy =            507.1840195562607505
    One-Electron Energy =               -1630.3446293360825621
    Two-Electron Energy =                 664.5016771032621818
    Total Energy =                       -458.6589326765595160
  Basis Set: (AUG-CC-PVTZ AUX)
    Blend: AUG-CC-PVTZ-RI
    Molecular point group: c1

    Geometry (in Angstrom), charge = 0, multiplicity = 1:

       Center              X                  Y                   Z               Mass
    ------------   -----------------  -----------------  -----------------  -----------------
         O            1.759187026139     2.368359618318    -0.145222240638    15.994914619570
         O            1.671812026139    -2.407016381682    -0.127243240638    15.994914619570
         C           -1.025173973861    -0.007738381682     0.364806759362    12.000000000000
         C           -2.517554973861    -0.019461381682     0.564095759362    12.000000000000
         C           -0.326667973861    -1.207408381682     0.235033759362    12.000000000000
         C           -0.340660973861     1.205207618318     0.235530759362    12.000000000000
         C           -3.277171973861    -0.019768381682    -0.763669240638    12.000000000000
         C            1.051721126139     1.222920918318    -0.021225040638    12.000000000000
         C            1.065261526139    -1.203097781682    -0.022139740638    12.000000000000
         C            1.733256026139     0.014764618318    -0.145085240638    12.000000000000
         H           -2.796386973861    -0.903058381682     1.148992759362     1.007825032230
         H           -2.811890973861     0.853839618318     1.157971759362     1.007825032230
         H           -0.834838973861    -2.163566381682     0.331578759362     1.007825032230
         H           -0.882561973861     2.145631618318     0.335848759362     1.007825032230
         H           -3.026700973861     0.867241618318    -1.352115240638     1.007825032230
         H           -4.361008973861    -0.029446381682    -0.604664240638     1.007825032230
         H           -3.011250973861    -0.898146381682    -1.358016240638     1.007825032230
         H            2.803835026139     0.046746618318    -0.335592240638     1.007825032230
         H            1.155463026139     3.122287618318    -0.029312240638     1.007825032230
         H            2.617928026139    -2.254403381682    -0.296960240638     1.007825032230

  Basis Set: AUG-CC-PVTZ
    Blend: AUG-CC-PVTZ
  Basis Set: (AUG-CC-PVTZ AUX)
    Blend: AUG-CC-PVTZ-JKFIT
	 Reference Energy          =    -458.6589326765595160 [Eh]
	 Singles Energy            =      -0.0000000000000000 [Eh]
	 Same-Spin Energy          =      -0.4817099850361046 [Eh]
	 Opposite-Spin Energy      =      -1.5048551791005309 [Eh]
	 Correlation Energy        =      -1.9865651641366355 [Eh]
	 Total Energy              =    -460.6454978406961800 [Eh]

	 ================> DF-SCS-MP2 Energies <==================
	-----------------------------------------------------------
	 SCS Same-Spin Scale       =       0.3333333333333333 [-]
	 SCS Opposite-Spin Scale   =       1.2000000000000000 [-]
	 SCS Same-Spin Energy      =      -0.1605699950120349 [Eh]
	 SCS Opposite-Spin Energy  =      -1.8058262149206370 [Eh]
	 SCS Correlation Energy    =      -1.9663962099326719 [Eh]
	 SCS Total Energy          =    -460.6253288864921842 [Eh]
	-----------------------------------------------------------

  Dipole Moment: [D]
     X:    -0.3124      Y:     1.2207      Z:    -0.0183     Total:     1.2601

*** Psi4 exiting successfully. Buy a developer a beer!
