                               Psi4 1.3.2 release

  ==> Input File <==

--------------------------------------------------------------------------
#psi4
#
memory 32 gb

molecule  {
0 1
  O        1.7627890     2.3683800    -0.1458810
  O        1.6754140    -2.4069960    -0.1279020
  C       -1.0215720    -0.0077180     0.3641480
  C       -2.5139530    -0.0194410     0.5634370
  C       -0.3230660    -1.2073880     0.2343750
  C       -0.3370590     1.2052280     0.2348720
  C       -3.2735700    -0.0197480    -0.7643280
  C        1.0346870     1.2106680    -0.0181020
  C        1.0478575    -1.1788709    -0.0189981
  C        1.7368580     0.0147850    -0.1457440
  H       -2.7927850    -0.9030380     1.1483340
  H       -2.8082890     0.8538600     1.1573130
  H       -0.8394250    -2.1589958     0.3324202
  H       -0.8789600     2.1456520     0.3351900
  H       -3.0230990     0.8672620    -1.3527740
  H       -4.3574070    -0.0294260    -0.6053230
  H       -3.0076490    -0.8981260    -1.3586750
  H        2.8074370     0.0467670    -0.3362510
  H        1.1590650     3.1223080    -0.0299710
  H        2.6215300    -2.2543830    -0.2976190
units angstrom
no_reorient  #important for SAPT in psi4, default
symmetry c1  #important for SAPT in psi4, default
}

set PROPERTIES_ORIGIN ["COM"]
properties('MP2/aug-cc-pvtz', properties = ['dipole'])
--------------------------------------------------------------------------

    Molecular point group: c1
  Charge       = 0
  Multiplicity = 1
  Basis Set: AUG-CC-PVTZ
    Blend: AUG-CC-PVTZ
  Basis Set: (AUG-CC-PVTZ AUX)
    Blend: AUG-CC-PVTZ-JKFIT

    Orbital Energies [Eh]
    ---------------------

    Doubly Occupied:

       1A    -20.596149     2A    -20.591343     3A    -11.311031
       4A    -11.307920     5A    -11.251316     6A    -11.232259
       7A    -11.223865     8A    -11.223166     9A    -11.219918
      10A    -11.216414    11A     -1.405458    12A     -1.396750
      13A     -1.151661    14A     -1.065255    15A     -1.001318
      16A     -0.989183    17A     -0.876670    18A     -0.837705
      19A     -0.806819    20A     -0.738917    21A     -0.688284
      22A     -0.674808    23A     -0.664054    24A     -0.611953
      25A     -0.602180    26A     -0.595221    27A     -0.586548
      28A     -0.574510    29A     -0.553903    30A     -0.549334
      31A     -0.523592    32A     -0.522467    33A     -0.487838
      34A     -0.483089    35A     -0.454687    36A     -0.327547
      37A     -0.311740

  @DF-RHF Final Energy:  -458.65986077667975

   => Energetics <=

    Nuclear Repulsion Energy =            507.5836359726338287
    One-Electron Energy =               -1631.1772536951443726
    Two-Electron Energy =                 664.9337569458307371
    Total Energy =                       -458.6598607766798068
  Basis Set: (AUG-CC-PVTZ AUX)
    Blend: AUG-CC-PVTZ-RI
    Molecular point group: c1

    Geometry (in Angstrom), charge = 0, multiplicity = 1:

       Center              X                  Y                   Z               Mass
    ------------   -----------------  -----------------  -----------------  -----------------
         O            1.762866060953     2.367289246325    -0.145892187952    15.994914619570
         O            1.675491060953    -2.408086753675    -0.127913187952    15.994914619570
         C           -1.021494939047    -0.008808753675     0.364136812048    12.000000000000
         C           -2.513875939047    -0.020531753675     0.563425812048    12.000000000000
         C           -0.322988939047    -1.208478753675     0.234363812048    12.000000000000
         C           -0.336981939047     1.204137246325     0.234860812048    12.000000000000
         C           -3.273492939047    -0.020838753675    -0.764339187952    12.000000000000
         C            1.034764060953     1.209577246325    -0.018113187952    12.000000000000
         C            1.047934560953    -1.179961653675    -0.019009287952    12.000000000000
         C            1.736935060953     0.013694246325    -0.145755187952    12.000000000000
         H           -2.792707939047    -0.904128753675     1.148322812048     1.007825032230
         H           -2.808211939047     0.852769246325     1.157301812048     1.007825032230
         H           -0.839347939047    -2.160086553675     0.332409012048     1.007825032230
         H           -0.878882939047     2.144561246325     0.335178812048     1.007825032230
         H           -3.023021939047     0.866171246325    -1.352785187952     1.007825032230
         H           -4.357329939047    -0.030516753675    -0.605334187952     1.007825032230
         H           -3.007571939047    -0.899216753675    -1.358686187952     1.007825032230
         H            2.807514060953     0.045676246325    -0.336262187952     1.007825032230
         H            1.159142060953     3.121217246325    -0.029982187952     1.007825032230
         H            2.621607060953    -2.255473753675    -0.297630187952     1.007825032230

  Basis Set: AUG-CC-PVTZ
    Blend: AUG-CC-PVTZ
  Basis Set: (AUG-CC-PVTZ AUX)
    Blend: AUG-CC-PVTZ-JKFIT
	 Reference Energy          =    -458.6598607766797500 [Eh]
	 Singles Energy            =      -0.0000000000000000 [Eh]
	 Same-Spin Energy          =      -0.4817578394324012 [Eh]
	 Opposite-Spin Energy      =      -1.5053579309072496 [Eh]
	 Correlation Energy        =      -1.9871157703396509 [Eh]
	 Total Energy              =    -460.6469765470193920 [Eh]

	 ================> DF-SCS-MP2 Energies <==================
	-----------------------------------------------------------
	 SCS Same-Spin Scale       =       0.3333333333333333 [-]
	 SCS Opposite-Spin Scale   =       1.2000000000000000 [-]
	 SCS Same-Spin Energy      =      -0.1605859464774671 [Eh]
	 SCS Opposite-Spin Energy  =      -1.8064295170886995 [Eh]
	 SCS Correlation Energy    =      -1.9670154635661665 [Eh]
	 SCS Total Energy          =    -460.6268762402459060 [Eh]
	-----------------------------------------------------------

  Dipole Moment: [D]
     X:    -0.5339      Y:     1.2902      Z:     0.0144     Total:     1.3964

*** Psi4 exiting successfully. Buy a developer a beer!
