                               Psi4 1.3.2 release

  ==> Input File <==

--------------------------------------------------------------------------
#psi4
#
memory 32 gb

molecule  {
0 1
  O        1.7627890     2.3683800    -0.1458810
  O        1.6754140    -2.4069960    -0.1279020
  C       -1.0215720    -0.0077180     0.3641480
  C       -2.5139530    -0.0194410     0.5634370
  C       -0.3230660    -1.2073880     0.2343750
  C       -0.3370590     1.2052280     0.2348720
  C       -3.2735700    -0.0197480    -0.7643280
  C        1.0346870     1.2106680    -0.0181020
  C        1.0902005    -1.1695572    -0.0266015
  C        1.7368580     0.0147850    -0.1457440
  H       -2.7927850    -0.9030380     1.1483340
  H       -2.8082890     0.8538600     1.1573130
  H       -0.8312370    -2.1635460     0.3309200
  H       -0.8789600     2.1456520     0.3351900
  H       -3.0230990     0.8672620    -1.3527740
  H       -4.3574070    -0.0294260    -0.6053230
  H       -3.0076490    -0.8981260    -1.3586750
  H        2.8074370     0.0467670    -0.3362510
  H        1.1590650     3.1223080    -0.0299710
  H        2.6156947    -2.2209301    -0.2966672
units angstrom
no_reorient  #important for SAPT in psi4, default
symmetry c1  #important for SAPT in psi4, default
}

set PROPERTIES_ORIGIN ["COM"]
properties('MP2/aug-cc-pvtz', properties = ['dipole'])
--------------------------------------------------------------------------

    Molecular point group: c1
  Charge       = 0
  Multiplicity = 1
  Basis Set: AUG-CC-PVTZ
    Blend: AUG-CC-PVTZ
  Basis Set: (AUG-CC-PVTZ AUX)
    Blend: AUG-CC-PVTZ-JKFIT

    Orbital Energies [Eh]
    ---------------------

    Doubly Occupied:

       1A    -20.596890     2A    -20.596284     3A    -11.312272
       4A    -11.308583     5A    -11.249384     6A    -11.231176
       7A    -11.222323     8A    -11.222219     9A    -11.219030
      10A    -11.218984    11A     -1.407506    12A     -1.404701
      13A     -1.149896    14A     -1.067262    15A     -0.996183
      16A     -0.989413    17A     -0.874666    18A     -0.841735
      19A     -0.805662    20A     -0.739116    21A     -0.691690
      22A     -0.674707    23A     -0.659608    24A     -0.612136
      25A     -0.603392    26A     -0.596919    27A     -0.589241
      28A     -0.577706    29A     -0.553754    30A     -0.548842
      31A     -0.527475    32A     -0.521042    33A     -0.486617
      34A     -0.479273    35A     -0.454117    36A     -0.332571
      37A     -0.306129

  @DF-RHF Final Energy:  -458.65641969552803

   => Energetics <=

    Nuclear Repulsion Energy =            507.5241238782546702
    One-Electron Energy =               -1631.0240854186922661
    Two-Electron Energy =                 664.8435418449096233
    Total Energy =                       -458.6564196955280295
  Basis Set: (AUG-CC-PVTZ AUX)
    Blend: AUG-CC-PVTZ-RI
    Molecular point group: c1

    Geometry (in Angstrom), charge = 0, multiplicity = 1:

       Center              X                  Y                   Z               Mass
    ------------   -----------------  -----------------  -----------------  -----------------
         O            1.759168703015     2.366268784065    -0.145227345713    15.994914619570
         O            1.671793703015    -2.409107215935    -0.127248345713    15.994914619570
         C           -1.025192296985    -0.009829215935     0.364801654287    12.000000000000
         C           -2.517573296985    -0.021552215935     0.564090654287    12.000000000000
         C           -0.326686296985    -1.209499215935     0.235028654287    12.000000000000
         C           -0.340679296985     1.203116784065     0.235525654287    12.000000000000
         C           -3.277190296985    -0.021859215935    -0.763674345713    12.000000000000
         C            1.031066703015     1.208556784065    -0.017448345713    12.000000000000
         C            1.086580203015    -1.171668415935    -0.025947845713    12.000000000000
         C            1.733237703015     0.012673784065    -0.145090345713    12.000000000000
         H           -2.796405296985    -0.905149215935     1.148987654287     1.007825032230
         H           -2.811909296985     0.851748784065     1.157966654287     1.007825032230
         H           -0.834857296985    -2.165657215935     0.331573654287     1.007825032230
         H           -0.882580296985     2.143540784065     0.335843654287     1.007825032230
         H           -3.026719296985     0.865150784065    -1.352120345713     1.007825032230
         H           -4.361027296985    -0.031537215935    -0.604669345713     1.007825032230
         H           -3.011269296985    -0.900237215935    -1.358021345713     1.007825032230
         H            2.803816703015     0.044655784065    -0.335597345713     1.007825032230
         H            1.155444703015     3.120196784065    -0.029317345713     1.007825032230
         H            2.612074403015    -2.223041315935    -0.296013545713     1.007825032230

  Basis Set: AUG-CC-PVTZ
    Blend: AUG-CC-PVTZ
  Basis Set: (AUG-CC-PVTZ AUX)
    Blend: AUG-CC-PVTZ-JKFIT
	 Reference Energy          =    -458.6564196955280295 [Eh]
	 Singles Energy            =      -0.0000000000000000 [Eh]
	 Same-Spin Energy          =      -0.4817925973318914 [Eh]
	 Opposite-Spin Energy      =      -1.5057432366126495 [Eh]
	 Correlation Energy        =      -1.9875358339445408 [Eh]
	 Total Energy              =    -460.6439555294725778 [Eh]

	 ================> DF-SCS-MP2 Energies <==================
	-----------------------------------------------------------
	 SCS Same-Spin Scale       =       0.3333333333333333 [-]
	 SCS Opposite-Spin Scale   =       1.2000000000000000 [-]
	 SCS Same-Spin Energy      =      -0.1605975324439638 [Eh]
	 SCS Opposite-Spin Energy  =      -1.8068918839351793 [Eh]
	 SCS Correlation Energy    =      -1.9674894163791432 [Eh]
	 SCS Total Energy          =    -460.6239091119071531 [Eh]
	-----------------------------------------------------------

  Dipole Moment: [D]
     X:    -0.4538      Y:     1.2608      Z:     0.0026     Total:     1.3400

*** Psi4 exiting successfully. Buy a developer a beer!
