                               Psi4 1.3.2 release

  ==> Input File <==

--------------------------------------------------------------------------
#psi4
#
memory 32 gb

molecule  {
0 1
  O        1.7627890     2.3683800    -0.1458810
  O        1.6754140    -2.4069960    -0.1279020
  C       -1.0215720    -0.0077180     0.3641480
  C       -2.5139530    -0.0194410     0.5634370
  C       -0.3230660    -1.2073880     0.2343750
  C       -0.3859964     1.1185117     0.2441142
  C       -3.2735700    -0.0197480    -0.7643280
  C        1.0346870     1.2106680    -0.0181020
  C        1.0480560    -1.1910380    -0.0190010
  C        1.7368580     0.0147850    -0.1457440
  H       -2.7927850    -0.9030380     1.1483340
  H       -2.8082890     0.8538600     1.1573130
  H       -0.8312370    -2.1635460     0.3309200
  H       -0.8789600     2.1456520     0.3351900
  H       -3.0230990     0.8672620    -1.3527740
  H       -4.3574070    -0.0294260    -0.6053230
  H       -3.0076490    -0.8981260    -1.3586750
  H        2.8074370     0.0467670    -0.3362510
  H        1.1590650     3.1223080    -0.0299710
  H        2.6215300    -2.2543830    -0.2976190
units angstrom
no_reorient  #important for SAPT in psi4, default
symmetry c1  #important for SAPT in psi4, default
}

set PROPERTIES_ORIGIN ["COM"]
properties('MP2/aug-cc-pvtz', properties = ['dipole'])
--------------------------------------------------------------------------

    Molecular point group: c1
  Charge       = 0
  Multiplicity = 1
  Basis Set: AUG-CC-PVTZ
    Blend: AUG-CC-PVTZ
  Basis Set: (AUG-CC-PVTZ AUX)
    Blend: AUG-CC-PVTZ-JKFIT

    Orbital Energies [Eh]
    ---------------------

    Doubly Occupied:

       1A    -20.603550     2A    -20.591648     3A    -11.317307
       4A    -11.306186     5A    -11.236844     6A    -11.230269
       7A    -11.225023     8A    -11.224825     9A    -11.218487
      10A    -11.212456    11A     -1.409442    12A     -1.400669
      13A     -1.159653    14A     -1.065486    15A     -0.996269
      16A     -0.992755    17A     -0.871788    18A     -0.840220
      19A     -0.808214    20A     -0.747146    21A     -0.685565
      22A     -0.676457    23A     -0.658485    24A     -0.613650
      25A     -0.603404    26A     -0.596330    27A     -0.586008
      28A     -0.577201    29A     -0.557801    30A     -0.548834
      31A     -0.522690    32A     -0.515600    33A     -0.488074
      34A     -0.473117    35A     -0.459378    36A     -0.336488
      37A     -0.304311

  @DF-RHF Final Energy:  -458.64543474239701

   => Energetics <=

    Nuclear Repulsion Energy =            508.5067109122304032
    One-Electron Energy =               -1632.9810412444253416
    Two-Electron Energy =                 665.8288955897979804
    Total Energy =                       -458.6454347423970148
  Basis Set: (AUG-CC-PVTZ AUX)
    Blend: AUG-CC-PVTZ-RI
    Molecular point group: c1

    Geometry (in Angstrom), charge = 0, multiplicity = 1:

       Center              X                  Y                   Z               Mass
    ------------   -----------------  -----------------  -----------------  -----------------
         O            1.767042368253     2.375916777100    -0.146684258511    15.994914619570
         O            1.679667368253    -2.399459222900    -0.128705258511    15.994914619570
         C           -1.017318631747    -0.000181222900     0.363344741489    12.000000000000
         C           -2.509699631747    -0.011904222900     0.562633741489    12.000000000000
         C           -0.318812631747    -1.199851222900     0.233571741489    12.000000000000
         C           -0.381743031747     1.126048477100     0.243310941489    12.000000000000
         C           -3.269316631747    -0.012211222900    -0.765131258511    12.000000000000
         C            1.038940368253     1.218204777100    -0.018905258511    12.000000000000
         C            1.052309368253    -1.183501222900    -0.019804258511    12.000000000000
         C            1.741111368253     0.022321777100    -0.146547258511    12.000000000000
         H           -2.788531631747    -0.895501222900     1.147530741489     1.007825032230
         H           -2.804035631747     0.861396777100     1.156509741489     1.007825032230
         H           -0.826983631747    -2.156009222900     0.330116741489     1.007825032230
         H           -0.874706631747     2.153188777100     0.334386741489     1.007825032230
         H           -3.018845631747     0.874798777100    -1.353577258511     1.007825032230
         H           -4.353153631747    -0.021889222900    -0.606126258511     1.007825032230
         H           -3.003395631747    -0.890589222900    -1.359478258511     1.007825032230
         H            2.811690368253     0.054303777100    -0.337054258511     1.007825032230
         H            1.163318368253     3.129844777100    -0.030774258511     1.007825032230
         H            2.625783368253    -2.246846222900    -0.298422258511     1.007825032230

  Basis Set: AUG-CC-PVTZ
    Blend: AUG-CC-PVTZ
  Basis Set: (AUG-CC-PVTZ AUX)
    Blend: AUG-CC-PVTZ-JKFIT
	 Reference Energy          =    -458.6454347423970148 [Eh]
	 Singles Energy            =      -0.0000000000000000 [Eh]
	 Same-Spin Energy          =      -0.4821166488195101 [Eh]
	 Opposite-Spin Energy      =      -1.5061419296256495 [Eh]
	 Correlation Energy        =      -1.9882585784451596 [Eh]
	 Total Energy              =    -460.6336933208421556 [Eh]

	 ================> DF-SCS-MP2 Energies <==================
	-----------------------------------------------------------
	 SCS Same-Spin Scale       =       0.3333333333333333 [-]
	 SCS Opposite-Spin Scale   =       1.2000000000000000 [-]
	 SCS Same-Spin Energy      =      -0.1607055496065034 [Eh]
	 SCS Opposite-Spin Energy  =      -1.8073703155507794 [Eh]
	 SCS Correlation Energy    =      -1.9680758651572827 [Eh]
	 SCS Total Energy          =    -460.6135106075543035 [Eh]
	-----------------------------------------------------------

  Dipole Moment: [D]
     X:    -0.4040      Y:     1.3642      Z:    -0.0043     Total:     1.4228

*** Psi4 exiting successfully. Buy a developer a beer!
