                               Psi4 1.3.2 release

  ==> Input File <==

--------------------------------------------------------------------------
#psi4
#
memory 32 gb

molecule  {
0 1
  O        1.7627890     2.3683800    -0.1458810
  O        1.6120079    -2.4386515    -0.1160073
  C       -1.0215720    -0.0077180     0.3641480
  C       -2.5139530    -0.0194410     0.5634370
  C       -0.3202705    -1.2803384     0.2342779
  C       -0.3370590     1.2052280     0.2348720
  C       -3.2735700    -0.0197480    -0.7643280
  C        1.0346870     1.2106680    -0.0181020
  C        1.0480560    -1.1910380    -0.0190010
  C        1.7368580     0.0147850    -0.1457440
  H       -2.7927850    -0.9030380     1.1483340
  H       -2.8082890     0.8538600     1.1573130
  H       -0.8312370    -2.1635460     0.3309200
  H       -0.8789600     2.1456520     0.3351900
  H       -3.0230990     0.8672620    -1.3527740
  H       -4.3574070    -0.0294260    -0.6053230
  H       -3.0076490    -0.8981260    -1.3586750
  H        2.8074370     0.0467670    -0.3362510
  H        1.1590650     3.1223080    -0.0299710
  H        2.6215300    -2.2543830    -0.2976190
units angstrom
no_reorient  #important for SAPT in psi4, default
symmetry c1  #important for SAPT in psi4, default
}

set PROPERTIES_ORIGIN ["COM"]
properties('MP2/aug-cc-pvtz', properties = ['dipole'])
--------------------------------------------------------------------------

    Molecular point group: c1
  Charge       = 0
  Multiplicity = 1
  Basis Set: AUG-CC-PVTZ
    Blend: AUG-CC-PVTZ
  Basis Set: (AUG-CC-PVTZ AUX)
    Blend: AUG-CC-PVTZ-JKFIT

    Orbital Energies [Eh]
    ---------------------

    Doubly Occupied:

       1A    -20.597799     2A    -20.597565     3A    -11.313498
       4A    -11.307333     5A    -11.258357     6A    -11.231621
       7A    -11.225336     8A    -11.224062     9A    -11.219678
      10A    -11.213727    11A     -1.406812    12A     -1.391097
      13A     -1.142865    14A     -1.062728    15A     -0.999483
      16A     -0.985730    17A     -0.876320    18A     -0.837195
      19A     -0.797444    20A     -0.734959    21A     -0.692150
      22A     -0.677234    23A     -0.653278    24A     -0.611184
      25A     -0.601704    26A     -0.595162    27A     -0.591030
      28A     -0.575851    29A     -0.550721    30A     -0.547396
      31A     -0.532261    32A     -0.521405    33A     -0.486871
      34A     -0.478418    35A     -0.449629    36A     -0.324342
      37A     -0.308866

  @DF-RHF Final Energy:  -458.64186318292639

   => Energetics <=

    Nuclear Repulsion Energy =            506.2930169958913780
    One-Electron Energy =               -1628.6275397068322945
    Two-Electron Energy =                 663.6926595280145875
    Total Energy =                       -458.6418631829263859
  Basis Set: (AUG-CC-PVTZ AUX)
    Blend: AUG-CC-PVTZ-RI
    Molecular point group: c1

    Geometry (in Angstrom), charge = 0, multiplicity = 1:

       Center              X                  Y                   Z               Mass
    ------------   -----------------  -----------------  -----------------  -----------------
         O            1.769891544957     2.378387559781    -0.147250523437    15.994914619570
         O            1.619110444957    -2.428643940219    -0.117376823437    15.994914619570
         C           -1.014469455043     0.002289559781     0.362778476563    12.000000000000
         C           -2.506850455043    -0.009433440219     0.562067476563    12.000000000000
         C           -0.313167955043    -1.270330840219     0.232908376563    12.000000000000
         C           -0.329956455043     1.215235559781     0.233502476563    12.000000000000
         C           -3.266467455043    -0.009740440219    -0.765697523437    12.000000000000
         C            1.041789544957     1.220675559781    -0.019471523437    12.000000000000
         C            1.055158544957    -1.181030440219    -0.020370523437    12.000000000000
         C            1.743960544957     0.024792559781    -0.147113523437    12.000000000000
         H           -2.785682455043    -0.893030440219     1.146964476563     1.007825032230
         H           -2.801186455043     0.863867559781     1.155943476563     1.007825032230
         H           -0.824134455043    -2.153538440219     0.329550476563     1.007825032230
         H           -0.871857455043     2.155659559781     0.333820476563     1.007825032230
         H           -3.015996455043     0.877269559781    -1.354143523437     1.007825032230
         H           -4.350304455043    -0.019418440219    -0.606692523437     1.007825032230
         H           -3.000546455043    -0.888118440219    -1.360044523437     1.007825032230
         H            2.814539544957     0.056774559781    -0.337620523437     1.007825032230
         H            1.166167544957     3.132315559781    -0.031340523437     1.007825032230
         H            2.628632544957    -2.244375440219    -0.298988523437     1.007825032230

  Basis Set: AUG-CC-PVTZ
    Blend: AUG-CC-PVTZ
  Basis Set: (AUG-CC-PVTZ AUX)
    Blend: AUG-CC-PVTZ-JKFIT
	 Reference Energy          =    -458.6418631829263859 [Eh]
	 Singles Energy            =      -0.0000000000000000 [Eh]
	 Same-Spin Energy          =      -0.4828157249141342 [Eh]
	 Opposite-Spin Energy      =      -1.5085065628197629 [Eh]
	 Correlation Energy        =      -1.9913222877338970 [Eh]
	 Total Energy              =    -460.6331854706602940 [Eh]

	 ================> DF-SCS-MP2 Energies <==================
	-----------------------------------------------------------
	 SCS Same-Spin Scale       =       0.3333333333333333 [-]
	 SCS Opposite-Spin Scale   =       1.2000000000000000 [-]
	 SCS Same-Spin Energy      =      -0.1609385749713780 [Eh]
	 SCS Opposite-Spin Energy  =      -1.8102078753837154 [Eh]
	 SCS Correlation Energy    =      -1.9711464503550935 [Eh]
	 SCS Total Energy          =    -460.6130096332814787 [Eh]
	-----------------------------------------------------------

  Dipole Moment: [D]
     X:    -0.4367      Y:     1.2827      Z:     0.0005     Total:     1.3550

*** Psi4 exiting successfully. Buy a developer a beer!
