                               Psi4 1.3.2 release

  ==> Input File <==

--------------------------------------------------------------------------
#psi4
#
memory 32 gb

molecule  {
0 1
  O        1.7627890     2.3683800    -0.1458810
  O        1.6754140    -2.4069960    -0.1279020
  C       -1.0215720    -0.0077180     0.3641480
  C       -2.5139530    -0.0194410     0.5634370
  C       -0.3227879    -1.1587164     0.2343457
  C       -0.3370590     1.2052280     0.2348720
  C       -3.2735700    -0.0197480    -0.7643280
  C        1.0346870     1.2106680    -0.0181020
  C        1.0480560    -1.1910380    -0.0190010
  C        1.6950585     0.0384928    -0.1380087
  H       -2.7927850    -0.9030380     1.1483340
  H       -2.8082890     0.8538600     1.1573130
  H       -0.8312370    -2.1635460     0.3309200
  H       -0.8789600     2.1456520     0.3351900
  H       -3.0230990     0.8672620    -1.3527740
  H       -4.3574070    -0.0294260    -0.6053230
  H       -3.0076490    -0.8981260    -1.3586750
  H        2.8074370     0.0467670    -0.3362510
  H        1.1590650     3.1223080    -0.0299710
  H        2.6215300    -2.2543830    -0.2976190
units angstrom
no_reorient  #important for SAPT in psi4, default
symmetry c1  #important for SAPT in psi4, default
}

set PROPERTIES_ORIGIN ["COM"]
properties('MP2/aug-cc-pvtz', properties = ['dipole'])
--------------------------------------------------------------------------

    Molecular point group: c1
  Charge       = 0
  Multiplicity = 1
  Basis Set: AUG-CC-PVTZ
    Blend: AUG-CC-PVTZ
  Basis Set: (AUG-CC-PVTZ AUX)
    Blend: AUG-CC-PVTZ-JKFIT

    Orbital Energies [Eh]
    ---------------------

    Doubly Occupied:

       1A    -20.598561     2A    -20.593816     3A    -11.309742
       4A    -11.303447     5A    -11.244604     6A    -11.231723
       7A    -11.224382     8A    -11.221727     9A    -11.219219
      10A    -11.216472    11A     -1.406116    12A     -1.402715
      13A     -1.159048    14A     -1.067538    15A     -1.003368
      16A     -0.989494    17A     -0.875666    18A     -0.839413
      19A     -0.809619    20A     -0.740290    21A     -0.690707
      22A     -0.676606    23A     -0.660328    24A     -0.612352
      25A     -0.603651    26A     -0.595672    27A     -0.585913
      28A     -0.577766    29A     -0.554841    30A     -0.545017
      31A     -0.524704    32A     -0.514494    33A     -0.488614
      34A     -0.476624    35A     -0.459322    36A     -0.331944
      37A     -0.310976

  @DF-RHF Final Energy:  -458.65312911671100

   => Energetics <=

    Nuclear Repulsion Energy =            509.0273632576569298
    One-Electron Energy =               -1634.0279999054887412
    Two-Electron Energy =                 666.3475075311209821
    Total Energy =                       -458.6531291167109430
  Basis Set: (AUG-CC-PVTZ AUX)
    Blend: AUG-CC-PVTZ-RI
    Molecular point group: c1

    Geometry (in Angstrom), charge = 0, multiplicity = 1:

       Center              X                  Y                   Z               Mass
    ------------   -----------------  -----------------  -----------------  -----------------
         O            1.766397816665     2.362089189970    -0.146550741770    15.994914619570
         O            1.679022816665    -2.413286810030    -0.128571741770    15.994914619570
         C           -1.017963183335    -0.014008810030     0.363478258230    12.000000000000
         C           -2.510344183335    -0.025731810030     0.562767258230    12.000000000000
         C           -0.319179083335    -1.165007210030     0.233675958230    12.000000000000
         C           -0.333450183335     1.198937189970     0.234202258230    12.000000000000
         C           -3.269961183335    -0.026038810030    -0.764997741770    12.000000000000
         C            1.038295816665     1.204377189970    -0.018771741770    12.000000000000
         C            1.051664816665    -1.197328810030    -0.019670741770    12.000000000000
         C            1.698667316665     0.032201989970    -0.138678441770    12.000000000000
         H           -2.789176183335    -0.909328810030     1.147664258230     1.007825032230
         H           -2.804680183335     0.847569189970     1.156643258230     1.007825032230
         H           -0.827628183335    -2.169836810030     0.330250258230     1.007825032230
         H           -0.875351183335     2.139361189970     0.334520258230     1.007825032230
         H           -3.019490183335     0.860971189970    -1.353443741770     1.007825032230
         H           -4.353798183335    -0.035716810030    -0.605992741770     1.007825032230
         H           -3.004040183335    -0.904416810030    -1.359344741770     1.007825032230
         H            2.811045816665     0.040476189970    -0.336920741770     1.007825032230
         H            1.162673816665     3.116017189970    -0.030640741770     1.007825032230
         H            2.625138816665    -2.260673810030    -0.298288741770     1.007825032230

  Basis Set: AUG-CC-PVTZ
    Blend: AUG-CC-PVTZ
  Basis Set: (AUG-CC-PVTZ AUX)
    Blend: AUG-CC-PVTZ-JKFIT
	 Reference Energy          =    -458.6531291167109998 [Eh]
	 Singles Energy            =      -0.0000000000000000 [Eh]
	 Same-Spin Energy          =      -0.4822973086472692 [Eh]
	 Opposite-Spin Energy      =      -1.5057361763021735 [Eh]
	 Correlation Energy        =      -1.9880334849494425 [Eh]
	 Total Energy              =    -460.6411626016604259 [Eh]

	 ================> DF-SCS-MP2 Energies <==================
	-----------------------------------------------------------
	 SCS Same-Spin Scale       =       0.3333333333333333 [-]
	 SCS Opposite-Spin Scale   =       1.2000000000000000 [-]
	 SCS Same-Spin Energy      =      -0.1607657695490897 [Eh]
	 SCS Opposite-Spin Energy  =      -1.8068834115626080 [Eh]
	 SCS Correlation Energy    =      -1.9676491811116978 [Eh]
	 SCS Total Energy          =    -460.6207782978227101 [Eh]
	-----------------------------------------------------------

  Dipole Moment: [D]
     X:    -0.4764      Y:     1.1344      Z:     0.0057     Total:     1.2304

*** Psi4 exiting successfully. Buy a developer a beer!
