                               Psi4 1.3.2 release

  ==> Input File <==

--------------------------------------------------------------------------
#psi4
#
memory 32 gb

molecule  {
0 1
  O        1.7627890     2.3683800    -0.1458810
  O        1.6858324    -2.4013933    -0.1297834
  C       -1.0215720    -0.0077180     0.3641480
  C       -2.5139530    -0.0194410     0.5634370
  C       -0.3230660    -1.2073880     0.2343750
  C       -0.3370590     1.2052280     0.2348720
  C       -3.2735700    -0.0197480    -0.7643280
  C        1.0346870     1.2106680    -0.0181020
  C        1.0480560    -1.1910380    -0.0190010
  C        1.7471927     0.0086274    -0.1475772
  H       -2.7927850    -0.9030380     1.1483340
  H       -2.8082890     0.8538600     1.1573130
  H       -0.8312370    -2.1635460     0.3309200
  H       -0.8789600     2.1456520     0.3351900
  H       -3.0230990     0.8672620    -1.3527740
  H       -4.3574070    -0.0294260    -0.6053230
  H       -3.0076490    -0.8981260    -1.3586750
  H        2.8074370     0.0467670    -0.3362510
  H        1.1590650     3.1223080    -0.0299710
  H        2.6215300    -2.2543830    -0.2976190
units angstrom
no_reorient  #important for SAPT in psi4, default
symmetry c1  #important for SAPT in psi4, default
}

set PROPERTIES_ORIGIN ["COM"]
properties('MP2/aug-cc-pvtz', properties = ['dipole'])
--------------------------------------------------------------------------

    Molecular point group: c1
  Charge       = 0
  Multiplicity = 1
  Basis Set: AUG-CC-PVTZ
    Blend: AUG-CC-PVTZ
  Basis Set: (AUG-CC-PVTZ AUX)
    Blend: AUG-CC-PVTZ-JKFIT

    Orbital Energies [Eh]
    ---------------------

    Doubly Occupied:

       1A    -20.595896     2A    -20.591187     3A    -11.311812
       4A    -11.309001     5A    -11.251890     6A    -11.232340
       7A    -11.223717     8A    -11.222864     9A    -11.219906
      10A    -11.216299    11A     -1.405794    12A     -1.402970
      13A     -1.149855    14A     -1.063502    15A     -1.001411
      16A     -0.988040    17A     -0.877155    18A     -0.836573
      19A     -0.809268    20A     -0.740773    21A     -0.687441
      22A     -0.675921    23A     -0.667488    24A     -0.612137
      25A     -0.602286    26A     -0.595570    27A     -0.587358
      28A     -0.576295    29A     -0.553563    30A     -0.549399
      31A     -0.523253    32A     -0.520740    33A     -0.488046
      34A     -0.483434    35A     -0.453513    36A     -0.325312
      37A     -0.311398

  @DF-RHF Final Energy:  -458.66071565233784

   => Energetics <=

    Nuclear Repulsion Energy =            507.3542430694944301
    One-Electron Energy =               -1630.7030965347269102
    Two-Electron Energy =                 664.6881378128946380
    Total Energy =                       -458.6607156523377853
  Basis Set: (AUG-CC-PVTZ AUX)
    Blend: AUG-CC-PVTZ-RI
    Molecular point group: c1

    Geometry (in Angstrom), charge = 0, multiplicity = 1:

       Center              X                  Y                   Z               Mass
    ------------   -----------------  -----------------  -----------------  -----------------
         O            1.760683862933     2.368266065136    -0.145503698653    15.994914619570
         O            1.683727262933    -2.401507234864    -0.129406098653    15.994914619570
         C           -1.023677137067    -0.007831934864     0.364525301347    12.000000000000
         C           -2.516058137067    -0.019554934864     0.563814301347    12.000000000000
         C           -0.325171137067    -1.207501934864     0.234752301347    12.000000000000
         C           -0.339164137067     1.205114065136     0.235249301347    12.000000000000
         C           -3.275675137067    -0.019861934864    -0.763950698653    12.000000000000
         C            1.032581862933     1.210554065136    -0.017724698653    12.000000000000
         C            1.045950862933    -1.191151934864    -0.018623698653    12.000000000000
         C            1.745087562933     0.008513465136    -0.147199898653    12.000000000000
         H           -2.794890137067    -0.903151934864     1.148711301347     1.007825032230
         H           -2.810394137067     0.853746065136     1.157690301347     1.007825032230
         H           -0.833342137067    -2.163659934864     0.331297301347     1.007825032230
         H           -0.881065137067     2.145538065136     0.335567301347     1.007825032230
         H           -3.025204137067     0.867148065136    -1.352396698653     1.007825032230
         H           -4.359512137067    -0.029539934864    -0.604945698653     1.007825032230
         H           -3.009754137067    -0.898239934864    -1.358297698653     1.007825032230
         H            2.805331862933     0.046653065136    -0.335873698653     1.007825032230
         H            1.156959862933     3.122194065136    -0.029593698653     1.007825032230
         H            2.619424862933    -2.254496934864    -0.297241698653     1.007825032230

  Basis Set: AUG-CC-PVTZ
    Blend: AUG-CC-PVTZ
  Basis Set: (AUG-CC-PVTZ AUX)
    Blend: AUG-CC-PVTZ-JKFIT
	 Reference Energy          =    -458.6607156523378421 [Eh]
	 Singles Energy            =      -0.0000000000000000 [Eh]
	 Same-Spin Energy          =      -0.4814915848949588 [Eh]
	 Opposite-Spin Energy      =      -1.5047600144690401 [Eh]
	 Correlation Energy        =      -1.9862515993639989 [Eh]
	 Total Energy              =    -460.6469672517018239 [Eh]

	 ================> DF-SCS-MP2 Energies <==================
	-----------------------------------------------------------
	 SCS Same-Spin Scale       =       0.3333333333333333 [-]
	 SCS Opposite-Spin Scale   =       1.2000000000000000 [-]
	 SCS Same-Spin Energy      =      -0.1604971949649863 [Eh]
	 SCS Opposite-Spin Energy  =      -1.8057120173628480 [Eh]
	 SCS Correlation Energy    =      -1.9662092123278343 [Eh]
	 SCS Total Energy          =    -460.6269248646656820 [Eh]
	-----------------------------------------------------------

  Dipole Moment: [D]
     X:    -0.5166      Y:     1.2367      Z:     0.0119     Total:     1.3403

*** Psi4 exiting successfully. Buy a developer a beer!
