                               Psi4 1.3.2 release

  ==> Input File <==

--------------------------------------------------------------------------
#psi4
#
memory 32 gb

molecule  {
0 1
  O        1.7627890     2.3683800    -0.1458810
  O        1.7371006    -2.3720077    -0.1394982
  C       -1.0215720    -0.0077180     0.3641480
  C       -2.5139530    -0.0194410     0.5634370
  C       -0.3221033    -1.1343928     0.2337776
  C       -0.3370590     1.2052280     0.2348720
  C       -3.2735700    -0.0197480    -0.7643280
  C        1.0346870     1.2106680    -0.0181020
  C        1.0480560    -1.1910380    -0.0190010
  C        1.7368580     0.0147850    -0.1457440
  H       -2.7927850    -0.9030380     1.1483340
  H       -2.8082890     0.8538600     1.1573130
  H       -0.8312370    -2.1635460     0.3309200
  H       -0.8789600     2.1456520     0.3351900
  H       -3.0230990     0.8672620    -1.3527740
  H       -4.3574070    -0.0294260    -0.6053230
  H       -3.0076490    -0.8981260    -1.3586750
  H        2.8074370     0.0467670    -0.3362510
  H        1.1590650     3.1223080    -0.0299710
  H        2.6215300    -2.2543830    -0.2976190
units angstrom
no_reorient  #important for SAPT in psi4, default
symmetry c1  #important for SAPT in psi4, default
}

set PROPERTIES_ORIGIN ["COM"]
properties('MP2/aug-cc-pvtz', properties = ['dipole'])
--------------------------------------------------------------------------

    Molecular point group: c1
  Charge       = 0
  Multiplicity = 1
  Basis Set: AUG-CC-PVTZ
    Blend: AUG-CC-PVTZ
  Basis Set: (AUG-CC-PVTZ AUX)
    Blend: AUG-CC-PVTZ-JKFIT

    Orbital Energies [Eh]
    ---------------------

    Doubly Occupied:

       1A    -20.593902     2A    -20.587992     3A    -11.311610
       4A    -11.307852     5A    -11.243912     6A    -11.232821
       7A    -11.223042     8A    -11.221813     9A    -11.219916
      10A    -11.219052    11A     -1.416676    12A     -1.402997
      13A     -1.159786    14A     -1.066070    15A     -1.003221
      16A     -0.991524    17A     -0.878131    18A     -0.843304
      19A     -0.814367    20A     -0.747334    21A     -0.688374
      22A     -0.684447    23A     -0.664175    24A     -0.613990
      25A     -0.603417    26A     -0.598067    27A     -0.581682
      28A     -0.577260    29A     -0.555227    30A     -0.549399
      31A     -0.524469    32A     -0.510310    33A     -0.490376
      34A     -0.477563    35A     -0.459462    36A     -0.329774
      37A     -0.312197

  @DF-RHF Final Energy:  -458.65109871159569

   => Energetics <=

    Nuclear Repulsion Energy =            508.9039798105185923
    One-Electron Energy =               -1633.6991294809722604
    Two-Electron Energy =                 666.1440509588579744
    Total Energy =                       -458.6510987115956368
  Basis Set: (AUG-CC-PVTZ AUX)
    Blend: AUG-CC-PVTZ-RI
    Molecular point group: c1

    Geometry (in Angstrom), charge = 0, multiplicity = 1:

       Center              X                  Y                   Z               Mass
    ------------   -----------------  -----------------  -----------------  -----------------
         O            1.755559097789     2.357982343022    -0.144485666122    15.994914619570
         O            1.729870697789    -2.382405356978    -0.138102866122    15.994914619570
         C           -1.028801902211    -0.018115656978     0.365543333878    12.000000000000
         C           -2.521182902211    -0.029838656978     0.564832333878    12.000000000000
         C           -0.329333202211    -1.144790456978     0.235172933878    12.000000000000
         C           -0.344288902211     1.194830343022     0.236267333878    12.000000000000
         C           -3.280799902211    -0.030145656978    -0.762932666122    12.000000000000
         C            1.027457097789     1.200270343022    -0.016706666122    12.000000000000
         C            1.040826097789    -1.201435656978    -0.017605666122    12.000000000000
         C            1.729628097789     0.004387343022    -0.144348666122    12.000000000000
         H           -2.800014902211    -0.913435656978     1.149729333878     1.007825032230
         H           -2.815518902211     0.843462343022     1.158708333878     1.007825032230
         H           -0.838466902211    -2.173943656978     0.332315333878     1.007825032230
         H           -0.886189902211     2.135254343022     0.336585333878     1.007825032230
         H           -3.030328902211     0.856864343022    -1.351378666122     1.007825032230
         H           -4.364636902211    -0.039823656978    -0.603927666122     1.007825032230
         H           -3.014878902211    -0.908523656978    -1.357279666122     1.007825032230
         H            2.800207097789     0.036369343022    -0.334855666122     1.007825032230
         H            1.151835097789     3.111910343022    -0.028575666122     1.007825032230
         H            2.614300097789    -2.264780656978    -0.296223666122     1.007825032230

  Basis Set: AUG-CC-PVTZ
    Blend: AUG-CC-PVTZ
  Basis Set: (AUG-CC-PVTZ AUX)
    Blend: AUG-CC-PVTZ-JKFIT
	 Reference Energy          =    -458.6510987115956937 [Eh]
	 Singles Energy            =      -0.0000000000000000 [Eh]
	 Same-Spin Energy          =      -0.4811065714598929 [Eh]
	 Opposite-Spin Energy      =      -1.5033080538870889 [Eh]
	 Correlation Energy        =      -1.9844146253469819 [Eh]
	 Total Energy              =    -460.6355133369426653 [Eh]

	 ================> DF-SCS-MP2 Energies <==================
	-----------------------------------------------------------
	 SCS Same-Spin Scale       =       0.3333333333333333 [-]
	 SCS Opposite-Spin Scale   =       1.2000000000000000 [-]
	 SCS Same-Spin Energy      =      -0.1603688571532976 [Eh]
	 SCS Opposite-Spin Energy  =      -1.8039696646645065 [Eh]
	 SCS Correlation Energy    =      -1.9643385218178042 [Eh]
	 SCS Total Energy          =    -460.6154372334135019 [Eh]
	-----------------------------------------------------------

  Dipole Moment: [D]
     X:    -0.5694      Y:     1.1894      Z:     0.0188     Total:     1.3188

*** Psi4 exiting successfully. Buy a developer a beer!
