                               Psi4 1.3.2 release

  ==> Input File <==

--------------------------------------------------------------------------
#psi4
#
memory 32 gb

molecule  {
0 1
  O        1.7627890     2.3683800    -0.1458810
  O        1.6754140    -2.4069960    -0.1279020
  C       -1.0215720    -0.0077180     0.3641480
  C       -2.5134149    -0.0457034     0.5641888
  C       -0.3230660    -1.2073880     0.2343750
  C       -0.3161200     1.1929094     0.2324673
  C       -3.2735700    -0.0197480    -0.7643280
  C        1.0346870     1.2106680    -0.0181020
  C        1.0480560    -1.1910380    -0.0190010
  C        1.7368580     0.0147850    -0.1457440
  H       -2.7927850    -0.9030380     1.1483340
  H       -2.8082890     0.8538600     1.1573130
  H       -0.8312370    -2.1635460     0.3309200
  H       -0.8789600     2.1456520     0.3351900
  H       -3.0230990     0.8672620    -1.3527740
  H       -4.3574070    -0.0294260    -0.6053230
  H       -3.0076490    -0.8981260    -1.3586750
  H        2.8074370     0.0467670    -0.3362510
  H        1.1590650     3.1223080    -0.0299710
  H        2.6215300    -2.2543830    -0.2976190
units angstrom
no_reorient  #important for SAPT in psi4, default
symmetry c1  #important for SAPT in psi4, default
}

set PROPERTIES_ORIGIN ["COM"]
properties('MP2/aug-cc-pvtz', properties = ['dipole'])
--------------------------------------------------------------------------

    Molecular point group: c1
  Charge       = 0
  Multiplicity = 1
  Basis Set: AUG-CC-PVTZ
    Blend: AUG-CC-PVTZ
  Basis Set: (AUG-CC-PVTZ AUX)
    Blend: AUG-CC-PVTZ-JKFIT

    Orbital Energies [Eh]
    ---------------------

    Doubly Occupied:

       1A    -20.595227     2A    -20.592780     3A    -11.307972
       4A    -11.307698     5A    -11.251547     6A    -11.233117
       7A    -11.223746     8A    -11.222929     9A    -11.220271
      10A    -11.216137    11A     -1.405090    12A     -1.401416
      13A     -1.152229    14A     -1.064460    15A     -1.003117
      16A     -0.988049    17A     -0.877893    18A     -0.835126
      19A     -0.809245    20A     -0.742057    21A     -0.686674
      22A     -0.674999    23A     -0.663235    24A     -0.614658
      25A     -0.602436    26A     -0.593351    27A     -0.588273
      28A     -0.576393    29A     -0.551927    30A     -0.549031
      31A     -0.523363    32A     -0.518544    33A     -0.490108
      34A     -0.482421    35A     -0.454928    36A     -0.325095
      37A     -0.313320

  @DF-RHF Final Energy:  -458.65859390248733

   => Energetics <=

    Nuclear Repulsion Energy =            507.8458500507173312
    One-Electron Energy =               -1631.6911653685388046
    Two-Electron Energy =                 665.1867214153342047
    Total Energy =                       -458.6585939024873824
  Basis Set: (AUG-CC-PVTZ AUX)
    Blend: AUG-CC-PVTZ-RI
    Molecular point group: c1

    Geometry (in Angstrom), charge = 0, multiplicity = 1:

       Center              X                  Y                   Z               Mass
    ------------   -----------------  -----------------  -----------------  -----------------
         O            1.760922387425     2.371733162743    -0.145737325661    15.994914619570
         O            1.673547387425    -2.403642837257    -0.127758325661    15.994914619570
         C           -1.023438612575    -0.004364837257     0.364291674339    12.000000000000
         C           -2.515281512575    -0.042350237257     0.564332474339    12.000000000000
         C           -0.324932612575    -1.204034837257     0.234518674339    12.000000000000
         C           -0.317986612575     1.196262562743     0.232610974339    12.000000000000
         C           -3.275436612575    -0.016394837257    -0.764184325661    12.000000000000
         C            1.032820387425     1.214021162743    -0.017958325661    12.000000000000
         C            1.046189387425    -1.187684837257    -0.018857325661    12.000000000000
         C            1.734991387425     0.018138162743    -0.145600325661    12.000000000000
         H           -2.794651612575    -0.899684837257     1.148477674339     1.007825032230
         H           -2.810155612575     0.857213162743     1.157456674339     1.007825032230
         H           -0.833103612575    -2.160192837257     0.331063674339     1.007825032230
         H           -0.880826612575     2.149005162743     0.335333674339     1.007825032230
         H           -3.024965612575     0.870615162743    -1.352630325661     1.007825032230
         H           -4.359273612575    -0.026072837257    -0.605179325661     1.007825032230
         H           -3.009515612575    -0.894772837257    -1.358531325661     1.007825032230
         H            2.805570387425     0.050120162743    -0.336107325661     1.007825032230
         H            1.157198387425     3.125661162743    -0.029827325661     1.007825032230
         H            2.619663387425    -2.251029837257    -0.297475325661     1.007825032230

  Basis Set: AUG-CC-PVTZ
    Blend: AUG-CC-PVTZ
  Basis Set: (AUG-CC-PVTZ AUX)
    Blend: AUG-CC-PVTZ-JKFIT
	 Reference Energy          =    -458.6585939024873255 [Eh]
	 Singles Energy            =      -0.0000000000000000 [Eh]
	 Same-Spin Energy          =      -0.4818328023029880 [Eh]
	 Opposite-Spin Energy      =      -1.5052880035969816 [Eh]
	 Correlation Energy        =      -1.9871208058999694 [Eh]
	 Total Energy              =    -460.6457147083872883 [Eh]

	 ================> DF-SCS-MP2 Energies <==================
	-----------------------------------------------------------
	 SCS Same-Spin Scale       =       0.3333333333333333 [-]
	 SCS Opposite-Spin Scale   =       1.2000000000000000 [-]
	 SCS Same-Spin Energy      =      -0.1606109341009960 [Eh]
	 SCS Opposite-Spin Energy  =      -1.8063456043163777 [Eh]
	 SCS Correlation Energy    =      -1.9669565384173737 [Eh]
	 SCS Total Energy          =    -460.6255504409047035 [Eh]
	-----------------------------------------------------------

  Dipole Moment: [D]
     X:    -0.5312      Y:     1.1824      Z:     0.0101     Total:     1.2963

*** Psi4 exiting successfully. Buy a developer a beer!
