                               Psi4 1.3.2 release

  ==> Input File <==

--------------------------------------------------------------------------
#psi4
#
memory 32 gb

molecule  {
0 1
  O        1.7627890     2.3683800    -0.1458810
  O        1.6754140    -2.4069960    -0.1279020
  C       -1.0215720    -0.0077180     0.3641480
  C       -2.5137408    -0.0325731     0.5638205
  C       -0.3230660    -1.2073880     0.2343750
  C       -0.3265631     1.1991146     0.2336647
  C       -3.2735700    -0.0197480    -0.7643280
  C        1.0346870     1.2106680    -0.0181020
  C        1.0480560    -1.1910380    -0.0190010
  C        1.7368580     0.0147850    -0.1457440
  H       -2.7927850    -0.9030380     1.1483340
  H       -2.8082890     0.8538600     1.1573130
  H       -0.8312370    -2.1635460     0.3309200
  H       -0.8789600     2.1456520     0.3351900
  H       -3.0230990     0.8672620    -1.3527740
  H       -4.3574070    -0.0294260    -0.6053230
  H       -3.0076490    -0.8981260    -1.3586750
  H        2.8074370     0.0467670    -0.3362510
  H        1.1590650     3.1223080    -0.0299710
  H        2.6215300    -2.2543830    -0.2976190
units angstrom
no_reorient  #important for SAPT in psi4, default
symmetry c1  #important for SAPT in psi4, default
}

set PROPERTIES_ORIGIN ["COM"]
properties('MP2/aug-cc-pvtz', properties = ['dipole'])
--------------------------------------------------------------------------

    Molecular point group: c1
  Charge       = 0
  Multiplicity = 1
  Basis Set: AUG-CC-PVTZ
    Blend: AUG-CC-PVTZ
  Basis Set: (AUG-CC-PVTZ AUX)
    Blend: AUG-CC-PVTZ-JKFIT

    Orbital Energies [Eh]
    ---------------------

    Doubly Occupied:

       1A    -20.595459     2A    -20.593044     3A    -11.309108
       4A    -11.308373     5A    -11.251439     6A    -11.232582
       7A    -11.223849     8A    -11.222817     9A    -11.219985
      10A    -11.216028    11A     -1.405237    12A     -1.401636
      13A     -1.151296    14A     -1.064207    15A     -1.002220
      16A     -0.988033    17A     -0.877256    18A     -0.835891
      19A     -0.808647    20A     -0.740934    21A     -0.687102
      22A     -0.675111    23A     -0.664648    24A     -0.613250
      25A     -0.602360    26A     -0.594334    27A     -0.587876
      28A     -0.576429    29A     -0.552320    30A     -0.549060
      31A     -0.522862    32A     -0.520464    33A     -0.488181
      34A     -0.483523    35A     -0.454479    36A     -0.325505
      37A     -0.312315

  @DF-RHF Final Energy:  -458.65981441977272

   => Energetics <=

    Nuclear Repulsion Energy =            507.6741729466606898
    One-Electron Energy =               -1631.3522575213310120
    Two-Electron Energy =                 665.0182701548975501
    Total Energy =                       -458.6598144197727152
  Basis Set: (AUG-CC-PVTZ AUX)
    Blend: AUG-CC-PVTZ-RI
    Molecular point group: c1

    Geometry (in Angstrom), charge = 0, multiplicity = 1:

       Center              X                  Y                   Z               Mass
    ------------   -----------------  -----------------  -----------------  -----------------
         O            1.761858360463     2.370052643967    -0.145809385764    15.994914619570
         O            1.674483360463    -2.405323356033    -0.127830385764    15.994914619570
         C           -1.022502639537    -0.006045356033     0.364219614236    12.000000000000
         C           -2.514671439537    -0.030900456033     0.563892114236    12.000000000000
         C           -0.323996639537    -1.205715356033     0.234446614236    12.000000000000
         C           -0.327493739537     1.200787243967     0.233736314236    12.000000000000
         C           -3.274500639537    -0.018075356033    -0.764256385764    12.000000000000
         C            1.033756360463     1.212340643967    -0.018030385764    12.000000000000
         C            1.047125360463    -1.189365356033    -0.018929385764    12.000000000000
         C            1.735927360463     0.016457643967    -0.145672385764    12.000000000000
         H           -2.793715639537    -0.901365356033     1.148405614236     1.007825032230
         H           -2.809219639537     0.855532643967     1.157384614236     1.007825032230
         H           -0.832167639537    -2.161873356033     0.330991614236     1.007825032230
         H           -0.879890639537     2.147324643967     0.335261614236     1.007825032230
         H           -3.024029639537     0.868934643967    -1.352702385764     1.007825032230
         H           -4.358337639537    -0.027753356033    -0.605251385764     1.007825032230
         H           -3.008579639537    -0.896453356033    -1.358603385764     1.007825032230
         H            2.806506360463     0.048439643967    -0.336179385764     1.007825032230
         H            1.158134360463     3.123980643967    -0.029899385764     1.007825032230
         H            2.620599360463    -2.252710356033    -0.297547385764     1.007825032230

  Basis Set: AUG-CC-PVTZ
    Blend: AUG-CC-PVTZ
  Basis Set: (AUG-CC-PVTZ AUX)
    Blend: AUG-CC-PVTZ-JKFIT
	 Reference Energy          =    -458.6598144197727152 [Eh]
	 Singles Energy            =      -0.0000000000000000 [Eh]
	 Same-Spin Energy          =      -0.4817757575641016 [Eh]
	 Opposite-Spin Energy      =      -1.5052248189827213 [Eh]
	 Correlation Energy        =      -1.9870005765468228 [Eh]
	 Total Energy              =    -460.6468149963195629 [Eh]

	 ================> DF-SCS-MP2 Energies <==================
	-----------------------------------------------------------
	 SCS Same-Spin Scale       =       0.3333333333333333 [-]
	 SCS Opposite-Spin Scale   =       1.2000000000000000 [-]
	 SCS Same-Spin Energy      =      -0.1605919191880339 [Eh]
	 SCS Opposite-Spin Energy  =      -1.8062697827792655 [Eh]
	 SCS Correlation Energy    =      -1.9668617019672994 [Eh]
	 SCS Total Energy          =    -460.6266761217399903 [Eh]
	-----------------------------------------------------------

  Dipole Moment: [D]
     X:    -0.5150      Y:     1.2021      Z:     0.0101     Total:     1.3078

*** Psi4 exiting successfully. Buy a developer a beer!
