                               Psi4 1.3.2 release

  ==> Input File <==

--------------------------------------------------------------------------
#psi4
#
memory 32 gb

molecule  {
0 1
  O        1.7627890     2.3683800    -0.1458810
  O        1.6754140    -2.4069960    -0.1279020
  C       -1.0420554    -0.0202999     0.3679261
  C       -2.5139530    -0.0194410     0.5634370
  C       -0.3230660    -1.2073880     0.2343750
  C       -0.3370590     1.2052280     0.2348720
  C       -3.2735700    -0.0197480    -0.7643280
  C        1.0346870     1.2106680    -0.0181020
  C        1.0481253    -1.2153750    -0.0190278
  C        1.7368580     0.0147850    -0.1457440
  H       -2.7927850    -0.9030380     1.1483340
  H       -2.8082890     0.8538600     1.1573130
  H       -0.8312370    -2.1635460     0.3309200
  H       -0.8789600     2.1456520     0.3351900
  H       -3.0230990     0.8672620    -1.3527740
  H       -4.3574070    -0.0294260    -0.6053230
  H       -3.0076490    -0.8981260    -1.3586750
  H        2.8074370     0.0467670    -0.3362510
  H        1.1590650     3.1223080    -0.0299710
  H        2.6215300    -2.2543830    -0.2976190
units angstrom
no_reorient  #important for SAPT in psi4, default
symmetry c1  #important for SAPT in psi4, default
}

set PROPERTIES_ORIGIN ["COM"]
properties('MP2/aug-cc-pvtz', properties = ['dipole'])
--------------------------------------------------------------------------

    Molecular point group: c1
  Charge       = 0
  Multiplicity = 1
  Basis Set: AUG-CC-PVTZ
    Blend: AUG-CC-PVTZ
  Basis Set: (AUG-CC-PVTZ AUX)
    Blend: AUG-CC-PVTZ-JKFIT

    Orbital Energies [Eh]
    ---------------------

    Doubly Occupied:

       1A    -20.597461     2A    -20.594341     3A    -11.311358
       4A    -11.308991     5A    -11.252954     6A    -11.231372
       7A    -11.224268     8A    -11.222992     9A    -11.220103
      10A    -11.215652    11A     -1.414124    12A     -1.403193
      13A     -1.146701    14A     -1.064423    15A     -1.000445
      16A     -0.984339    17A     -0.879157    18A     -0.834920
      19A     -0.810460    20A     -0.740552    21A     -0.686369
      22A     -0.677346    23A     -0.668483    24A     -0.613586
      25A     -0.603464    26A     -0.597052    27A     -0.589211
      28A     -0.579533    29A     -0.549553    30A     -0.548913
      31A     -0.523890    32A     -0.516751    33A     -0.489837
      34A     -0.483401    35A     -0.450700    36A     -0.321759
      37A     -0.309624

  @DF-RHF Final Energy:  -458.65827075415876

   => Energetics <=

    Nuclear Repulsion Energy =            507.1875518555256690
    One-Electron Energy =               -1630.3570836871383563
    Two-Electron Energy =                 664.5112610774539235
    Total Energy =                       -458.6582707541587069
  Basis Set: (AUG-CC-PVTZ AUX)
    Blend: AUG-CC-PVTZ-RI
    Molecular point group: c1

    Geometry (in Angstrom), charge = 0, multiplicity = 1:

       Center              X                  Y                   Z               Mass
    ------------   -----------------  -----------------  -----------------  -----------------
         O            1.764563304294     2.371588703574    -0.146207024380    15.994914619570
         O            1.677188304294    -2.403787296426    -0.128228024380    15.994914619570
         C           -1.040281095706    -0.017091196426     0.367600075620    12.000000000000
         C           -2.512178695706    -0.016232296426     0.563110975620    12.000000000000
         C           -0.321291695706    -1.204179296426     0.234048975620    12.000000000000
         C           -0.335284695706     1.208436703574     0.234545975620    12.000000000000
         C           -3.271795695706    -0.016539296426    -0.764654024380    12.000000000000
         C            1.036461304294     1.213876703574    -0.018428024380    12.000000000000
         C            1.049899604294    -1.212166296426    -0.019353824380    12.000000000000
         C            1.738632304294     0.017993703574    -0.146070024380    12.000000000000
         H           -2.791010695706    -0.899829296426     1.148007975620     1.007825032230
         H           -2.806514695706     0.857068703574     1.156986975620     1.007825032230
         H           -0.829462695706    -2.160337296426     0.330593975620     1.007825032230
         H           -0.877185695706     2.148860703574     0.334863975620     1.007825032230
         H           -3.021324695706     0.870470703574    -1.353100024380     1.007825032230
         H           -4.355632695706    -0.026217296426    -0.605649024380     1.007825032230
         H           -3.005874695706    -0.894917296426    -1.359001024380     1.007825032230
         H            2.809211304294     0.049975703574    -0.336577024380     1.007825032230
         H            1.160839304294     3.125516703574    -0.030297024380     1.007825032230
         H            2.623304304294    -2.251174296426    -0.297945024380     1.007825032230

  Basis Set: AUG-CC-PVTZ
    Blend: AUG-CC-PVTZ
  Basis Set: (AUG-CC-PVTZ AUX)
    Blend: AUG-CC-PVTZ-JKFIT
	 Reference Energy          =    -458.6582707541587638 [Eh]
	 Singles Energy            =      -0.0000000000000000 [Eh]
	 Same-Spin Energy          =      -0.4819426364088164 [Eh]
	 Opposite-Spin Energy      =      -1.5053606405228166 [Eh]
	 Correlation Energy        =      -1.9873032769316330 [Eh]
	 Total Energy              =    -460.6455740310904048 [Eh]

	 ================> DF-SCS-MP2 Energies <==================
	-----------------------------------------------------------
	 SCS Same-Spin Scale       =       0.3333333333333333 [-]
	 SCS Opposite-Spin Scale   =       1.2000000000000000 [-]
	 SCS Same-Spin Energy      =      -0.1606475454696055 [Eh]
	 SCS Opposite-Spin Energy  =      -1.8064327686273798 [Eh]
	 SCS Correlation Energy    =      -1.9670803140969852 [Eh]
	 SCS Total Energy          =    -460.6253510682557248 [Eh]
	-----------------------------------------------------------

  Dipole Moment: [D]
     X:    -0.4583      Y:     1.0697      Z:    -0.0008     Total:     1.1637

*** Psi4 exiting successfully. Buy a developer a beer!
