                               Psi4 1.4a3.dev225

  ==> Input File <==

--------------------------------------------------------------------------
#psi4
#
memory 32 gb

molecule  {
0 1
  O       -1.8116000     2.3801270     0.1363720
  O       -1.7799440    -2.3994320     0.1189850
  C        0.9489570    -0.0306590    -0.3689570
  C        2.4429910    -0.0568610    -0.5708560
  C        0.2354480    -1.2220220    -0.2373930
  C        0.2798030     1.1938580    -0.2383990
  C        3.1984060    -0.0265600     0.7613490
  C       -1.1183005     1.2563072     0.0126359
  C       -1.1396310    -1.1871160     0.0102260
  C       -1.8132500     0.0254130     0.1385790
  H        2.7180680    -0.9584190    -1.1301260
  H        2.7446220     0.7994920    -1.1857830
  H        0.7258350    -2.1872220    -0.3369480
  H        0.8309290     2.1284970    -0.3452230
  H        2.9508560     0.8787730     1.3230630
  H        4.2811760    -0.0477390     0.6027570
  H        2.9230980    -0.8883860     1.3756490
  H       -2.8837580     0.0741080     0.3259950
  H       -1.1979550     3.1274200     0.0245130
  H       -2.7238770    -2.2320380     0.2881370
units angstrom
no_reorient  #important for SAPT in psi4, default
symmetry c1  #important for SAPT in psi4, default
}

set PROPERTIES_ORIGIN ["COM"]
properties('MP2/aug-cc-pvtz', properties = ['dipole'])
--------------------------------------------------------------------------

    Molecular point group: c1
  Charge       = 0
  Multiplicity = 1
  Basis Set: AUG-CC-PVTZ
    Blend: AUG-CC-PVTZ
  Basis Set: (AUG-CC-PVTZ AUX)
    Blend: AUG-CC-PVTZ-JKFIT

    Orbital Energies [Eh]
    ---------------------

    Doubly Occupied:

       1A    -20.606102     2A    -20.591952     3A    -11.316445
       4A    -11.307701     5A    -11.250899     6A    -11.231457
       7A    -11.223707     8A    -11.223450     9A    -11.218680
      10A    -11.213940    11A     -1.431931    12A     -1.399854
      13A     -1.143697    14A     -1.059918    15A     -0.996447
      16A     -0.984324    17A     -0.873742    18A     -0.842480
      19A     -0.807756    20A     -0.743865    21A     -0.688815
      22A     -0.679309    23A     -0.664239    24A     -0.614557
      25A     -0.610071    26A     -0.596779    27A     -0.588975
      28A     -0.580326    29A     -0.552894    30A     -0.543491
      31A     -0.520877    32A     -0.517272    33A     -0.487198
      34A     -0.479769    35A     -0.449944    36A     -0.323177
      37A     -0.305347

  @DF-RHF Final Energy:  -458.65693730931395

   => Energetics <=

    Nuclear Repulsion Energy =            506.7357647414490316
    One-Electron Energy =               -1629.4426265503318518
    Two-Electron Energy =                 664.0499244995689878
    Total Energy =                       -458.6569373093138893
  Basis Set: (AUG-CC-PVTZ AUX)
    Blend: AUG-CC-PVTZ-RI
    Molecular point group: c1

    Geometry (in Angstrom), charge = 0, multiplicity = 1:

       Center              X                  Y                   Z               Mass
    ------------   -----------------  -----------------  -----------------  -----------------
         O           -1.734947771956     2.381434608913     0.142745394516    15.994914619570
         O           -1.703291771956    -2.398124391087     0.125358394516    15.994914619570
         C            1.025609228044    -0.029351391087    -0.362583605484    12.000000000000
         C            2.519643228044    -0.055553391087    -0.564482605484    12.000000000000
         C            0.312100228044    -1.220714391087    -0.231019605484    12.000000000000
         C            0.356455228044     1.195165608913    -0.232025605484    12.000000000000
         C            3.275058228044    -0.025252391087     0.767722394516    12.000000000000
         C           -1.041648271956     1.257614808913     0.019009294516    12.000000000000
         C           -1.062978771956    -1.185808391087     0.016599394516    12.000000000000
         C           -1.736597771956     0.026720608913     0.144952394516    12.000000000000
         H            2.794720228044    -0.957111391087    -1.123752605484     1.007825032230
         H            2.821274228044     0.800799608913    -1.179409605484     1.007825032230
         H            0.802487228044    -2.185914391087    -0.330574605484     1.007825032230
         H            0.907581228044     2.129804608913    -0.338849605484     1.007825032230
         H            3.027508228044     0.880080608913     1.329436394516     1.007825032230
         H            4.357828228044    -0.046431391087     0.609130394516     1.007825032230
         H            2.999750228044    -0.887078391087     1.382022394516     1.007825032230
         H           -2.807105771956     0.075415608913     0.332368394516     1.007825032230
         H           -1.121302771956     3.128727608913     0.030886394516     1.007825032230
         H           -2.647224771956    -2.230730391087     0.294510394516     1.007825032230

  Basis Set: AUG-CC-PVTZ
    Blend: AUG-CC-PVTZ
  Basis Set: (AUG-CC-PVTZ AUX)
    Blend: AUG-CC-PVTZ-JKFIT
	 Reference Energy          =    -458.6569373093139461 [Eh]
	 Singles Energy            =      -0.0000000000000000 [Eh]
	 Same-Spin Energy          =      -0.4817490870307870 [Eh]
	 Opposite-Spin Energy      =      -1.5051259406740263 [Eh]
	 Correlation Energy        =      -1.9868750277048133 [Eh]
	 Total Energy              =    -460.6438123370187441 [Eh]

	 ================> DF-SCS-MP2 Energies <==================
	-----------------------------------------------------------
	 SCS Same-Spin Scale       =       0.3333333333333333 [-]
	 SCS Opposite-Spin Scale   =       1.2000000000000000 [-]
	 SCS Same-Spin Energy      =      -0.1605830290102623 [Eh]
	 SCS Opposite-Spin Energy  =      -1.8061511288088314 [Eh]
	 SCS Correlation Energy    =      -1.9667341578190938 [Eh]
	 SCS Total Energy          =    -460.6236714671330219 [Eh]
	-----------------------------------------------------------

  Dipole Moment: [D]
     X:     0.3528      Y:     1.5479      Z:     0.0081     Total:     1.5876

*** Psi4 exiting successfully. Buy a developer a beer!
