                               Psi4 1.4a3.dev225

  ==> Input File <==

--------------------------------------------------------------------------
#psi4
#
memory 32 gb

molecule  {
0 1
  O       -1.8116000     2.3801270     0.1363720
  O       -1.7799440    -2.3994320     0.1189850
  C        0.9489570    -0.0306590    -0.3689570
  C        2.4429910    -0.0568610    -0.5708560
  C        0.2354480    -1.2220220    -0.2373930
  C        0.2798030     1.1938580    -0.2383990
  C        3.1984060    -0.0265600     0.7613490
  C       -1.0921630     1.2139390     0.0079710
  C       -1.1396310    -1.1871160     0.0102260
  C       -1.8132500     0.0254130     0.1385790
  H        2.7180680    -0.9584190    -1.1301260
  H        2.7446220     0.7994920    -1.1857830
  H        0.7258350    -2.1872220    -0.3369480
  H        0.8309290     2.1284970    -0.3452230
  H        2.9508560     0.8787730     1.3230630
  H        4.2811760    -0.0477390     0.6027570
  H        2.9230980    -0.8883860     1.3756490
  H       -2.8837580     0.0741080     0.3259950
  H       -1.1979550     3.1274200     0.0245130
  H       -2.7723599    -2.2234402     0.2968251
units angstrom
no_reorient  #important for SAPT in psi4, default
symmetry c1  #important for SAPT in psi4, default
}

set PROPERTIES_ORIGIN ["COM"]
properties('MP2/aug-cc-pvtz', properties = ['dipole'])
--------------------------------------------------------------------------

    Molecular point group: c1
  Charge       = 0
  Multiplicity = 1
  Basis Set: AUG-CC-PVTZ
    Blend: AUG-CC-PVTZ
  Basis Set: (AUG-CC-PVTZ AUX)
    Blend: AUG-CC-PVTZ-JKFIT

    Orbital Energies [Eh]
    ---------------------

    Doubly Occupied:

       1A    -20.597193     2A    -20.595514     3A    -11.310886
       4A    -11.308850     5A    -11.252181     6A    -11.232469
       7A    -11.224158     8A    -11.223047     9A    -11.219752
      10A    -11.216637    11A     -1.403589    12A     -1.391550
      13A     -1.148962    14A     -1.063040    15A     -0.999361
      16A     -0.987491    17A     -0.875515    18A     -0.835029
      19A     -0.803912    20A     -0.735594    21A     -0.686500
      22A     -0.671122    23A     -0.663511    24A     -0.611423
      25A     -0.601635    26A     -0.594874    27A     -0.585719
      28A     -0.574732    29A     -0.551713    30A     -0.548053
      31A     -0.523008    32A     -0.520925    33A     -0.488135
      34A     -0.482432    35A     -0.453208    36A     -0.325618
      37A     -0.311139

  @DF-RHF Final Energy:  -458.65446357954130

   => Energetics <=

    Nuclear Repulsion Energy =            506.7986729414135993
    One-Electron Energy =               -1629.6693232375075695
    Two-Electron Energy =                 664.2161867165526701
    Total Energy =                       -458.6544635795413569
  Basis Set: (AUG-CC-PVTZ AUX)
    Blend: AUG-CC-PVTZ-RI
    Molecular point group: c1

    Geometry (in Angstrom), charge = 0, multiplicity = 1:

       Center              X                  Y                   Z               Mass
    ------------   -----------------  -----------------  -----------------  -----------------
         O           -1.736865577437     2.385054224131     0.143087419374    15.994914619570
         O           -1.705209577437    -2.394504775869     0.125700419374    15.994914619570
         C            1.023691422563    -0.025731775869    -0.362241580626    12.000000000000
         C            2.517725422563    -0.051933775869    -0.564140580626    12.000000000000
         C            0.310182422563    -1.217094775869    -0.230677580626    12.000000000000
         C            0.354537422563     1.198785224131    -0.231683580626    12.000000000000
         C            3.273140422563    -0.021632775869     0.768064419374    12.000000000000
         C           -1.017428577437     1.218866224131     0.014686419374    12.000000000000
         C           -1.064896577437    -1.182188775869     0.016941419374    12.000000000000
         C           -1.738515577437     0.030340224131     0.145294419374    12.000000000000
         H            2.792802422563    -0.953491775869    -1.123410580626     1.007825032230
         H            2.819356422563     0.804419224131    -1.179067580626     1.007825032230
         H            0.800569422563    -2.182294775869    -0.330232580626     1.007825032230
         H            0.905663422563     2.133424224131    -0.338507580626     1.007825032230
         H            3.025590422563     0.883700224131     1.329778419374     1.007825032230
         H            4.355910422563    -0.042811775869     0.609472419374     1.007825032230
         H            2.997832422563    -0.883458775869     1.382364419374     1.007825032230
         H           -2.809023577437     0.079035224131     0.332710419374     1.007825032230
         H           -1.123220577437     3.132347224131     0.031228419374     1.007825032230
         H           -2.697625477437    -2.218512975869     0.303540519374     1.007825032230

  Basis Set: AUG-CC-PVTZ
    Blend: AUG-CC-PVTZ
  Basis Set: (AUG-CC-PVTZ AUX)
    Blend: AUG-CC-PVTZ-JKFIT
	 Reference Energy          =    -458.6544635795413001 [Eh]
	 Singles Energy            =      -0.0000000000000000 [Eh]
	 Same-Spin Energy          =      -0.4823546131935087 [Eh]
	 Opposite-Spin Energy      =      -1.5070974905745280 [Eh]
	 Correlation Energy        =      -1.9894521037680368 [Eh]
	 Total Energy              =    -460.6439156833093307 [Eh]

	 ================> DF-SCS-MP2 Energies <==================
	-----------------------------------------------------------
	 SCS Same-Spin Scale       =       0.3333333333333333 [-]
	 SCS Opposite-Spin Scale   =       1.2000000000000000 [-]
	 SCS Same-Spin Energy      =      -0.1607848710645029 [Eh]
	 SCS Opposite-Spin Energy  =      -1.8085169886894334 [Eh]
	 SCS Correlation Energy    =      -1.9693018597539362 [Eh]
	 SCS Total Energy          =    -460.6237654392952550 [Eh]
	-----------------------------------------------------------

  Dipole Moment: [D]
     X:     0.4763      Y:     1.2094      Z:    -0.0087     Total:     1.2998

*** Psi4 exiting successfully. Buy a developer a beer!
