                               Psi4 1.4a3.dev225

  ==> Input File <==

--------------------------------------------------------------------------
#psi4
#
memory 32 gb

molecule  {
0 1
  O       -1.8116000     2.3801270     0.1363720
  O       -1.7799440    -2.3994320     0.1189850
  C        0.9489570    -0.0306590    -0.3689570
  C        2.4429910    -0.0568610    -0.5708560
  C        0.2354480    -1.2220220    -0.2373930
  C        0.2798030     1.1938580    -0.2383990
  C        3.1984060    -0.0265600     0.7613490
  C       -1.0921630     1.2139390     0.0079710
  C       -1.1629095    -1.2311896     0.0141799
  C       -1.8132500     0.0254130     0.1385790
  H        2.7180680    -0.9584190    -1.1301260
  H        2.7446220     0.7994920    -1.1857830
  H        0.7258350    -2.1872220    -0.3369480
  H        0.8309290     2.1284970    -0.3452230
  H        2.9508560     0.8787730     1.3230630
  H        4.2811760    -0.0477390     0.6027570
  H        2.9230980    -0.8883860     1.3756490
  H       -2.8837580     0.0741080     0.3259950
  H       -1.1979550     3.1274200     0.0245130
  H       -2.7238770    -2.2320380     0.2881370
units angstrom
no_reorient  #important for SAPT in psi4, default
symmetry c1  #important for SAPT in psi4, default
}

set PROPERTIES_ORIGIN ["COM"]
properties('MP2/aug-cc-pvtz', properties = ['dipole'])
--------------------------------------------------------------------------

    Molecular point group: c1
  Charge       = 0
  Multiplicity = 1
  Basis Set: AUG-CC-PVTZ
    Blend: AUG-CC-PVTZ
  Basis Set: (AUG-CC-PVTZ AUX)
    Blend: AUG-CC-PVTZ-JKFIT

    Orbital Energies [Eh]
    ---------------------

    Doubly Occupied:

       1A    -20.603902     2A    -20.594083     3A    -11.314544
       4A    -11.309540     5A    -11.250874     6A    -11.231453
       7A    -11.224121     8A    -11.220446     9A    -11.218692
      10A    -11.216378    11A     -1.429966    12A     -1.401819
      13A     -1.143794    14A     -1.059497    15A     -0.997201
      16A     -0.984037    17A     -0.875475    18A     -0.835435
      19A     -0.812942    20A     -0.743683    21A     -0.688369
      22A     -0.675224    23A     -0.669730    24A     -0.612855
      25A     -0.606749    26A     -0.597413    27A     -0.591161
      28A     -0.581834    29A     -0.549927    30A     -0.545666
      31A     -0.523307    32A     -0.516052    33A     -0.487198
      34A     -0.479000    35A     -0.450115    36A     -0.322085
      37A     -0.306172

  @DF-RHF Final Energy:  -458.65700138303066

   => Energetics <=

    Nuclear Repulsion Energy =            506.7386015696458799
    One-Electron Energy =               -1629.4497292505877795
    Two-Electron Energy =                 664.0541262979112389
    Total Energy =                       -458.6570013830306607
  Basis Set: (AUG-CC-PVTZ AUX)
    Blend: AUG-CC-PVTZ-RI
    Molecular point group: c1

    Geometry (in Angstrom), charge = 0, multiplicity = 1:

       Center              X                  Y                   Z               Mass
    ------------   -----------------  -----------------  -----------------  -----------------
         O           -1.735196258066     2.388947580798     0.142807190117    15.994914619570
         O           -1.703540258066    -2.390611419202     0.125420190117    15.994914619570
         C            1.025360741934    -0.021838419202    -0.362521809883    12.000000000000
         C            2.519394741934    -0.048040419202    -0.564420809883    12.000000000000
         C            0.311851741934    -1.213201419202    -0.230957809883    12.000000000000
         C            0.356206741934     1.202678580798    -0.231963809883    12.000000000000
         C            3.274809741934    -0.017739419202     0.767784190117    12.000000000000
         C           -1.015759258066     1.222759580798     0.014406190117    12.000000000000
         C           -1.086505758066    -1.222369019202     0.020615090117    12.000000000000
         C           -1.736846258066     0.034233580798     0.145014190117    12.000000000000
         H            2.794471741934    -0.949598419202    -1.123690809883     1.007825032230
         H            2.821025741934     0.808312580798    -1.179347809883     1.007825032230
         H            0.802238741934    -2.178401419202    -0.330512809883     1.007825032230
         H            0.907332741934     2.137317580798    -0.338787809883     1.007825032230
         H            3.027259741934     0.887593580798     1.329498190117     1.007825032230
         H            4.357579741934    -0.038918419202     0.609192190117     1.007825032230
         H            2.999501741934    -0.879565419202     1.382084190117     1.007825032230
         H           -2.807354258066     0.082928580798     0.332430190117     1.007825032230
         H           -1.121551258066     3.136240580798     0.030948190117     1.007825032230
         H           -2.647473258066    -2.223217419202     0.294572190117     1.007825032230

  Basis Set: AUG-CC-PVTZ
    Blend: AUG-CC-PVTZ
  Basis Set: (AUG-CC-PVTZ AUX)
    Blend: AUG-CC-PVTZ-JKFIT
	 Reference Energy          =    -458.6570013830306607 [Eh]
	 Singles Energy            =      -0.0000000000000000 [Eh]
	 Same-Spin Energy          =      -0.4817134847654222 [Eh]
	 Opposite-Spin Energy      =      -1.5050931484860599 [Eh]
	 Correlation Energy        =      -1.9868066332514820 [Eh]
	 Total Energy              =    -460.6438080162821507 [Eh]

	 ================> DF-SCS-MP2 Energies <==================
	-----------------------------------------------------------
	 SCS Same-Spin Scale       =       0.3333333333333333 [-]
	 SCS Opposite-Spin Scale   =       1.2000000000000000 [-]
	 SCS Same-Spin Energy      =      -0.1605711615884741 [Eh]
	 SCS Opposite-Spin Energy  =      -1.8061117781832718 [Eh]
	 SCS Correlation Energy    =      -1.9666829397717458 [Eh]
	 SCS Total Energy          =    -460.6236843228024327 [Eh]
	-----------------------------------------------------------

  Dipole Moment: [D]
     X:     0.3268      Y:     0.9029      Z:     0.0110     Total:     0.9603

*** Psi4 exiting successfully. Buy a developer a beer!
