                               Psi4 1.3.2 release

  ==> Input File <==

--------------------------------------------------------------------------
#psi4
#
memory 32 gb

molecule  {
0 1
  O        1.7627890     2.3683800    -0.1458810
  O        1.6754140    -2.4069960    -0.1279020
  C       -1.0215720    -0.0077180     0.3641480
  C       -2.5139530    -0.0194410     0.5634370
  C       -0.3230660    -1.2073880     0.2343750
  C       -0.3370590     1.2052280     0.2348720
  C       -3.2735700    -0.0197480    -0.7643280
  C        1.0346870     1.2106680    -0.0181020
  C        1.1115434    -1.1593806    -0.0304487
  C        1.7368580     0.0147850    -0.1457440
  H       -2.7927850    -0.9030380     1.1483340
  H       -2.8082890     0.8538600     1.1573130
  H       -0.8312370    -2.1635460     0.3309200
  H       -0.8789600     2.1456520     0.3351900
  H       -3.0230990     0.8672620    -1.3527740
  H       -4.3574070    -0.0294260    -0.6053230
  H       -3.0076490    -0.8981260    -1.3586750
  H        2.8074370     0.0467670    -0.3362510
  H        1.1590650     3.1223080    -0.0299710
  H        2.6123470    -2.2042861    -0.2961141
units angstrom
no_reorient  #important for SAPT in psi4, default
symmetry c1  #important for SAPT in psi4, default
}

set PROPERTIES_ORIGIN ["COM"]
properties('MP2/aug-cc-pvtz', properties = ['dipole'])
--------------------------------------------------------------------------

    Molecular point group: c1
  Charge       = 0
  Multiplicity = 1
  Basis Set: AUG-CC-PVTZ
    Blend: AUG-CC-PVTZ
  Basis Set: (AUG-CC-PVTZ AUX)
    Blend: AUG-CC-PVTZ-JKFIT

    Orbital Energies [Eh]
    ---------------------

    Doubly Occupied:

       1A    -20.597695     2A    -20.597458     3A    -11.313090
       4A    -11.308305     5A    -11.248364     6A    -11.230712
       7A    -11.222088     8A    -11.221432     9A    -11.220365
      10A    -11.218679    11A     -1.409000    12A     -1.405658
      13A     -1.149903    14A     -1.069084    15A     -0.996534
      16A     -0.987356    17A     -0.873603    18A     -0.844307
      19A     -0.804139    20A     -0.738747    21A     -0.693931
      22A     -0.674592    23A     -0.656356    24A     -0.612453
      25A     -0.603999    26A     -0.598121    27A     -0.590377
      28A     -0.578351    29A     -0.553986    30A     -0.548268
      31A     -0.529083    32A     -0.520286    33A     -0.486154
      34A     -0.476968    35A     -0.454303    36A     -0.336064
      37A     -0.303715

  @DF-RHF Final Energy:  -458.65194405913451

   => Energetics <=

    Nuclear Repulsion Energy =            507.5371079612497169
    One-Electron Energy =               -1631.0310507593678722
    Two-Electron Energy =                 664.8419987389835342
    Total Energy =                       -458.6519440591345074
  Basis Set: (AUG-CC-PVTZ AUX)
    Blend: AUG-CC-PVTZ-RI
    Molecular point group: c1

    Geometry (in Angstrom), charge = 0, multiplicity = 1:

       Center              X                  Y                   Z               Mass
    ------------   -----------------  -----------------  -----------------  -----------------
         O            1.757338150255     2.365262806142    -0.144897008881    15.994914619570
         O            1.669963150255    -2.410113193858    -0.126918008881    15.994914619570
         C           -1.027022849745    -0.010835193858     0.365131991119    12.000000000000
         C           -2.519403849745    -0.022558193858     0.564420991119    12.000000000000
         C           -0.328516849745    -1.210505193858     0.235358991119    12.000000000000
         C           -0.342509849745     1.202110806142     0.235855991119    12.000000000000
         C           -3.279020849745    -0.022865193858    -0.763344008881    12.000000000000
         C            1.029236150255     1.207550806142    -0.017118008881    12.000000000000
         C            1.106092550255    -1.162497793858    -0.029464708881    12.000000000000
         C            1.731407150255     0.011667806142    -0.144760008881    12.000000000000
         H           -2.798235849745    -0.906155193858     1.149317991119     1.007825032230
         H           -2.813739849745     0.850742806142     1.158296991119     1.007825032230
         H           -0.836687849745    -2.166663193858     0.331903991119     1.007825032230
         H           -0.884410849745     2.142534806142     0.336173991119     1.007825032230
         H           -3.028549849745     0.864144806142    -1.351790008881     1.007825032230
         H           -4.362857849745    -0.032543193858    -0.604339008881     1.007825032230
         H           -3.013099849745    -0.901243193858    -1.357691008881     1.007825032230
         H            2.801986150255     0.043649806142    -0.335267008881     1.007825032230
         H            1.153614150255     3.119190806142    -0.028987008881     1.007825032230
         H            2.606896150255    -2.207403293858    -0.295130108881     1.007825032230

  Basis Set: AUG-CC-PVTZ
    Blend: AUG-CC-PVTZ
  Basis Set: (AUG-CC-PVTZ AUX)
    Blend: AUG-CC-PVTZ-JKFIT
	 Reference Energy          =    -458.6519440591345074 [Eh]
	 Singles Energy            =      -0.0000000000000000 [Eh]
	 Same-Spin Energy          =      -0.4818053306426345 [Eh]
	 Opposite-Spin Energy      =      -1.5061458447016218 [Eh]
	 Correlation Energy        =      -1.9879511753442562 [Eh]
	 Total Energy              =    -460.6398952344787858 [Eh]

	 ================> DF-SCS-MP2 Energies <==================
	-----------------------------------------------------------
	 SCS Same-Spin Scale       =       0.3333333333333333 [-]
	 SCS Opposite-Spin Scale   =       1.2000000000000000 [-]
	 SCS Same-Spin Energy      =      -0.1606017768808782 [Eh]
	 SCS Opposite-Spin Energy  =      -1.8073750136419462 [Eh]
	 SCS Correlation Energy    =      -1.9679767905228243 [Eh]
	 SCS Total Energy          =    -460.6199208496573192 [Eh]
	-----------------------------------------------------------

  Dipole Moment: [D]
     X:    -0.4323      Y:     1.2799      Z:    -0.0006     Total:     1.3509

*** Psi4 exiting successfully. Buy a developer a beer!
