                               Psi4 1.3.2 release

  ==> Input File <==

--------------------------------------------------------------------------
#psi4
#
memory 32 gb

molecule  {
0 1
  O        1.7627890     2.3683800    -0.1458810
  O        1.6754140    -2.4069960    -0.1279020
  C       -1.0215720    -0.0077180     0.3641480
  C       -2.5139530    -0.0194410     0.5634370
  C       -0.3225786    -1.2317200     0.2342739
  C       -0.3370590     1.2052280     0.2348720
  C       -3.2735700    -0.0197480    -0.7643280
  C        1.0346870     1.2106680    -0.0181020
  C        1.0480560    -1.1910380    -0.0190010
  C        1.7574462     0.0023783    -0.1495543
  H       -2.7927850    -0.9030380     1.1483340
  H       -2.8082890     0.8538600     1.1573130
  H       -0.8312370    -2.1635460     0.3309200
  H       -0.8789600     2.1456520     0.3351900
  H       -3.0230990     0.8672620    -1.3527740
  H       -4.3574070    -0.0294260    -0.6053230
  H       -3.0076490    -0.8981260    -1.3586750
  H        2.8074370     0.0467670    -0.3362510
  H        1.1590650     3.1223080    -0.0299710
  H        2.6215300    -2.2543830    -0.2976190
units angstrom
no_reorient  #important for SAPT in psi4, default
symmetry c1  #important for SAPT in psi4, default
}

set PROPERTIES_ORIGIN ["COM"]
properties('MP2/aug-cc-pvtz', properties = ['dipole'])
--------------------------------------------------------------------------

    Molecular point group: c1
  Charge       = 0
  Multiplicity = 1
  Basis Set: AUG-CC-PVTZ
    Blend: AUG-CC-PVTZ
  Basis Set: (AUG-CC-PVTZ AUX)
    Blend: AUG-CC-PVTZ-JKFIT

    Orbital Energies [Eh]
    ---------------------

    Doubly Occupied:

       1A    -20.596790     2A    -20.590669     3A    -11.314099
       4A    -11.308544     5A    -11.254856     6A    -11.232408
       7A    -11.223874     8A    -11.223441     9A    -11.220061
      10A    -11.215786    11A     -1.405911    12A     -1.400703
      13A     -1.146577    14A     -1.062505    15A     -1.000979
      16A     -0.987111    17A     -0.877477    18A     -0.835715
      19A     -0.807118    20A     -0.739740    21A     -0.689195
      22A     -0.675774    23A     -0.665552    24A     -0.611939
      25A     -0.601904    26A     -0.595119    27A     -0.589504
      28A     -0.575866    29A     -0.553914    30A     -0.548904
      31A     -0.524112    32A     -0.522451    33A     -0.487444
      34A     -0.483930    35A     -0.451456    36A     -0.324216
      37A     -0.310573

  @DF-RHF Final Energy:  -458.65852071190352

   => Energetics <=

    Nuclear Repulsion Energy =            506.7716781136487612
    One-Electron Energy =               -1629.5479704570875583
    Two-Electron Energy =                 664.1177716315353337
    Total Energy =                       -458.6585207119035204
  Basis Set: (AUG-CC-PVTZ AUX)
    Blend: AUG-CC-PVTZ-RI
    Molecular point group: c1

    Geometry (in Angstrom), charge = 0, multiplicity = 1:

       Center              X                  Y                   Z               Mass
    ------------   -----------------  -----------------  -----------------  -----------------
         O            1.760957283253     2.371573041735    -0.145541031195    15.994914619570
         O            1.673582283253    -2.403802958265    -0.127562031195    15.994914619570
         C           -1.023403716747    -0.004524958265     0.364487968805    12.000000000000
         C           -2.515784716747    -0.016247958265     0.563776968805    12.000000000000
         C           -0.324410316747    -1.228526958265     0.234613868805    12.000000000000
         C           -0.338890716747     1.208421041735     0.235211968805    12.000000000000
         C           -3.275401716747    -0.016554958265    -0.763988031195    12.000000000000
         C            1.032855283253     1.213861041735    -0.017762031195    12.000000000000
         C            1.046224283253    -1.187844958265    -0.018661031195    12.000000000000
         C            1.755614483253     0.005571341735    -0.149214331195    12.000000000000
         H           -2.794616716747    -0.899844958265     1.148673968805     1.007825032230
         H           -2.810120716747     0.857053041735     1.157652968805     1.007825032230
         H           -0.833068716747    -2.160352958265     0.331259968805     1.007825032230
         H           -0.880791716747     2.148845041735     0.335529968805     1.007825032230
         H           -3.024930716747     0.870455041735    -1.352434031195     1.007825032230
         H           -4.359238716747    -0.026232958265    -0.604983031195     1.007825032230
         H           -3.009480716747    -0.894932958265    -1.358335031195     1.007825032230
         H            2.805605283253     0.049960041735    -0.335911031195     1.007825032230
         H            1.157233283253     3.125501041735    -0.029631031195     1.007825032230
         H            2.619698283253    -2.251189958265    -0.297279031195     1.007825032230

  Basis Set: AUG-CC-PVTZ
    Blend: AUG-CC-PVTZ
  Basis Set: (AUG-CC-PVTZ AUX)
    Blend: AUG-CC-PVTZ-JKFIT
	 Reference Energy          =    -458.6585207119035204 [Eh]
	 Singles Energy            =      -0.0000000000000000 [Eh]
	 Same-Spin Energy          =      -0.4815615570199011 [Eh]
	 Opposite-Spin Energy      =      -1.5052389896660854 [Eh]
	 Correlation Energy        =      -1.9868005466859864 [Eh]
	 Total Energy              =    -460.6453212585894903 [Eh]

	 ================> DF-SCS-MP2 Energies <==================
	-----------------------------------------------------------
	 SCS Same-Spin Scale       =       0.3333333333333333 [-]
	 SCS Opposite-Spin Scale   =       1.2000000000000000 [-]
	 SCS Same-Spin Energy      =      -0.1605205190066337 [Eh]
	 SCS Opposite-Spin Energy  =      -1.8062867875993023 [Eh]
	 SCS Correlation Energy    =      -1.9668073066059359 [Eh]
	 SCS Total Energy          =    -460.6253280185094354 [Eh]
	-----------------------------------------------------------

  Dipole Moment: [D]
     X:    -0.5129      Y:     1.2701      Z:     0.0117     Total:     1.3698

*** Psi4 exiting successfully. Buy a developer a beer!
