                               Psi4 1.3.2 release

  ==> Input File <==

--------------------------------------------------------------------------
#psi4
#
memory 32 gb

molecule  {
0 1
  O        1.7627890     2.3683800    -0.1458810
  O        1.6754140    -2.4069960    -0.1279020
  C       -1.0006572    -0.0196908     0.3602503
  C       -2.5139530    -0.0194410     0.5634370
  C       -0.3230660    -1.2073880     0.2343750
  C       -0.3370590     1.2052280     0.2348720
  C       -3.2735700    -0.0197480    -0.7643280
  C        1.0346870     1.2106680    -0.0181020
  C        1.0480560    -1.1910380    -0.0190010
  C        1.7368580     0.0147850    -0.1457440
  H       -2.7927850    -0.9030380     1.1483340
  H       -2.8082890     0.8538600     1.1573130
  H       -0.8312370    -2.1635460     0.3309200
  H       -0.8627462     2.1551269     0.3321484
  H       -3.0230990     0.8672620    -1.3527740
  H       -4.3574070    -0.0294260    -0.6053230
  H       -3.0076490    -0.8981260    -1.3586750
  H        2.8074370     0.0467670    -0.3362510
  H        1.1590650     3.1223080    -0.0299710
  H        2.6215300    -2.2543830    -0.2976190
units angstrom
no_reorient  #important for SAPT in psi4, default
symmetry c1  #important for SAPT in psi4, default
}

set PROPERTIES_ORIGIN ["COM"]
properties('MP2/aug-cc-pvtz', properties = ['dipole'])
--------------------------------------------------------------------------

    Molecular point group: c1
  Charge       = 0
  Multiplicity = 1
  Basis Set: AUG-CC-PVTZ
    Blend: AUG-CC-PVTZ
  Basis Set: (AUG-CC-PVTZ AUX)
    Blend: AUG-CC-PVTZ-JKFIT

    Orbital Energies [Eh]
    ---------------------

    Doubly Occupied:

       1A    -20.595552     2A    -20.593837     3A    -11.309948
       4A    -11.309399     5A    -11.249855     6A    -11.232452
       7A    -11.223765     8A    -11.222211     9A    -11.219001
      10A    -11.214552    11A     -1.405432    12A     -1.402253
      13A     -1.152045    14A     -1.061273    15A     -1.003193
      16A     -0.988392    17A     -0.874392    18A     -0.837642
      19A     -0.808919    20A     -0.738742    21A     -0.689077
      22A     -0.675621    23A     -0.665487    24A     -0.609707
      25A     -0.602398    26A     -0.594644    27A     -0.588009
      28A     -0.576649    29A     -0.554930    30A     -0.548223
      31A     -0.525544    32A     -0.520881    33A     -0.488371
      34A     -0.476701    35A     -0.455727    36A     -0.327421
      37A     -0.312071

  @DF-RHF Final Energy:  -458.66006729538651

   => Energetics <=

    Nuclear Repulsion Energy =            507.6895772921179741
    One-Electron Energy =               -1631.3906622379172404
    Two-Electron Energy =                 665.0410176504127548
    Total Energy =                       -458.6600672953865114
  Basis Set: (AUG-CC-PVTZ AUX)
    Blend: AUG-CC-PVTZ-RI
    Molecular point group: c1

    Geometry (in Angstrom), charge = 0, multiplicity = 1:

       Center              X                  Y                   Z               Mass
    ------------   -----------------  -----------------  -----------------  -----------------
         O            1.760852906676     2.369351385271    -0.145520019817    15.994914619570
         O            1.673477906676    -2.406024614729    -0.127541019817    15.994914619570
         C           -1.002593293324    -0.018719414729     0.360611280183    12.000000000000
         C           -2.515889093324    -0.018469614729     0.563797980183    12.000000000000
         C           -0.325002093324    -1.206416614729     0.234735980183    12.000000000000
         C           -0.338995093324     1.206199385271     0.235232980183    12.000000000000
         C           -3.275506093324    -0.018776614729    -0.763967019817    12.000000000000
         C            1.032750906676     1.211639385271    -0.017741019817    12.000000000000
         C            1.046119906676    -1.190066614729    -0.018640019817    12.000000000000
         C            1.734921906676     0.015756385271    -0.145383019817    12.000000000000
         H           -2.794721093324    -0.902066614729     1.148694980183     1.007825032230
         H           -2.810225093324     0.854831385271     1.157673980183     1.007825032230
         H           -0.833173093324    -2.162574614729     0.331280980183     1.007825032230
         H           -0.864682293324     2.156098285271     0.332509380183     1.007825032230
         H           -3.025035093324     0.868233385271    -1.352413019817     1.007825032230
         H           -4.359343093324    -0.028454614729    -0.604962019817     1.007825032230
         H           -3.009585093324    -0.897154614729    -1.358314019817     1.007825032230
         H            2.805500906676     0.047738385271    -0.335890019817     1.007825032230
         H            1.157128906676     3.123279385271    -0.029610019817     1.007825032230
         H            2.619593906676    -2.253411614729    -0.297258019817     1.007825032230

  Basis Set: AUG-CC-PVTZ
    Blend: AUG-CC-PVTZ
  Basis Set: (AUG-CC-PVTZ AUX)
    Blend: AUG-CC-PVTZ-JKFIT
	 Reference Energy          =    -458.6600672953865114 [Eh]
	 Singles Energy            =      -0.0000000000000000 [Eh]
	 Same-Spin Energy          =      -0.4814914164578097 [Eh]
	 Opposite-Spin Energy      =      -1.5048848176198488 [Eh]
	 Correlation Energy        =      -1.9863762340776585 [Eh]
	 Total Energy              =    -460.6464435294641930 [Eh]

	 ================> DF-SCS-MP2 Energies <==================
	-----------------------------------------------------------
	 SCS Same-Spin Scale       =       0.3333333333333333 [-]
	 SCS Opposite-Spin Scale   =       1.2000000000000000 [-]
	 SCS Same-Spin Energy      =      -0.1604971388192699 [Eh]
	 SCS Opposite-Spin Energy  =      -1.8058617811438185 [Eh]
	 SCS Correlation Energy    =      -1.9663589199630884 [Eh]
	 SCS Total Energy          =    -460.6264262153496247 [Eh]
	-----------------------------------------------------------

  Dipole Moment: [D]
     X:    -0.4626      Y:     1.2081      Z:     0.0088     Total:     1.2937

*** Psi4 exiting successfully. Buy a developer a beer!
