                               Psi4 1.3.2 release

  ==> Input File <==

--------------------------------------------------------------------------
#psi4
#
memory 32 gb

molecule  {
0 1
  O        1.7627890     2.3683800    -0.1458810
  O        1.6754140    -2.4069960    -0.1279020
  C       -1.0830785     0.0304018     0.3753945
  C       -2.5139530    -0.0194410     0.5634370
  C       -0.3230660    -1.2073880     0.2343750
  C       -0.3370590     1.2052280     0.2348720
  C       -3.2735700    -0.0197480    -0.7643280
  C        1.0324944     1.2836626    -0.0178810
  C        1.0480560    -1.1910380    -0.0190010
  C        1.7368580     0.0147850    -0.1457440
  H       -2.7927850    -0.9030380     1.1483340
  H       -2.8082890     0.8538600     1.1573130
  H       -0.8312370    -2.1635460     0.3309200
  H       -0.8789600     2.1456520     0.3351900
  H       -3.0230990     0.8672620    -1.3527740
  H       -4.3574070    -0.0294260    -0.6053230
  H       -3.0076490    -0.8981260    -1.3586750
  H        2.8074370     0.0467670    -0.3362510
  H        1.1590650     3.1223080    -0.0299710
  H        2.6215300    -2.2543830    -0.2976190
units angstrom
no_reorient  #important for SAPT in psi4, default
symmetry c1  #important for SAPT in psi4, default
}

set PROPERTIES_ORIGIN ["COM"]
properties('MP2/aug-cc-pvtz', properties = ['dipole'])
--------------------------------------------------------------------------

    Molecular point group: c1
  Charge       = 0
  Multiplicity = 1
  Basis Set: AUG-CC-PVTZ
    Blend: AUG-CC-PVTZ
  Basis Set: (AUG-CC-PVTZ AUX)
    Blend: AUG-CC-PVTZ-JKFIT

    Orbital Energies [Eh]
    ---------------------

    Doubly Occupied:

       1A    -20.610211     2A    -20.589018     3A    -11.317710
       4A    -11.303881     5A    -11.256308     6A    -11.229983
       7A    -11.224603     8A    -11.223244     9A    -11.220969
      10A    -11.217401    11A     -1.441282    12A     -1.398046
      13A     -1.141164    14A     -1.065401    15A     -0.997684
      16A     -0.978233    17A     -0.882738    18A     -0.840073
      19A     -0.805996    20A     -0.750071    21A     -0.685084
      22A     -0.677497    23A     -0.664044    24A     -0.622723
      25A     -0.614441    26A     -0.600526    27A     -0.590646
      28A     -0.579607    29A     -0.549779    30A     -0.543472
      31A     -0.522561    32A     -0.509745    33A     -0.495605
      34A     -0.479207    35A     -0.444649    36A     -0.320311
      37A     -0.299608

  @DF-RHF Final Energy:  -458.64363214688183

   => Energetics <=

    Nuclear Repulsion Energy =            506.5898883501832302
    One-Electron Energy =               -1629.0799952930522068
    Two-Electron Energy =                 663.8464747959872057
    Total Energy =                       -458.6436321468818278
  Basis Set: (AUG-CC-PVTZ AUX)
    Blend: AUG-CC-PVTZ-RI
    Molecular point group: c1

    Geometry (in Angstrom), charge = 0, multiplicity = 1:

       Center              X                  Y                   Z               Mass
    ------------   -----------------  -----------------  -----------------  -----------------
         O            1.768325361401     2.358722589946    -0.146877667444    15.994914619570
         O            1.680950361401    -2.416653410054    -0.128898667444    15.994914619570
         C           -1.077542138599     0.020744389946     0.374397832556    12.000000000000
         C           -2.508416638599    -0.029098410054     0.562440332556    12.000000000000
         C           -0.317529638599    -1.217045410054     0.233378332556    12.000000000000
         C           -0.331522638599     1.195570589946     0.233875332556    12.000000000000
         C           -3.268033638599    -0.029405410054    -0.765324667444    12.000000000000
         C            1.038030761401     1.274005189946    -0.018877667444    12.000000000000
         C            1.053592361401    -1.200695410054    -0.019997667444    12.000000000000
         C            1.742394361401     0.005127589946    -0.146740667444    12.000000000000
         H           -2.787248638599    -0.912695410054     1.147337332556     1.007825032230
         H           -2.802752638599     0.844202589946     1.156316332556     1.007825032230
         H           -0.825700638599    -2.173203410054     0.329923332556     1.007825032230
         H           -0.873423638599     2.135994589946     0.334193332556     1.007825032230
         H           -3.017562638599     0.857604589946    -1.353770667444     1.007825032230
         H           -4.351870638599    -0.039083410054    -0.606319667444     1.007825032230
         H           -3.002112638599    -0.907783410054    -1.359671667444     1.007825032230
         H            2.812973361401     0.037109589946    -0.337247667444     1.007825032230
         H            1.164601361401     3.112650589946    -0.030967667444     1.007825032230
         H            2.627066361401    -2.264040410054    -0.298615667444     1.007825032230

  Basis Set: AUG-CC-PVTZ
    Blend: AUG-CC-PVTZ
  Basis Set: (AUG-CC-PVTZ AUX)
    Blend: AUG-CC-PVTZ-JKFIT
	 Reference Energy          =    -458.6436321468818278 [Eh]
	 Singles Energy            =      -0.0000000000000000 [Eh]
	 Same-Spin Energy          =      -0.4830219138161008 [Eh]
	 Opposite-Spin Energy      =      -1.5070163648802701 [Eh]
	 Correlation Energy        =      -1.9900382786963711 [Eh]
	 Total Energy              =    -460.6336704255782024 [Eh]

	 ================> DF-SCS-MP2 Energies <==================
	-----------------------------------------------------------
	 SCS Same-Spin Scale       =       0.3333333333333333 [-]
	 SCS Opposite-Spin Scale   =       1.2000000000000000 [-]
	 SCS Same-Spin Energy      =      -0.1610073046053669 [Eh]
	 SCS Opposite-Spin Energy  =      -1.8084196378563240 [Eh]
	 SCS Correlation Energy    =      -1.9694269424616908 [Eh]
	 SCS Total Energy          =    -460.6130590893434942 [Eh]
	-----------------------------------------------------------

  Dipole Moment: [D]
     X:    -0.4102      Y:     1.6662      Z:    -0.0160     Total:     1.7161

*** Psi4 exiting successfully. Buy a developer a beer!
