                               Psi4 1.3.2 release

  ==> Input File <==

--------------------------------------------------------------------------
#psi4
#
memory 32 gb

molecule  {
0 1
  O        1.7627890     2.3683800    -0.1458810
  O        1.6754140    -2.4069960    -0.1279020
  C       -1.0215720    -0.0077180     0.3641480
  C       -2.5139530    -0.0194410     0.5634370
  C       -0.3230660    -1.2073880     0.2343750
  C       -0.3370590     1.2052280     0.2348720
  C       -3.2735700    -0.0197480    -0.7643280
  C        1.0346870     1.2106680    -0.0181020
  C        1.0481398    -1.2153749    -0.0189489
  C        1.7368580     0.0147850    -0.1457440
  H       -2.7927850    -0.9030380     1.1483340
  H       -2.8082890     0.8538600     1.1573130
  H       -0.8147455    -2.1724277     0.3278977
  H       -0.8789600     2.1456520     0.3351900
  H       -3.0230990     0.8672620    -1.3527740
  H       -4.3574070    -0.0294260    -0.6053230
  H       -3.0076490    -0.8981260    -1.3586750
  H        2.8074370     0.0467670    -0.3362510
  H        1.1590650     3.1223080    -0.0299710
  H        2.6215300    -2.2543830    -0.2976190
units angstrom
no_reorient  #important for SAPT in psi4, default
symmetry c1  #important for SAPT in psi4, default
}

set PROPERTIES_ORIGIN ["COM"]
properties('MP2/aug-cc-pvtz', properties = ['dipole'])
--------------------------------------------------------------------------

    Molecular point group: c1
  Charge       = 0
  Multiplicity = 1
  Basis Set: AUG-CC-PVTZ
    Blend: AUG-CC-PVTZ
  Basis Set: (AUG-CC-PVTZ AUX)
    Blend: AUG-CC-PVTZ-JKFIT

    Orbital Energies [Eh]
    ---------------------

    Doubly Occupied:

       1A    -20.597305     2A    -20.594797     3A    -11.310591
       4A    -11.309457     5A    -11.251510     6A    -11.231796
       7A    -11.224096     8A    -11.221827     9A    -11.219357
      10A    -11.214991    11A     -1.414008    12A     -1.403658
      13A     -1.148047    14A     -1.061597    15A     -1.001486
      16A     -0.985648    17A     -0.876673    18A     -0.834946
      19A     -0.810793    20A     -0.741809    21A     -0.686761
      22A     -0.676308    23A     -0.669436    24A     -0.612029
      25A     -0.603458    26A     -0.595669    27A     -0.589206
      28A     -0.579725    29A     -0.551325    30A     -0.548115
      31A     -0.523557    32A     -0.517958    33A     -0.487654
      34A     -0.481663    35A     -0.452511    36A     -0.322954
      37A     -0.310291

  @DF-RHF Final Energy:  -458.65962943643922

   => Energetics <=

    Nuclear Repulsion Energy =            507.3596656360995212
    One-Electron Energy =               -1630.7125671427693305
    Two-Electron Energy =                 664.6932720702304778
    Total Energy =                       -458.6596294364392179
  Basis Set: (AUG-CC-PVTZ AUX)
    Blend: AUG-CC-PVTZ-RI
    Molecular point group: c1

    Geometry (in Angstrom), charge = 0, multiplicity = 1:

       Center              X                  Y                   Z               Mass
    ------------   -----------------  -----------------  -----------------  -----------------
         O            1.762661377742     2.370559987879    -0.145863452210    15.994914619570
         O            1.675286377742    -2.404816012121    -0.127884452210    15.994914619570
         C           -1.021699622258    -0.005538012121     0.364165547790    12.000000000000
         C           -2.514080622258    -0.017261012121     0.563454547790    12.000000000000
         C           -0.323193622258    -1.205208012121     0.234392547790    12.000000000000
         C           -0.337186622258     1.207407987879     0.234889547790    12.000000000000
         C           -3.273697622258    -0.017568012121    -0.764310452210    12.000000000000
         C            1.034559377742     1.212847987879    -0.018084452210    12.000000000000
         C            1.048012177742    -1.213194912121    -0.018931352210    12.000000000000
         C            1.736730377742     0.016964987879    -0.145726452210    12.000000000000
         H           -2.792912622258    -0.900858012121     1.148351547790     1.007825032230
         H           -2.808416622258     0.856039987879     1.157330547790     1.007825032230
         H           -0.814873122258    -2.170247712121     0.327915247790     1.007825032230
         H           -0.879087622258     2.147831987879     0.335207547790     1.007825032230
         H           -3.023226622258     0.869441987879    -1.352756452210     1.007825032230
         H           -4.357534622258    -0.027246012121    -0.605305452210     1.007825032230
         H           -3.007776622258    -0.895946012121    -1.358657452210     1.007825032230
         H            2.807309377742     0.048946987879    -0.336233452210     1.007825032230
         H            1.158937377742     3.124487987879    -0.029953452210     1.007825032230
         H            2.621402377742    -2.252203012121    -0.297601452210     1.007825032230

  Basis Set: AUG-CC-PVTZ
    Blend: AUG-CC-PVTZ
  Basis Set: (AUG-CC-PVTZ AUX)
    Blend: AUG-CC-PVTZ-JKFIT
	 Reference Energy          =    -458.6596294364392179 [Eh]
	 Singles Energy            =      -0.0000000000000000 [Eh]
	 Same-Spin Energy          =      -0.4816991317494664 [Eh]
	 Opposite-Spin Energy      =      -1.5049654653616842 [Eh]
	 Correlation Energy        =      -1.9866645971111505 [Eh]
	 Total Energy              =    -460.6462940335503617 [Eh]

	 ================> DF-SCS-MP2 Energies <==================
	-----------------------------------------------------------
	 SCS Same-Spin Scale       =       0.3333333333333333 [-]
	 SCS Opposite-Spin Scale   =       1.2000000000000000 [-]
	 SCS Same-Spin Energy      =      -0.1605663772498221 [Eh]
	 SCS Opposite-Spin Energy  =      -1.8059585584340210 [Eh]
	 SCS Correlation Energy    =      -1.9665249356838430 [Eh]
	 SCS Total Energy          =    -460.6261543721230396 [Eh]
	-----------------------------------------------------------

  Dipole Moment: [D]
     X:    -0.4247      Y:     1.0817      Z:    -0.0009     Total:     1.1621

*** Psi4 exiting successfully. Buy a developer a beer!
