                               Psi4 1.4a3.dev225

  ==> Input File <==

--------------------------------------------------------------------------
#psi4
#
memory 32 gb

molecule  {
0 1
  O       -1.8116000     2.3801270     0.1363720
  O       -1.7799440    -2.3994320     0.1189850
  C        0.9489570    -0.0306590    -0.3689570
  C        2.3934489    -0.0559921    -0.5641610
  C        0.2354480    -1.2220220    -0.2373930
  C        0.2798030     1.1938580    -0.2383990
  C        3.1984060    -0.0265600     0.7613490
  C       -1.0921630     1.2139390     0.0079710
  C       -1.1396310    -1.1871160     0.0102260
  C       -1.8132500     0.0254130     0.1385790
  H        2.7180680    -0.9584190    -1.1301260
  H        2.7446220     0.7994920    -1.1857830
  H        0.7258350    -2.1872220    -0.3369480
  H        0.8309290     2.1284970    -0.3452230
  H        2.9508560     0.8787730     1.3230630
  H        4.2811760    -0.0477390     0.6027570
  H        2.9230980    -0.8883860     1.3756490
  H       -2.8837580     0.0741080     0.3259950
  H       -1.1979550     3.1274200     0.0245130
  H       -2.7238770    -2.2320380     0.2881370
units angstrom
no_reorient  #important for SAPT in psi4, default
symmetry c1  #important for SAPT in psi4, default
}

set PROPERTIES_ORIGIN ["COM"]
properties('MP2/aug-cc-pvtz', properties = ['dipole'])
--------------------------------------------------------------------------

    Molecular point group: c1
  Charge       = 0
  Multiplicity = 1
  Basis Set: AUG-CC-PVTZ
    Blend: AUG-CC-PVTZ
  Basis Set: (AUG-CC-PVTZ AUX)
    Blend: AUG-CC-PVTZ-JKFIT

    Orbital Energies [Eh]
    ---------------------

    Doubly Occupied:

       1A    -20.595942     2A    -20.593643     3A    -11.311444
       4A    -11.309552     5A    -11.250436     6A    -11.233208
       7A    -11.224967     8A    -11.223696     9A    -11.221219
      10A    -11.217244    11A     -1.404524    12A     -1.401106
      13A     -1.152689    14A     -1.066238    15A     -1.001587
      16A     -0.985335    17A     -0.880421    18A     -0.836890
      19A     -0.805863    20A     -0.739453    21A     -0.687600
      22A     -0.674686    23A     -0.666961    24A     -0.614042
      25A     -0.601114    26A     -0.594683    27A     -0.586807
      28A     -0.576043    29A     -0.553840    30A     -0.550341
      31A     -0.523619    32A     -0.517180    33A     -0.493193
      34A     -0.481238    35A     -0.451442    36A     -0.325277
      37A     -0.311925

  @DF-RHF Final Energy:  -458.65646408839876

   => Energetics <=

    Nuclear Repulsion Energy =            507.8205210446449769
    One-Electron Energy =               -1631.6230686854071337
    Two-Electron Energy =                 665.1460835523635069
    Total Energy =                       -458.6564640883987067
  Basis Set: (AUG-CC-PVTZ AUX)
    Blend: AUG-CC-PVTZ-RI
    Molecular point group: c1

    Geometry (in Angstrom), charge = 0, multiplicity = 1:

       Center              X                  Y                   Z               Mass
    ------------   -----------------  -----------------  -----------------  -----------------
         O           -1.732913592869     2.385041464325     0.142568951126    15.994914619570
         O           -1.701257592869    -2.394517535675     0.125181951126    15.994914619570
         C            1.027643407131    -0.025744535675    -0.362760048874    12.000000000000
         C            2.472135307131    -0.051077635675    -0.557964048874    12.000000000000
         C            0.314134407131    -1.217107535675    -0.231196048874    12.000000000000
         C            0.358489407131     1.198772464325    -0.232202048874    12.000000000000
         C            3.277092407131    -0.021645535675     0.767545951126    12.000000000000
         C           -1.013476592869     1.218853464325     0.014167951126    12.000000000000
         C           -1.060944592869    -1.182201535675     0.016422951126    12.000000000000
         C           -1.734563592869     0.030327464325     0.144775951126    12.000000000000
         H            2.796754407131    -0.953504535675    -1.123929048874     1.007825032230
         H            2.823308407131     0.804406464325    -1.179586048874     1.007825032230
         H            0.804521407131    -2.182307535675    -0.330751048874     1.007825032230
         H            0.909615407131     2.133411464325    -0.339026048874     1.007825032230
         H            3.029542407131     0.883687464325     1.329259951126     1.007825032230
         H            4.359862407131    -0.042824535675     0.608953951126     1.007825032230
         H            3.001784407131    -0.883471535675     1.381845951126     1.007825032230
         H           -2.805071592869     0.079022464325     0.332191951126     1.007825032230
         H           -1.119268592869     3.132334464325     0.030709951126     1.007825032230
         H           -2.645190592869    -2.227123535675     0.294333951126     1.007825032230

  Basis Set: AUG-CC-PVTZ
    Blend: AUG-CC-PVTZ
  Basis Set: (AUG-CC-PVTZ AUX)
    Blend: AUG-CC-PVTZ-JKFIT
	 Reference Energy          =    -458.6564640883987636 [Eh]
	 Singles Energy            =      -0.0000000000000000 [Eh]
	 Same-Spin Energy          =      -0.4821891545950392 [Eh]
	 Opposite-Spin Energy      =      -1.5060690454902304 [Eh]
	 Correlation Energy        =      -1.9882582000852695 [Eh]
	 Total Energy              =    -460.6447222884840471 [Eh]

	 ================> DF-SCS-MP2 Energies <==================
	-----------------------------------------------------------
	 SCS Same-Spin Scale       =       0.3333333333333333 [-]
	 SCS Opposite-Spin Scale   =       1.2000000000000000 [-]
	 SCS Same-Spin Energy      =      -0.1607297181983464 [Eh]
	 SCS Opposite-Spin Energy  =      -1.8072828545882764 [Eh]
	 SCS Correlation Energy    =      -1.9680125727866229 [Eh]
	 SCS Total Energy          =    -460.6244766611853834 [Eh]
	-----------------------------------------------------------

  Dipole Moment: [D]
     X:     0.5065      Y:     1.2229      Z:    -0.0135     Total:     1.3237

*** Psi4 exiting successfully. Buy a developer a beer!
