                               Psi4 1.3.2 release

  ==> Input File <==

--------------------------------------------------------------------------
#psi4
#
memory 32 gb

molecule  {
0 1
  O        1.7627890     2.3683800    -0.1458810
  O        1.6754140    -2.4069960    -0.1279020
  C       -1.0215720    -0.0077180     0.3641480
  C       -2.5139530    -0.0194410     0.5634370
  C       -0.3230660    -1.2073880     0.2343750
  C       -0.3370590     1.2052280     0.2348720
  C       -3.2735700    -0.0197480    -0.7643280
  C        1.0876941     1.2949515    -0.0274045
  C        1.0480560    -1.1910380    -0.0190010
  C        1.7368580     0.0147850    -0.1457440
  H       -2.7927850    -0.9030380     1.1483340
  H       -2.8082890     0.8538600     1.1573130
  H       -0.8312370    -2.1635460     0.3309200
  H       -0.8789600     2.1456520     0.3351900
  H       -3.0230990     0.8672620    -1.3527740
  H       -4.3574070    -0.0294260    -0.6053230
  H       -3.0076490    -0.8981260    -1.3586750
  H        2.8074370     0.0467670    -0.3362510
  H        1.1590650     3.1223080    -0.0299710
  H        2.6215300    -2.2543830    -0.2976190
units angstrom
no_reorient  #important for SAPT in psi4, default
symmetry c1  #important for SAPT in psi4, default
}

set PROPERTIES_ORIGIN ["COM"]
properties('MP2/aug-cc-pvtz', properties = ['dipole'])
--------------------------------------------------------------------------

    Molecular point group: c1
  Charge       = 0
  Multiplicity = 1
  Basis Set: AUG-CC-PVTZ
    Blend: AUG-CC-PVTZ
  Basis Set: (AUG-CC-PVTZ AUX)
    Blend: AUG-CC-PVTZ-JKFIT

    Orbital Energies [Eh]
    ---------------------

    Doubly Occupied:

       1A    -20.617471     2A    -20.590305     3A    -11.321920
       4A    -11.305611     5A    -11.248476     6A    -11.229684
       7A    -11.222663     8A    -11.222053     9A    -11.217237
      10A    -11.209506    11A     -1.465393    12A     -1.399093
      13A     -1.138606    14A     -1.056557    15A     -0.992403
      16A     -0.980995    17A     -0.871799    18A     -0.852874
      19A     -0.808113    20A     -0.749843    21A     -0.697774
      22A     -0.679658    23A     -0.662591    24A     -0.627631
      25A     -0.617631    26A     -0.597002    27A     -0.588472
      28A     -0.581340    29A     -0.551265    30A     -0.539977
      31A     -0.519411    32A     -0.510063    33A     -0.485306
      34A     -0.474288    35A     -0.446178    36A     -0.320407
      37A     -0.298387

  @DF-RHF Final Energy:  -458.64713554100109

   => Energetics <=

    Nuclear Repulsion Energy =            506.8647728230507710
    One-Electron Energy =               -1629.6278559113559368
    Two-Electron Energy =                 664.1159475473040175
    Total Energy =                       -458.6471355410011483
  Basis Set: (AUG-CC-PVTZ AUX)
    Blend: AUG-CC-PVTZ-RI
    Molecular point group: c1

    Geometry (in Angstrom), charge = 0, multiplicity = 1:

       Center              X                  Y                   Z               Mass
    ------------   -----------------  -----------------  -----------------  -----------------
         O            1.758182000210     2.361054561253    -0.145072471046    15.994914619570
         O            1.670807000210    -2.414321438747    -0.127093471046    15.994914619570
         C           -1.026178999790    -0.015043438747     0.364956528954    12.000000000000
         C           -2.518559999790    -0.026766438747     0.564245528954    12.000000000000
         C           -0.327672999790    -1.214713438747     0.235183528954    12.000000000000
         C           -0.341665999790     1.197902561253     0.235680528954    12.000000000000
         C           -3.278176999790    -0.027073438747    -0.763519471046    12.000000000000
         C            1.083087100210     1.287626061253    -0.026595971046    12.000000000000
         C            1.043449000210    -1.198363438747    -0.018192471046    12.000000000000
         C            1.732251000210     0.007459561253    -0.144935471046    12.000000000000
         H           -2.797391999790    -0.910363438747     1.149142528954     1.007825032230
         H           -2.812895999790     0.846534561253     1.158121528954     1.007825032230
         H           -0.835843999790    -2.170871438747     0.331728528954     1.007825032230
         H           -0.883566999790     2.138326561253     0.335998528954     1.007825032230
         H           -3.027705999790     0.859936561253    -1.351965471046     1.007825032230
         H           -4.362013999790    -0.036751438747    -0.604514471046     1.007825032230
         H           -3.012255999790    -0.905451438747    -1.357866471046     1.007825032230
         H            2.802830000210     0.039441561253    -0.335442471046     1.007825032230
         H            1.154458000210     3.114982561253    -0.029162471046     1.007825032230
         H            2.616923000210    -2.261708438747    -0.296810471046     1.007825032230

  Basis Set: AUG-CC-PVTZ
    Blend: AUG-CC-PVTZ
  Basis Set: (AUG-CC-PVTZ AUX)
    Blend: AUG-CC-PVTZ-JKFIT
	 Reference Energy          =    -458.6471355410010915 [Eh]
	 Singles Energy            =      -0.0000000000000000 [Eh]
	 Same-Spin Energy          =      -0.4818700414242185 [Eh]
	 Opposite-Spin Energy      =      -1.5047284537410985 [Eh]
	 Correlation Energy        =      -1.9865984951653171 [Eh]
	 Total Energy              =    -460.6337340361664019 [Eh]

	 ================> DF-SCS-MP2 Energies <==================
	-----------------------------------------------------------
	 SCS Same-Spin Scale       =       0.3333333333333333 [-]
	 SCS Opposite-Spin Scale   =       1.2000000000000000 [-]
	 SCS Same-Spin Energy      =      -0.1606233471414062 [Eh]
	 SCS Opposite-Spin Energy  =      -1.8056741444893181 [Eh]
	 SCS Correlation Energy    =      -1.9662974916307243 [Eh]
	 SCS Total Energy          =    -460.6134330326318036 [Eh]
	-----------------------------------------------------------

  Dipole Moment: [D]
     X:    -0.1250      Y:     1.8939      Z:    -0.0453     Total:     1.8986

*** Psi4 exiting successfully. Buy a developer a beer!
