                               Psi4 1.3.2 release

  ==> Input File <==

--------------------------------------------------------------------------
#psi4
#
memory 32 gb

molecule  {
0 1
  O        1.7627890     2.3683800    -0.1458810
  O        1.6754140    -2.4069960    -0.1279020
  C       -0.9588704     0.0278204     0.3525810
  C       -2.5139530    -0.0194410     0.5634370
  C       -0.3230660    -1.2073880     0.2343750
  C       -0.3370590     1.2052280     0.2348720
  C       -3.2735700    -0.0197480    -0.7643280
  C        1.0346870     1.2106680    -0.0181020
  C        1.0453430    -1.1180865    -0.0184578
  C        1.7368580     0.0147850    -0.1457440
  H       -2.7927850    -0.9030380     1.1483340
  H       -2.8082890     0.8538600     1.1573130
  H       -0.8312370    -2.1635460     0.3309200
  H       -0.8789600     2.1456520     0.3351900
  H       -3.0230990     0.8672620    -1.3527740
  H       -4.3574070    -0.0294260    -0.6053230
  H       -3.0076490    -0.8981260    -1.3586750
  H        2.8074370     0.0467670    -0.3362510
  H        1.1590650     3.1223080    -0.0299710
  H        2.6215300    -2.2543830    -0.2976190
units angstrom
no_reorient  #important for SAPT in psi4, default
symmetry c1  #important for SAPT in psi4, default
}

set PROPERTIES_ORIGIN ["COM"]
properties('MP2/aug-cc-pvtz', properties = ['dipole'])
--------------------------------------------------------------------------

    Molecular point group: c1
  Charge       = 0
  Multiplicity = 1
  Basis Set: AUG-CC-PVTZ
    Blend: AUG-CC-PVTZ
  Basis Set: (AUG-CC-PVTZ AUX)
    Blend: AUG-CC-PVTZ-JKFIT

    Orbital Energies [Eh]
    ---------------------

    Doubly Occupied:

       1A    -20.599858     2A    -20.580884     3A    -11.315327
       4A    -11.302035     5A    -11.247094     6A    -11.234028
       7A    -11.222472     8A    -11.221305     9A    -11.218768
      10A    -11.217390    11A     -1.409165    12A     -1.370483
      13A     -1.164350    14A     -1.064540    15A     -1.008165
      16A     -0.994965    17A     -0.869242    18A     -0.845493
      19A     -0.800778    20A     -0.738832    21A     -0.694071
      22A     -0.674515    23A     -0.650483    24A     -0.609470
      25A     -0.603346    26A     -0.595037    27A     -0.581723
      28A     -0.564207    29A     -0.559567    30A     -0.552396
      31A     -0.533272    32A     -0.520196    33A     -0.489430
      34A     -0.464255    35A     -0.463133    36A     -0.343263
      37A     -0.312086

  @DF-RHF Final Energy:  -458.64640979036272

   => Energetics <=

    Nuclear Repulsion Energy =            508.6108407818779256
    One-Electron Energy =               -1633.2432542519104572
    Two-Electron Energy =                 665.9860036796699205
    Total Energy =                       -458.6464097903626680
  Basis Set: (AUG-CC-PVTZ AUX)
    Blend: AUG-CC-PVTZ-RI
    Molecular point group: c1

    Geometry (in Angstrom), charge = 0, multiplicity = 1:

       Center              X                  Y                   Z               Mass
    ------------   -----------------  -----------------  -----------------  -----------------
         O            1.757575212600     2.358950694806    -0.144922866589    15.994914619570
         O            1.670200212600    -2.416425305194    -0.126943866589    15.994914619570
         C           -0.964084187400     0.018391094806     0.353539133411    12.000000000000
         C           -2.519166787400    -0.028870305194     0.564395133411    12.000000000000
         C           -0.328279787400    -1.216817305194     0.235333133411    12.000000000000
         C           -0.342272787400     1.195798694806     0.235830133411    12.000000000000
         C           -3.278783787400    -0.029177305194    -0.763369866589    12.000000000000
         C            1.029473212600     1.201238694806    -0.017143866589    12.000000000000
         C            1.040129212600    -1.127515805194    -0.017499666589    12.000000000000
         C            1.731644212600     0.005355694806    -0.144785866589    12.000000000000
         H           -2.797998787400    -0.912467305194     1.149292133411     1.007825032230
         H           -2.813502787400     0.844430694806     1.158271133411     1.007825032230
         H           -0.836450787400    -2.172975305194     0.331878133411     1.007825032230
         H           -0.884173787400     2.136222694806     0.336148133411     1.007825032230
         H           -3.028312787400     0.857832694806    -1.351815866589     1.007825032230
         H           -4.362620787400    -0.038855305194    -0.604364866589     1.007825032230
         H           -3.012862787400    -0.907555305194    -1.357716866589     1.007825032230
         H            2.802223212600     0.037337694806    -0.335292866589     1.007825032230
         H            1.153851212600     3.112878694806    -0.029012866589     1.007825032230
         H            2.616316212600    -2.263812305194    -0.296660866589     1.007825032230

  Basis Set: AUG-CC-PVTZ
    Blend: AUG-CC-PVTZ
  Basis Set: (AUG-CC-PVTZ AUX)
    Blend: AUG-CC-PVTZ-JKFIT
	 Reference Energy          =    -458.6464097903627248 [Eh]
	 Singles Energy            =      -0.0000000000000000 [Eh]
	 Same-Spin Energy          =      -0.4817684559135382 [Eh]
	 Opposite-Spin Energy      =      -1.5060482147573417 [Eh]
	 Correlation Energy        =      -1.9878166706708800 [Eh]
	 Total Energy              =    -460.6342264610336201 [Eh]

	 ================> DF-SCS-MP2 Energies <==================
	-----------------------------------------------------------
	 SCS Same-Spin Scale       =       0.3333333333333333 [-]
	 SCS Opposite-Spin Scale   =       1.2000000000000000 [-]
	 SCS Same-Spin Energy      =      -0.1605894853045127 [Eh]
	 SCS Opposite-Spin Energy  =      -1.8072578577088101 [Eh]
	 SCS Correlation Energy    =      -1.9678473430133228 [Eh]
	 SCS Total Energy          =    -460.6142571333760429 [Eh]
	-----------------------------------------------------------

  Dipole Moment: [D]
     X:    -0.6029      Y:     1.6717      Z:     0.0370     Total:     1.7774

*** Psi4 exiting successfully. Buy a developer a beer!
