                               Psi4 1.3.2 release

  ==> Input File <==

--------------------------------------------------------------------------
#psi4
#
memory 32 gb

molecule  {
0 1
  O        1.7627890     2.3683800    -0.1458810
  O        1.6754140    -2.4069960    -0.1279020
  C       -1.0006444    -0.0196907     0.3603189
  C       -2.5139530    -0.0194410     0.5634370
  C       -0.3230660    -1.2073880     0.2343750
  C       -0.3370590     1.2052280     0.2348720
  C       -3.2735700    -0.0197480    -0.7643280
  C        1.0345823     1.1863233    -0.0180216
  C        1.0480560    -1.1910380    -0.0190010
  C        1.7368580     0.0147850    -0.1457440
  H       -2.7927850    -0.9030380     1.1483340
  H       -2.8082890     0.8538600     1.1573130
  H       -0.8312370    -2.1635460     0.3309200
  H       -0.8789600     2.1456520     0.3351900
  H       -3.0230990     0.8672620    -1.3527740
  H       -4.3574070    -0.0294260    -0.6053230
  H       -3.0076490    -0.8981260    -1.3586750
  H        2.8074370     0.0467670    -0.3362510
  H        1.1590650     3.1223080    -0.0299710
  H        2.6215300    -2.2543830    -0.2976190
units angstrom
no_reorient  #important for SAPT in psi4, default
symmetry c1  #important for SAPT in psi4, default
}

set PROPERTIES_ORIGIN ["COM"]
properties('MP2/aug-cc-pvtz', properties = ['dipole'])
--------------------------------------------------------------------------

    Molecular point group: c1
  Charge       = 0
  Multiplicity = 1
  Basis Set: AUG-CC-PVTZ
    Blend: AUG-CC-PVTZ
  Basis Set: (AUG-CC-PVTZ AUX)
    Blend: AUG-CC-PVTZ-JKFIT

    Orbital Energies [Eh]
    ---------------------

    Doubly Occupied:

       1A    -20.594803     2A    -20.590914     3A    -11.310524
       4A    -11.308426     5A    -11.249853     6A    -11.232747
       7A    -11.223568     8A    -11.222813     9A    -11.219373
      10A    -11.215259    11A     -1.404218    12A     -1.393190
      13A     -1.154585    14A     -1.063856    15A     -1.003706
      16A     -0.990351    17A     -0.874863    18A     -0.837051
      19A     -0.808093    20A     -0.736739    21A     -0.689738
      22A     -0.673300    23A     -0.666695    24A     -0.608977
      25A     -0.600757    26A     -0.594832    27A     -0.586696
      28A     -0.573037    29A     -0.554559    30A     -0.549874
      31A     -0.528472    32A     -0.520912    33A     -0.488750
      34A     -0.476363    35A     -0.457043    36A     -0.330595
      37A     -0.312659

  @DF-RHF Final Energy:  -458.65909967456690

   => Energetics <=

    Nuclear Repulsion Energy =            507.8581152640952610
    One-Electron Energy =               -1631.7380425654430383
    Two-Electron Energy =                 665.2208276267809879
    Total Energy =                       -458.6590996745668463
  Basis Set: (AUG-CC-PVTZ AUX)
    Blend: AUG-CC-PVTZ-RI
    Molecular point group: c1

    Geometry (in Angstrom), charge = 0, multiplicity = 1:

       Center              X                  Y                   Z               Mass
    ------------   -----------------  -----------------  -----------------  -----------------
         O            1.760979246331     2.371536425017    -0.145555172045    15.994914619570
         O            1.673604246331    -2.403839574983    -0.127576172045    15.994914619570
         C           -1.002454153669    -0.016534274983     0.360644727955    12.000000000000
         C           -2.515762753669    -0.016284574983     0.563762827955    12.000000000000
         C           -0.324875753669    -1.204231574983     0.234700827955    12.000000000000
         C           -0.338868753669     1.208384425017     0.235197827955    12.000000000000
         C           -3.275379753669    -0.016591574983    -0.764002172045    12.000000000000
         C            1.032772546331     1.189479725017    -0.017695772045    12.000000000000
         C            1.046246246331    -1.187881574983    -0.018675172045    12.000000000000
         C            1.735048246331     0.017941425017    -0.145418172045    12.000000000000
         H           -2.794594753669    -0.899881574983     1.148659827955     1.007825032230
         H           -2.810098753669     0.857016425017     1.157638827955     1.007825032230
         H           -0.833046753669    -2.160389574983     0.331245827955     1.007825032230
         H           -0.880769753669     2.148808425017     0.335515827955     1.007825032230
         H           -3.024908753669     0.870418425017    -1.352448172045     1.007825032230
         H           -4.359216753669    -0.026269574983    -0.604997172045     1.007825032230
         H           -3.009458753669    -0.894969574983    -1.358349172045     1.007825032230
         H            2.805627246331     0.049923425017    -0.335925172045     1.007825032230
         H            1.157255246331     3.125464425017    -0.029645172045     1.007825032230
         H            2.619720246331    -2.251226574983    -0.297293172045     1.007825032230

  Basis Set: AUG-CC-PVTZ
    Blend: AUG-CC-PVTZ
  Basis Set: (AUG-CC-PVTZ AUX)
    Blend: AUG-CC-PVTZ-JKFIT
	 Reference Energy          =    -458.6590996745669031 [Eh]
	 Singles Energy            =      -0.0000000000000000 [Eh]
	 Same-Spin Energy          =      -0.4815316833640230 [Eh]
	 Opposite-Spin Energy      =      -1.5050616291493446 [Eh]
	 Correlation Energy        =      -1.9865933125133677 [Eh]
	 Total Energy              =    -460.6456929870802810 [Eh]

	 ================> DF-SCS-MP2 Energies <==================
	-----------------------------------------------------------
	 SCS Same-Spin Scale       =       0.3333333333333333 [-]
	 SCS Opposite-Spin Scale   =       1.2000000000000000 [-]
	 SCS Same-Spin Energy      =      -0.1605105611213410 [Eh]
	 SCS Opposite-Spin Energy  =      -1.8060739549792135 [Eh]
	 SCS Correlation Energy    =      -1.9665845161005544 [Eh]
	 SCS Total Energy          =    -460.6256841906674708 [Eh]
	-----------------------------------------------------------

  Dipole Moment: [D]
     X:    -0.5227      Y:     1.0686      Z:     0.0170     Total:     1.1897

*** Psi4 exiting successfully. Buy a developer a beer!
