                               Psi4 1.3.2 release

  ==> Input File <==

--------------------------------------------------------------------------
#psi4
#
memory 32 gb

molecule  {
0 1
  O        1.7627890     2.3683800    -0.1458810
  O        1.6754140    -2.4069960    -0.1279020
  C       -0.9795147    -0.0312903     0.3564515
  C       -2.5139530    -0.0194410     0.5634370
  C       -0.3230660    -1.2073880     0.2343750
  C       -0.3370590     1.2052280     0.2348720
  C       -3.2735700    -0.0197480    -0.7643280
  C        1.0340599     1.1619843    -0.0178641
  C        1.0480560    -1.1910380    -0.0190010
  C        1.7368580     0.0147850    -0.1457440
  H       -2.7927850    -0.9030380     1.1483340
  H       -2.8082890     0.8538600     1.1573130
  H       -0.8312370    -2.1635460     0.3309200
  H       -0.8789600     2.1456520     0.3351900
  H       -3.0230990     0.8672620    -1.3527740
  H       -4.3574070    -0.0294260    -0.6053230
  H       -3.0076490    -0.8981260    -1.3586750
  H        2.8074370     0.0467670    -0.3362510
  H        1.1590650     3.1223080    -0.0299710
  H        2.6215300    -2.2543830    -0.2976190
units angstrom
no_reorient  #important for SAPT in psi4, default
symmetry c1  #important for SAPT in psi4, default
}

set PROPERTIES_ORIGIN ["COM"]
properties('MP2/aug-cc-pvtz', properties = ['dipole'])
--------------------------------------------------------------------------

    Molecular point group: c1
  Charge       = 0
  Multiplicity = 1
  Basis Set: AUG-CC-PVTZ
    Blend: AUG-CC-PVTZ
  Basis Set: (AUG-CC-PVTZ AUX)
    Blend: AUG-CC-PVTZ-JKFIT

    Orbital Energies [Eh]
    ---------------------

    Doubly Occupied:

       1A    -20.596324     2A    -20.586122     3A    -11.312333
       4A    -11.306518     5A    -11.248407     6A    -11.233334
       7A    -11.223119     8A    -11.223014     9A    -11.219035
      10A    -11.214519    11A     -1.405689    12A     -1.382314
      13A     -1.159222    14A     -1.064047    15A     -1.006591
      16A     -0.992124    17A     -0.873304    18A     -0.837957
      19A     -0.807685    20A     -0.734018    21A     -0.692113
      22A     -0.670885    23A     -0.667321    24A     -0.607029
      25A     -0.599495    26A     -0.595013    27A     -0.586344
      28A     -0.568920    29A     -0.556849    30A     -0.549828
      31A     -0.532952    32A     -0.520123    33A     -0.489318
      34A     -0.469310    35A     -0.460047    36A     -0.336131
      37A     -0.313220

  @DF-RHF Final Energy:  -458.65462496265820

   => Energetics <=

    Nuclear Repulsion Energy =            508.2354405190005195
    One-Electron Energy =               -1632.4989866247051395
    Two-Electron Energy =                 665.6089211430463592
    Total Energy =                       -458.6546249626582039
  Basis Set: (AUG-CC-PVTZ AUX)
    Blend: AUG-CC-PVTZ-RI
    Molecular point group: c1

    Geometry (in Angstrom), charge = 0, multiplicity = 1:

       Center              X                  Y                   Z               Mass
    ------------   -----------------  -----------------  -----------------  -----------------
         O            1.759188190782     2.374659979725    -0.145232731115    15.994914619570
         O            1.671813190782    -2.400716020275    -0.127253731115    15.994914619570
         C           -0.983115509218    -0.025010320275     0.357099768885    12.000000000000
         C           -2.517553809218    -0.013161020275     0.564085268885    12.000000000000
         C           -0.326666809218    -1.201108020275     0.235023268885    12.000000000000
         C           -0.340659809218     1.211507979725     0.235520268885    12.000000000000
         C           -3.277170809218    -0.013468020275    -0.763679731115    12.000000000000
         C            1.030459090782     1.168264279725    -0.017215831115    12.000000000000
         C            1.044455190782    -1.184758020275    -0.018352731115    12.000000000000
         C            1.733257190782     0.021064979725    -0.145095731115    12.000000000000
         H           -2.796385809218    -0.896758020275     1.148982268885     1.007825032230
         H           -2.811889809218     0.860139979725     1.157961268885     1.007825032230
         H           -0.834837809218    -2.157266020275     0.331568268885     1.007825032230
         H           -0.882560809218     2.151931979725     0.335838268885     1.007825032230
         H           -3.026699809218     0.873541979725    -1.352125731115     1.007825032230
         H           -4.361007809218    -0.023146020275    -0.604674731115     1.007825032230
         H           -3.011249809218    -0.891846020275    -1.358026731115     1.007825032230
         H            2.803836190782     0.053046979725    -0.335602731115     1.007825032230
         H            1.155464190782     3.128587979725    -0.029322731115     1.007825032230
         H            2.617929190782    -2.248103020275    -0.296970731115     1.007825032230

  Basis Set: AUG-CC-PVTZ
    Blend: AUG-CC-PVTZ
  Basis Set: (AUG-CC-PVTZ AUX)
    Blend: AUG-CC-PVTZ-JKFIT
	 Reference Energy          =    -458.6546249626582039 [Eh]
	 Singles Energy            =      -0.0000000000000000 [Eh]
	 Same-Spin Energy          =      -0.4814506827127045 [Eh]
	 Opposite-Spin Energy      =      -1.5051492132281301 [Eh]
	 Correlation Energy        =      -1.9865998959408346 [Eh]
	 Total Energy              =    -460.6412248585990596 [Eh]

	 ================> DF-SCS-MP2 Energies <==================
	-----------------------------------------------------------
	 SCS Same-Spin Scale       =       0.3333333333333333 [-]
	 SCS Opposite-Spin Scale   =       1.2000000000000000 [-]
	 SCS Same-Spin Energy      =      -0.1604835609042348 [Eh]
	 SCS Opposite-Spin Energy  =      -1.8061790558737560 [Eh]
	 SCS Correlation Energy    =      -1.9666626167779908 [Eh]
	 SCS Total Energy          =    -460.6212875794361707 [Eh]
	-----------------------------------------------------------

  Dipole Moment: [D]
     X:    -0.5449      Y:     0.9142      Z:     0.0241     Total:     1.0646

*** Psi4 exiting successfully. Buy a developer a beer!
