                               Psi4 1.4a3.dev225

  ==> Input File <==

--------------------------------------------------------------------------
#psi4
#
memory 32 gb

molecule  {
0 1
  O       -1.8116000     2.3801270     0.1363720
  O       -1.7799440    -2.3994320     0.1189850
  C        0.9489570    -0.0306590    -0.3689570
  C        2.4429910    -0.0568610    -0.5708560
  C        0.2354480    -1.2220220    -0.2373930
  C        0.2798030     1.1938580    -0.2383990
  C        3.1984060    -0.0265600     0.7613490
  C       -1.0921630     1.2139390     0.0079710
  C       -1.1396310    -1.1871160     0.0102260
  C       -1.8132500     0.0254130     0.1385790
  H        2.7180680    -0.9584190    -1.1301260
  H        2.7446220     0.7994920    -1.1857830
  H        0.7168139    -2.1694663    -0.3351166
  H        0.8309290     2.1284970    -0.3452230
  H        2.9508560     0.8787730     1.3230630
  H        4.2811760    -0.0477390     0.6027570
  H        2.9230980    -0.8883860     1.3756490
  H       -2.8837580     0.0741080     0.3259950
  H       -1.1979550     3.1274200     0.0245130
  H       -2.7238770    -2.2320380     0.2881370
units angstrom
no_reorient  #important for SAPT in psi4, default
symmetry c1  #important for SAPT in psi4, default
}

set PROPERTIES_ORIGIN ["COM"]
properties('MP2/aug-cc-pvtz', properties = ['dipole'])
--------------------------------------------------------------------------

    Molecular point group: c1
  Charge       = 0
  Multiplicity = 1
  Basis Set: AUG-CC-PVTZ
    Blend: AUG-CC-PVTZ
  Basis Set: (AUG-CC-PVTZ AUX)
    Blend: AUG-CC-PVTZ-JKFIT

    Orbital Energies [Eh]
    ---------------------

    Doubly Occupied:

       1A    -20.595637     2A    -20.593386     3A    -11.311090
       4A    -11.309078     5A    -11.252184     6A    -11.232643
       7A    -11.224436     8A    -11.223250     9A    -11.219923
      10A    -11.214566    11A     -1.404223    12A     -1.400843
      13A     -1.149772    14A     -1.063531    15A     -1.001607
      16A     -0.987847    17A     -0.876376    18A     -0.836760
      19A     -0.807623    20A     -0.739194    21A     -0.688180
      22A     -0.674877    23A     -0.666240    24A     -0.611683
      25A     -0.602065    26A     -0.595297    27A     -0.588537
      28A     -0.575768    29A     -0.553321    30A     -0.548711
      31A     -0.524135    32A     -0.522150    33A     -0.488349
      34A     -0.482836    35A     -0.453654    36A     -0.325868
      37A     -0.311465

  @DF-RHF Final Energy:  -458.65981155114008

   => Energetics <=

    Nuclear Repulsion Energy =            507.1946537418538128
    One-Electron Energy =               -1630.3947202197241495
    Two-Electron Energy =                 664.5402549267301993
    Total Energy =                       -458.6598115511400238
  Basis Set: (AUG-CC-PVTZ AUX)
    Blend: AUG-CC-PVTZ-RI
    Molecular point group: c1

    Geometry (in Angstrom), charge = 0, multiplicity = 1:

       Center              X                  Y                   Z               Mass
    ------------   -----------------  -----------------  -----------------  -----------------
         O           -1.737153628013     2.384987376233     0.143137469711    15.994914619570
         O           -1.705497628013    -2.394571623767     0.125750469711    15.994914619570
         C            1.023403371987    -0.025798623767    -0.362191530289    12.000000000000
         C            2.517437371987    -0.052000623767    -0.564090530289    12.000000000000
         C            0.309894371987    -1.217161623767    -0.230627530289    12.000000000000
         C            0.354249371987     1.198718376233    -0.231633530289    12.000000000000
         C            3.272852371987    -0.021699623767     0.768114469711    12.000000000000
         C           -1.017716628013     1.218799376233     0.014736469711    12.000000000000
         C           -1.065184628013    -1.182255623767     0.016991469711    12.000000000000
         C           -1.738803628013     0.030273376233     0.145344469711    12.000000000000
         H            2.792514371987    -0.953558623767    -1.123360530289     1.007825032230
         H            2.819068371987     0.804352376233    -1.179017530289     1.007825032230
         H            0.791260271987    -2.164605923767    -0.328351130289     1.007825032230
         H            0.905375371987     2.133357376233    -0.338457530289     1.007825032230
         H            3.025302371987     0.883633376233     1.329828469711     1.007825032230
         H            4.355622371987    -0.042878623767     0.609522469711     1.007825032230
         H            2.997544371987    -0.883525623767     1.382414469711     1.007825032230
         H           -2.809311628013     0.078968376233     0.332760469711     1.007825032230
         H           -1.123508628013     3.132280376233     0.031278469711     1.007825032230
         H           -2.649430628013    -2.227177623767     0.294902469711     1.007825032230

  Basis Set: AUG-CC-PVTZ
    Blend: AUG-CC-PVTZ
  Basis Set: (AUG-CC-PVTZ AUX)
    Blend: AUG-CC-PVTZ-JKFIT
	 Reference Energy          =    -458.6598115511400806 [Eh]
	 Singles Energy            =      -0.0000000000000000 [Eh]
	 Same-Spin Energy          =      -0.4816834513857990 [Eh]
	 Opposite-Spin Energy      =      -1.5053499862969459 [Eh]
	 Correlation Energy        =      -1.9870334376827450 [Eh]
	 Total Energy              =    -460.6468449888228065 [Eh]

	 ================> DF-SCS-MP2 Energies <==================
	-----------------------------------------------------------
	 SCS Same-Spin Scale       =       0.3333333333333333 [-]
	 SCS Opposite-Spin Scale   =       1.2000000000000000 [-]
	 SCS Same-Spin Energy      =      -0.1605611504619330 [Eh]
	 SCS Opposite-Spin Energy  =      -1.8064199835563350 [Eh]
	 SCS Correlation Energy    =      -1.9669811340182681 [Eh]
	 SCS Total Energy          =    -460.6267926851583638 [Eh]
	-----------------------------------------------------------

  Dipole Moment: [D]
     X:     0.5310      Y:     1.2202      Z:    -0.0180     Total:     1.3309

*** Psi4 exiting successfully. Buy a developer a beer!
