                               Psi4 1.4a3.dev225

  ==> Input File <==

--------------------------------------------------------------------------
#psi4
#
memory 32 gb

molecule  {
0 1
  O       -1.8116000     2.3801270     0.1363720
  O       -1.7799440    -2.3994320     0.1189850
  C        0.9489570    -0.0306590    -0.3689570
  C        2.4628079    -0.0572085    -0.5735340
  C        0.2354480    -1.2220220    -0.2373930
  C        0.2798030     1.1938580    -0.2383990
  C        3.1984060    -0.0265600     0.7613490
  C       -1.0921630     1.2139390     0.0079710
  C       -1.1396310    -1.1871160     0.0102260
  C       -1.8132500     0.0254130     0.1385790
  H        2.7180680    -0.9584190    -1.1301260
  H        2.7446220     0.7994920    -1.1857830
  H        0.7258350    -2.1872220    -0.3369480
  H        0.8309290     2.1284970    -0.3452230
  H        2.9508560     0.8787730     1.3230630
  H        4.2811760    -0.0477390     0.6027570
  H        2.9230980    -0.8883860     1.3756490
  H       -2.8837580     0.0741080     0.3259950
  H       -1.1979550     3.1274200     0.0245130
  H       -2.7238770    -2.2320380     0.2881370
units angstrom
no_reorient  #important for SAPT in psi4, default
symmetry c1  #important for SAPT in psi4, default
}

set PROPERTIES_ORIGIN ["COM"]
properties('MP2/aug-cc-pvtz', properties = ['dipole'])
--------------------------------------------------------------------------

    Molecular point group: c1
  Charge       = 0
  Multiplicity = 1
  Basis Set: AUG-CC-PVTZ
    Blend: AUG-CC-PVTZ
  Basis Set: (AUG-CC-PVTZ AUX)
    Blend: AUG-CC-PVTZ-JKFIT

    Orbital Energies [Eh]
    ---------------------

    Doubly Occupied:

       1A    -20.595578     2A    -20.593274     3A    -11.311024
       4A    -11.309141     5A    -11.252964     6A    -11.232568
       7A    -11.224406     8A    -11.223259     9A    -11.219486
      10A    -11.216730    11A     -1.404153    12A     -1.400736
      13A     -1.148727    14A     -1.062714    15A     -1.000796
      16A     -0.988700    17A     -0.874894    18A     -0.835775
      19A     -0.808281    20A     -0.738931    21A     -0.686905
      22A     -0.674118    23A     -0.665146    24A     -0.611262
      25A     -0.602639    26A     -0.595292    27A     -0.587320
      28A     -0.575686    29A     -0.553251    30A     -0.548029
      31A     -0.524848    32A     -0.522114    33A     -0.490788
      34A     -0.478190    35A     -0.454414    36A     -0.326141
      37A     -0.311384

  @DF-RHF Final Energy:  -458.65951415351930

   => Energetics <=

    Nuclear Repulsion Energy =            506.8012677271438520
    One-Electron Energy =               -1629.6222342351461521
    Two-Electron Energy =                 664.1614523544830035
    Total Energy =                       -458.6595141535193534
  Basis Set: (AUG-CC-PVTZ AUX)
    Blend: AUG-CC-PVTZ-RI
    Molecular point group: c1

    Geometry (in Angstrom), charge = 0, multiplicity = 1:

       Center              X                  Y                   Z               Mass
    ------------   -----------------  -----------------  -----------------  -----------------
         O           -1.738941836346     2.385147186082     0.143383592717    15.994914619570
         O           -1.707285836346    -2.394411813918     0.125996592717    15.994914619570
         C            1.021615163654    -0.025638813918    -0.361945407283    12.000000000000
         C            2.535466063654    -0.052188313918    -0.566522407283    12.000000000000
         C            0.308106163654    -1.217001813918    -0.230381407283    12.000000000000
         C            0.352461163654     1.198878186082    -0.231387407283    12.000000000000
         C            3.271064163654    -0.021539813918     0.768360592717    12.000000000000
         C           -1.019504836346     1.218959186082     0.014982592717    12.000000000000
         C           -1.066972836346    -1.182095813918     0.017237592717    12.000000000000
         C           -1.740591836346     0.030433186082     0.145590592717    12.000000000000
         H            2.790726163654    -0.953398813918    -1.123114407283     1.007825032230
         H            2.817280163654     0.804512186082    -1.178771407283     1.007825032230
         H            0.798493163654    -2.182201813918    -0.329936407283     1.007825032230
         H            0.903587163654     2.133517186082    -0.338211407283     1.007825032230
         H            3.023514163654     0.883793186082     1.330074592717     1.007825032230
         H            4.353834163654    -0.042718813918     0.609768592717     1.007825032230
         H            2.995756163654    -0.883365813918     1.382660592717     1.007825032230
         H           -2.811099836346     0.079128186082     0.333006592717     1.007825032230
         H           -1.125296836346     3.132440186082     0.031524592717     1.007825032230
         H           -2.651218836346    -2.227017813918     0.295148592717     1.007825032230

  Basis Set: AUG-CC-PVTZ
    Blend: AUG-CC-PVTZ
  Basis Set: (AUG-CC-PVTZ AUX)
    Blend: AUG-CC-PVTZ-JKFIT
	 Reference Energy          =    -458.6595141535192965 [Eh]
	 Singles Energy            =      -0.0000000000000000 [Eh]
	 Same-Spin Energy          =      -0.4816187054478585 [Eh]
	 Opposite-Spin Energy      =      -1.5053744850767599 [Eh]
	 Correlation Energy        =      -1.9869931905246183 [Eh]
	 Total Energy              =    -460.6465073440439255 [Eh]

	 ================> DF-SCS-MP2 Energies <==================
	-----------------------------------------------------------
	 SCS Same-Spin Scale       =       0.3333333333333333 [-]
	 SCS Opposite-Spin Scale   =       1.2000000000000000 [-]
	 SCS Same-Spin Energy      =      -0.1605395684826195 [Eh]
	 SCS Opposite-Spin Energy  =      -1.8064493820921117 [Eh]
	 SCS Correlation Energy    =      -1.9669889505747311 [Eh]
	 SCS Total Energy          =    -460.6265031040940130 [Eh]
	-----------------------------------------------------------

  Dipole Moment: [D]
     X:     0.5381      Y:     1.2230      Z:    -0.0182     Total:     1.3363

*** Psi4 exiting successfully. Buy a developer a beer!
