                               Psi4 1.4a3.dev225

  ==> Input File <==

--------------------------------------------------------------------------
#psi4
#
memory 32 gb

molecule  {
0 1
  O       -1.8116000     2.3801270     0.1363720
  O       -1.7799440    -2.3994320     0.1189850
  C        0.9489570    -0.0306590    -0.3689570
  C        2.4429910    -0.0568610    -0.5708560
  C        0.2354480    -1.2220220    -0.2373930
  C        0.2798030     1.1938580    -0.2383990
  C        3.1984060    -0.0265600     0.7613490
  C       -1.0921630     1.2139390     0.0079710
  C       -1.1396310    -1.1871160     0.0102260
  C       -1.8132500     0.0254130     0.1385790
  H        2.7180680    -0.9584190    -1.1301260
  H        2.7446220     0.7994920    -1.1857830
  H        0.7258350    -2.1872220    -0.3369480
  H        0.8208192     2.1113520    -0.3432634
  H        2.9508560     0.8787730     1.3230630
  H        4.2811760    -0.0477390     0.6027570
  H        2.9230980    -0.8883860     1.3756490
  H       -2.8837580     0.0741080     0.3259950
  H       -1.1979550     3.1274200     0.0245130
  H       -2.7238770    -2.2320380     0.2881370
units angstrom
no_reorient  #important for SAPT in psi4, default
symmetry c1  #important for SAPT in psi4, default
}

set PROPERTIES_ORIGIN ["COM"]
properties('MP2/aug-cc-pvtz', properties = ['dipole'])
--------------------------------------------------------------------------

    Molecular point group: c1
  Charge       = 0
  Multiplicity = 1
  Basis Set: AUG-CC-PVTZ
    Blend: AUG-CC-PVTZ
  Basis Set: (AUG-CC-PVTZ AUX)
    Blend: AUG-CC-PVTZ-JKFIT

    Orbital Energies [Eh]
    ---------------------

    Doubly Occupied:

       1A    -20.595739     2A    -20.593306     3A    -11.310927
       4A    -11.309167     5A    -11.252118     6A    -11.232611
       7A    -11.224402     8A    -11.220965     9A    -11.219907
      10A    -11.216701    11A     -1.404282    12A     -1.400789
      13A     -1.149742    14A     -1.063502    15A     -1.001502
      16A     -0.987946    17A     -0.876514    18A     -0.836602
      19A     -0.807613    20A     -0.739082    21A     -0.688340
      22A     -0.674207    23A     -0.667015    24A     -0.611696
      25A     -0.602345    26A     -0.595627    27A     -0.587249
      28A     -0.575760    29A     -0.553835    30A     -0.548537
      31A     -0.524471    32A     -0.521525    33A     -0.488353
      34A     -0.482680    35A     -0.453623    36A     -0.325833
      37A     -0.311422

  @DF-RHF Final Energy:  -458.65981455993153

   => Energetics <=

    Nuclear Repulsion Energy =            507.1937307009588380
    One-Electron Energy =               -1630.3952208609366608
    Two-Electron Energy =                 664.5416756000462328
    Total Energy =                       -458.6598145599315330
  Basis Set: (AUG-CC-PVTZ AUX)
    Blend: AUG-CC-PVTZ-RI
    Molecular point group: c1

    Geometry (in Angstrom), charge = 0, multiplicity = 1:

       Center              X                  Y                   Z               Mass
    ------------   -----------------  -----------------  -----------------  -----------------
         O           -1.737145681070     2.385242133156     0.143136533918    15.994914619570
         O           -1.705489681070    -2.394316866844     0.125749533918    15.994914619570
         C            1.023411318930    -0.025543866844    -0.362192466082    12.000000000000
         C            2.517445318930    -0.051745866844    -0.564091466082    12.000000000000
         C            0.309902318930    -1.216906866844    -0.230628466082    12.000000000000
         C            0.354257318930     1.198973133156    -0.231634466082    12.000000000000
         C            3.272860318930    -0.021444866844     0.768113533918    12.000000000000
         C           -1.017708681070     1.219054133156     0.014735533918    12.000000000000
         C           -1.065176681070    -1.182000866844     0.016990533918    12.000000000000
         C           -1.738795681070     0.030528133156     0.145343533918    12.000000000000
         H            2.792522318930    -0.953303866844    -1.123361466082     1.007825032230
         H            2.819076318930     0.804607133156    -1.179018466082     1.007825032230
         H            0.800289318930    -2.182106866844    -0.330183466082     1.007825032230
         H            0.895273518930     2.116467133156    -0.336498866082     1.007825032230
         H            3.025310318930     0.883888133156     1.329827533918     1.007825032230
         H            4.355630318930    -0.042623866844     0.609521533918     1.007825032230
         H            2.997552318930    -0.883270866844     1.382413533918     1.007825032230
         H           -2.809303681070     0.079223133156     0.332759533918     1.007825032230
         H           -1.123500681070     3.132535133156     0.031277533918     1.007825032230
         H           -2.649422681070    -2.226922866844     0.294901533918     1.007825032230

  Basis Set: AUG-CC-PVTZ
    Blend: AUG-CC-PVTZ
  Basis Set: (AUG-CC-PVTZ AUX)
    Blend: AUG-CC-PVTZ-JKFIT
	 Reference Energy          =    -458.6598145599315330 [Eh]
	 Singles Energy            =      -0.0000000000000000 [Eh]
	 Same-Spin Energy          =      -0.4816874722293852 [Eh]
	 Opposite-Spin Energy      =      -1.5053608782165016 [Eh]
	 Correlation Energy        =      -1.9870483504458867 [Eh]
	 Total Energy              =    -460.6468629103774219 [Eh]

	 ================> DF-SCS-MP2 Energies <==================
	-----------------------------------------------------------
	 SCS Same-Spin Scale       =       0.3333333333333333 [-]
	 SCS Opposite-Spin Scale   =       1.2000000000000000 [-]
	 SCS Same-Spin Energy      =      -0.1605624907431284 [Eh]
	 SCS Opposite-Spin Energy  =      -1.8064330538598017 [Eh]
	 SCS Correlation Energy    =      -1.9669955446029301 [Eh]
	 SCS Total Energy          =    -460.6268101045344565 [Eh]
	-----------------------------------------------------------

  Dipole Moment: [D]
     X:     0.5309      Y:     1.2316      Z:    -0.0182     Total:     1.3413

*** Psi4 exiting successfully. Buy a developer a beer!
