                               Psi4 1.3.2 release

  ==> Input File <==

--------------------------------------------------------------------------
#psi4
#
memory 32 gb

molecule  {
0 1
  O        1.7627890     2.3683800    -0.1458810
  O        1.6754140    -2.4069960    -0.1279020
  C       -1.0318332    -0.0139635     0.3660822
  C       -2.5139530    -0.0194410     0.5634370
  C       -0.3230660    -1.2073880     0.2343750
  C       -0.3370590     1.2052280     0.2348720
  C       -3.2735700    -0.0197480    -0.7643280
  C        1.0346870     1.2106680    -0.0181020
  C        1.0480560    -1.1910380    -0.0190010
  C        1.7368580     0.0147850    -0.1457440
  H       -2.7927850    -0.9030380     1.1483340
  H       -2.8082890     0.8538600     1.1573130
  H       -0.8394192    -2.1589957     0.3324512
  H       -0.8789600     2.1456520     0.3351900
  H       -3.0230990     0.8672620    -1.3527740
  H       -4.3574070    -0.0294260    -0.6053230
  H       -3.0076490    -0.8981260    -1.3586750
  H        2.8074370     0.0467670    -0.3362510
  H        1.1590650     3.1223080    -0.0299710
  H        2.6215300    -2.2543830    -0.2976190
units angstrom
no_reorient  #important for SAPT in psi4, default
symmetry c1  #important for SAPT in psi4, default
}

set PROPERTIES_ORIGIN ["COM"]
properties('MP2/aug-cc-pvtz', properties = ['dipole'])
--------------------------------------------------------------------------

    Molecular point group: c1
  Charge       = 0
  Multiplicity = 1
  Basis Set: AUG-CC-PVTZ
    Blend: AUG-CC-PVTZ
  Basis Set: (AUG-CC-PVTZ AUX)
    Blend: AUG-CC-PVTZ-JKFIT

    Orbital Energies [Eh]
    ---------------------

    Doubly Occupied:

       1A    -20.595468     2A    -20.593403     3A    -11.310264
       4A    -11.309157     5A    -11.252088     6A    -11.231899
       7A    -11.224057     8A    -11.223325     9A    -11.220102
      10A    -11.216252    11A     -1.405206    12A     -1.401873
      13A     -1.149692    14A     -1.065417    15A     -1.000757
      16A     -0.987433    17A     -0.877924    18A     -0.836557
      19A     -0.808059    20A     -0.739179    21A     -0.687451
      22A     -0.675445    23A     -0.665918    24A     -0.612661
      25A     -0.602387    26A     -0.595817    27A     -0.587495
      28A     -0.576435    29A     -0.552316    30A     -0.549257
      31A     -0.523608    32A     -0.520443    33A     -0.488364
      34A     -0.484324    35A     -0.453078    36A     -0.325106
      37A     -0.311222

  @DF-RHF Final Energy:  -458.65970609265582

   => Energetics <=

    Nuclear Repulsion Energy =            507.4179374932114115
    One-Electron Energy =               -1630.8364122470950406
    Two-Electron Energy =                 664.7587686612278048
    Total Energy =                       -458.6597060926558242
  Basis Set: (AUG-CC-PVTZ AUX)
    Blend: AUG-CC-PVTZ-RI
    Molecular point group: c1

    Geometry (in Angstrom), charge = 0, multiplicity = 1:

       Center              X                  Y                   Z               Mass
    ------------   -----------------  -----------------  -----------------  -----------------
         O            1.763740604548     2.368889551768    -0.146060270558    15.994914619570
         O            1.676365604548    -2.406486448232    -0.128081270558    15.994914619570
         C           -1.030881595452    -0.013453948232     0.365902929442    12.000000000000
         C           -2.513001395452    -0.018931448232     0.563257729442    12.000000000000
         C           -0.322114395452    -1.206878448232     0.234195729442    12.000000000000
         C           -0.336107395452     1.205737551768     0.234692729442    12.000000000000
         C           -3.272618395452    -0.019238448232    -0.764507270558    12.000000000000
         C            1.035638604548     1.211177551768    -0.018281270558    12.000000000000
         C            1.049007604548    -1.190528448232    -0.019180270558    12.000000000000
         C            1.737809604548     0.015294551768    -0.145923270558    12.000000000000
         H           -2.791833395452    -0.902528448232     1.148154729442     1.007825032230
         H           -2.807337395452     0.854369551768     1.157133729442     1.007825032230
         H           -0.838467595452    -2.158486148232     0.332271929442     1.007825032230
         H           -0.878008395452     2.146161551768     0.335010729442     1.007825032230
         H           -3.022147395452     0.867771551768    -1.352953270558     1.007825032230
         H           -4.356455395452    -0.028916448232    -0.605502270558     1.007825032230
         H           -3.006697395452    -0.897616448232    -1.358854270558     1.007825032230
         H            2.808388604548     0.047276551768    -0.336430270558     1.007825032230
         H            1.160016604548     3.122817551768    -0.030150270558     1.007825032230
         H            2.622481604548    -2.253873448232    -0.297798270558     1.007825032230

  Basis Set: AUG-CC-PVTZ
    Blend: AUG-CC-PVTZ
  Basis Set: (AUG-CC-PVTZ AUX)
    Blend: AUG-CC-PVTZ-JKFIT
	 Reference Energy          =    -458.6597060926558242 [Eh]
	 Singles Energy            =      -0.0000000000000000 [Eh]
	 Same-Spin Energy          =      -0.4818388513243487 [Eh]
	 Opposite-Spin Energy      =      -1.5053852196037791 [Eh]
	 Correlation Energy        =      -1.9872240709281277 [Eh]
	 Total Energy              =    -460.6469301635839315 [Eh]

	 ================> DF-SCS-MP2 Energies <==================
	-----------------------------------------------------------
	 SCS Same-Spin Scale       =       0.3333333333333333 [-]
	 SCS Opposite-Spin Scale   =       1.2000000000000000 [-]
	 SCS Same-Spin Energy      =      -0.1606129504414495 [Eh]
	 SCS Opposite-Spin Energy  =      -1.8064622635245349 [Eh]
	 SCS Correlation Energy    =      -1.9670752139659844 [Eh]
	 SCS Total Energy          =    -460.6267813066218082 [Eh]
	-----------------------------------------------------------

  Dipole Moment: [D]
     X:    -0.5151      Y:     1.2149      Z:     0.0094     Total:     1.3196

*** Psi4 exiting successfully. Buy a developer a beer!
