                               Psi4 1.4a3.dev225

  ==> Input File <==

--------------------------------------------------------------------------
#psi4
#
memory 32 gb

molecule  {
0 1
  O       -1.8116000     2.3801270     0.1363720
  O       -1.7799440    -2.3994320     0.1189850
  C        0.9489570    -0.0306590    -0.3689570
  C        2.4429910    -0.0568610    -0.5708560
  C        0.2354480    -1.2220220    -0.2373930
  C        0.2798030     1.1938580    -0.2383990
  C        3.1984060    -0.0265600     0.7613490
  C       -1.0921630     1.2139390     0.0079710
  C       -1.1396310    -1.1871160     0.0102260
  C       -1.7890714    -0.0181091     0.1339719
  H        2.7180680    -0.9584190    -1.1301260
  H        2.7446220     0.7994920    -1.1857830
  H        0.7258350    -2.1872220    -0.3369480
  H        0.8309290     2.1284970    -0.3452230
  H        2.9508560     0.8787730     1.3230630
  H        4.2811760    -0.0477390     0.6027570
  H        2.9230980    -0.8883860     1.3756490
  H       -2.8837580     0.0741080     0.3259950
  H       -1.1979550     3.1274200     0.0245130
  H       -2.7238770    -2.2320380     0.2881370
units angstrom
no_reorient  #important for SAPT in psi4, default
symmetry c1  #important for SAPT in psi4, default
}

set PROPERTIES_ORIGIN ["COM"]
properties('MP2/aug-cc-pvtz', properties = ['dipole'])
--------------------------------------------------------------------------

    Molecular point group: c1
  Charge       = 0
  Multiplicity = 1
  Basis Set: AUG-CC-PVTZ
    Blend: AUG-CC-PVTZ
  Basis Set: (AUG-CC-PVTZ AUX)
    Blend: AUG-CC-PVTZ-JKFIT

    Orbital Energies [Eh]
    ---------------------

    Doubly Occupied:

       1A    -20.598849     2A    -20.590615     3A    -11.314817
       4A    -11.302109     5A    -11.251332     6A    -11.232303
       7A    -11.224709     8A    -11.223862     9A    -11.219618
      10A    -11.216759    11A     -1.405697    12A     -1.399812
      13A     -1.151883    14A     -1.065162    15A     -1.002303
      16A     -0.987500    17A     -0.875036    18A     -0.839870
      19A     -0.807118    20A     -0.739070    21A     -0.687014
      22A     -0.675850    23A     -0.664410    24A     -0.611979
      25A     -0.602949    26A     -0.595751    27A     -0.584525
      28A     -0.576253    29A     -0.555808    30A     -0.543999
      31A     -0.524188    32A     -0.519941    33A     -0.488036
      34A     -0.481230    35A     -0.455096    36A     -0.329869
      37A     -0.310375

  @DF-RHF Final Energy:  -458.65642623804001

   => Energetics <=

    Nuclear Repulsion Energy =            507.5611937542427654
    One-Electron Energy =               -1631.1238412019299631
    Two-Electron Energy =                 664.9062212096471285
    Total Energy =                       -458.6564262380400123
  Basis Set: (AUG-CC-PVTZ AUX)
    Blend: AUG-CC-PVTZ-RI
    Molecular point group: c1

    Geometry (in Angstrom), charge = 0, multiplicity = 1:

       Center              X                  Y                   Z               Mass
    ------------   -----------------  -----------------  -----------------  -----------------
         O           -1.739320927590     2.388899647923     0.143551257829    15.994914619570
         O           -1.707664927590    -2.390659352077     0.126164257829    15.994914619570
         C            1.021236072410    -0.021886352077    -0.361777742171    12.000000000000
         C            2.515270072410    -0.048088352077    -0.563676742171    12.000000000000
         C            0.307727072410    -1.213249352077    -0.230213742171    12.000000000000
         C            0.352082072410     1.202630647923    -0.231219742171    12.000000000000
         C            3.270685072410    -0.017787352077     0.768528257829    12.000000000000
         C           -1.019883927590     1.222711647923     0.015150257829    12.000000000000
         C           -1.067351927590    -1.178343352077     0.017405257829    12.000000000000
         C           -1.716792327590    -0.009336452077     0.141151157829    12.000000000000
         H            2.790347072410    -0.949646352077    -1.122946742171     1.007825032230
         H            2.816901072410     0.808264647923    -1.178603742171     1.007825032230
         H            0.798114072410    -2.178449352077    -0.329768742171     1.007825032230
         H            0.903208072410     2.137269647923    -0.338043742171     1.007825032230
         H            3.023135072410     0.887545647923     1.330242257829     1.007825032230
         H            4.353455072410    -0.038966352077     0.609936257829     1.007825032230
         H            2.995377072410    -0.879613352077     1.382828257829     1.007825032230
         H           -2.811478927590     0.082880647923     0.333174257829     1.007825032230
         H           -1.125675927590     3.136192647923     0.031692257829     1.007825032230
         H           -2.651597927590    -2.223265352077     0.295316257829     1.007825032230

  Basis Set: AUG-CC-PVTZ
    Blend: AUG-CC-PVTZ
  Basis Set: (AUG-CC-PVTZ AUX)
    Blend: AUG-CC-PVTZ-JKFIT
	 Reference Energy          =    -458.6564262380400123 [Eh]
	 Singles Energy            =      -0.0000000000000000 [Eh]
	 Same-Spin Energy          =      -0.4817375393754355 [Eh]
	 Opposite-Spin Energy      =      -1.5055458916444457 [Eh]
	 Correlation Energy        =      -1.9872834310198813 [Eh]
	 Total Energy              =    -460.6437096690598878 [Eh]

	 ================> DF-SCS-MP2 Energies <==================
	-----------------------------------------------------------
	 SCS Same-Spin Scale       =       0.3333333333333333 [-]
	 SCS Opposite-Spin Scale   =       1.2000000000000000 [-]
	 SCS Same-Spin Energy      =      -0.1605791797918118 [Eh]
	 SCS Opposite-Spin Energy  =      -1.8066550699733348 [Eh]
	 SCS Correlation Energy    =      -1.9672342497651467 [Eh]
	 SCS Total Energy          =    -460.6236604878051821 [Eh]
	-----------------------------------------------------------

  Dipole Moment: [D]
     X:     0.5352      Y:     1.3265      Z:    -0.0194     Total:     1.4305

*** Psi4 exiting successfully. Buy a developer a beer!
