                               Psi4 1.3.2 release

  ==> Input File <==

--------------------------------------------------------------------------
#psi4
#
memory 32 gb

molecule  {
0 1
  O        1.7627890     2.3683800    -0.1458810
  O        1.6754140    -2.4069960    -0.1279020
  C       -1.0215720    -0.0077180     0.3641480
  C       -2.5109758    -0.0981854     0.5655095
  C       -0.3230660    -1.2073880     0.2343750
  C       -0.2748931     1.1671788     0.2277790
  C       -3.2735700    -0.0197480    -0.7643280
  C        1.0346870     1.2106680    -0.0181020
  C        1.0480560    -1.1910380    -0.0190010
  C        1.7368580     0.0147850    -0.1457440
  H       -2.7927850    -0.9030380     1.1483340
  H       -2.8082890     0.8538600     1.1573130
  H       -0.8312370    -2.1635460     0.3309200
  H       -0.8789600     2.1456520     0.3351900
  H       -3.0230990     0.8672620    -1.3527740
  H       -4.3574070    -0.0294260    -0.6053230
  H       -3.0076490    -0.8981260    -1.3586750
  H        2.8074370     0.0467670    -0.3362510
  H        1.1590650     3.1223080    -0.0299710
  H        2.6215300    -2.2543830    -0.2976190
units angstrom
no_reorient  #important for SAPT in psi4, default
symmetry c1  #important for SAPT in psi4, default
}

set PROPERTIES_ORIGIN ["COM"]
properties('MP2/aug-cc-pvtz', properties = ['dipole'])
--------------------------------------------------------------------------

    Molecular point group: c1
  Charge       = 0
  Multiplicity = 1
  Basis Set: AUG-CC-PVTZ
    Blend: AUG-CC-PVTZ
  Basis Set: (AUG-CC-PVTZ AUX)
    Blend: AUG-CC-PVTZ-JKFIT

    Orbital Energies [Eh]
    ---------------------

    Doubly Occupied:

       1A    -20.594398     2A    -20.591851     3A    -11.306522
       4A    -11.302012     5A    -11.252433     6A    -11.235831
       7A    -11.223652     8A    -11.223461     9A    -11.221731
      10A    -11.216751    11A     -1.404580    12A     -1.400646
      13A     -1.156513    14A     -1.066058    15A     -1.006926
      16A     -0.988113    17A     -0.880639    18A     -0.832430
      19A     -0.812741    20A     -0.746436    21A     -0.685746
      22A     -0.674759    23A     -0.657722    24A     -0.621076
      25A     -0.603296    26A     -0.590925    27A     -0.588456
      28A     -0.576335    29A     -0.551420    30A     -0.548959
      31A     -0.527882    32A     -0.508337    33A     -0.498260
      34A     -0.474531    35A     -0.455671    36A     -0.323629
      37A     -0.317540

  @DF-RHF Final Energy:  -458.64538356624655

   => Energetics <=

    Nuclear Repulsion Energy =            508.5598557143933363
    One-Electron Energy =               -1633.0739371463882890
    Two-Electron Energy =                 665.8686978657484588
    Total Energy =                       -458.6453835662465508
  Basis Set: (AUG-CC-PVTZ AUX)
    Blend: AUG-CC-PVTZ-RI
    Molecular point group: c1

    Geometry (in Angstrom), charge = 0, multiplicity = 1:

       Center              X                  Y                   Z               Mass
    ------------   -----------------  -----------------  -----------------  -----------------
         O            1.757127216219     2.378530904864    -0.145444635272    15.994914619570
         O            1.669752216219    -2.396845095136    -0.127465635272    15.994914619570
         C           -1.027233783781     0.002432904864     0.364584364728    12.000000000000
         C           -2.516637583781    -0.088034495136     0.565945864728    12.000000000000
         C           -0.328727783781    -1.197237095136     0.234811364728    12.000000000000
         C           -0.280554883781     1.177329704864     0.228215364728    12.000000000000
         C           -3.279231783781    -0.009597095136    -0.763891635272    12.000000000000
         C            1.029025216219     1.220818904864    -0.017665635272    12.000000000000
         C            1.042394216219    -1.180887095136    -0.018564635272    12.000000000000
         C            1.731196216219     0.024935904864    -0.145307635272    12.000000000000
         H           -2.798446783781    -0.892887095136     1.148770364728     1.007825032230
         H           -2.813950783781     0.864010904864     1.157749364728     1.007825032230
         H           -0.836898783781    -2.153395095136     0.331356364728     1.007825032230
         H           -0.884621783781     2.155802904864     0.335626364728     1.007825032230
         H           -3.028760783781     0.877412904864    -1.352337635272     1.007825032230
         H           -4.363068783781    -0.019275095136    -0.604886635272     1.007825032230
         H           -3.013310783781    -0.887975095136    -1.358238635272     1.007825032230
         H            2.801775216219     0.056917904864    -0.335814635272     1.007825032230
         H            1.153403216219     3.132458904864    -0.029534635272     1.007825032230
         H            2.615868216219    -2.244232095136    -0.297182635272     1.007825032230

  Basis Set: AUG-CC-PVTZ
    Blend: AUG-CC-PVTZ
  Basis Set: (AUG-CC-PVTZ AUX)
    Blend: AUG-CC-PVTZ-JKFIT
	 Reference Energy          =    -458.6453835662465508 [Eh]
	 Singles Energy            =      -0.0000000000000000 [Eh]
	 Same-Spin Energy          =      -0.4821886140063720 [Eh]
	 Opposite-Spin Energy      =      -1.5059813748266702 [Eh]
	 Correlation Energy        =      -1.9881699888330422 [Eh]
	 Total Energy              =    -460.6335535550795726 [Eh]

	 ================> DF-SCS-MP2 Energies <==================
	-----------------------------------------------------------
	 SCS Same-Spin Scale       =       0.3333333333333333 [-]
	 SCS Opposite-Spin Scale   =       1.2000000000000000 [-]
	 SCS Same-Spin Energy      =      -0.1607295380021240 [Eh]
	 SCS Opposite-Spin Energy  =      -1.8071776497920040 [Eh]
	 SCS Correlation Energy    =      -1.9679071877941281 [Eh]
	 SCS Total Energy          =    -460.6132907540406904 [Eh]
	-----------------------------------------------------------

  Dipole Moment: [D]
     X:    -0.5881      Y:     1.0973      Z:     0.0029     Total:     1.2450

*** Psi4 exiting successfully. Buy a developer a beer!
