                               Psi4 1.3.2 release

  ==> Input File <==

--------------------------------------------------------------------------
#psi4
#
memory 32 gb

molecule  {
0 1
  O        1.7627890     2.3683800    -0.1458810
  O        1.6754140    -2.4069960    -0.1279020
  C       -1.0215720    -0.0077180     0.3641480
  C       -2.5138240     0.0068258     0.5642152
  C       -0.3023615    -1.1948276     0.2319856
  C       -0.3370590     1.2052280     0.2348720
  C       -3.2735700    -0.0197480    -0.7643280
  C        1.0346870     1.2106680    -0.0181020
  C        1.0480560    -1.1910380    -0.0190010
  C        1.7368580     0.0147850    -0.1457440
  H       -2.7927850    -0.9030380     1.1483340
  H       -2.8082890     0.8538600     1.1573130
  H       -0.8312370    -2.1635460     0.3309200
  H       -0.8789600     2.1456520     0.3351900
  H       -3.0230990     0.8672620    -1.3527740
  H       -4.3574070    -0.0294260    -0.6053230
  H       -3.0076490    -0.8981260    -1.3586750
  H        2.8074370     0.0467670    -0.3362510
  H        1.1590650     3.1223080    -0.0299710
  H        2.6215300    -2.2543830    -0.2976190
units angstrom
no_reorient  #important for SAPT in psi4, default
symmetry c1  #important for SAPT in psi4, default
}

set PROPERTIES_ORIGIN ["COM"]
properties('MP2/aug-cc-pvtz', properties = ['dipole'])
--------------------------------------------------------------------------

    Molecular point group: c1
  Charge       = 0
  Multiplicity = 1
  Basis Set: AUG-CC-PVTZ
    Blend: AUG-CC-PVTZ
  Basis Set: (AUG-CC-PVTZ AUX)
    Blend: AUG-CC-PVTZ-JKFIT

    Orbital Energies [Eh]
    ---------------------

    Doubly Occupied:

       1A    -20.595188     2A    -20.592777     3A    -11.309668
       4A    -11.305990     5A    -11.251708     6A    -11.233101
       7A    -11.223778     8A    -11.222855     9A    -11.220299
      10A    -11.215848    11A     -1.404982    12A     -1.401505
      13A     -1.152182    14A     -1.064452    15A     -1.003365
      16A     -0.988105    17A     -0.877434    18A     -0.835605
      19A     -0.809593    20A     -0.739133    21A     -0.687065
      22A     -0.676305    23A     -0.665593    24A     -0.610991
      25A     -0.602628    26A     -0.597386    27A     -0.585351
      28A     -0.576456    29A     -0.553009    30A     -0.549396
      31A     -0.524256    32A     -0.516869    33A     -0.491784
      34A     -0.480465    35A     -0.454849    36A     -0.325223
      37A     -0.313123

  @DF-RHF Final Energy:  -458.65856442692109

   => Energetics <=

    Nuclear Repulsion Energy =            507.8473516259156213
    One-Electron Energy =               -1631.6951946106573814
    Two-Electron Energy =                 665.1892785578207850
    Total Energy =                       -458.6585644269210889
  Basis Set: (AUG-CC-PVTZ AUX)
    Blend: AUG-CC-PVTZ-RI
    Molecular point group: c1

    Geometry (in Angstrom), charge = 0, multiplicity = 1:

       Center              X                  Y                   Z               Mass
    ------------   -----------------  -----------------  -----------------  -----------------
         O            1.760978325046     2.365005333957    -0.145740949960    15.994914619570
         O            1.673603325046    -2.410370666043    -0.127761949960    15.994914619570
         C           -1.023382674954    -0.011092666043     0.364288050040    12.000000000000
         C           -2.515634674954     0.003451133957     0.564355250040    12.000000000000
         C           -0.304172174954    -1.198202266043     0.232125650040    12.000000000000
         C           -0.338869674954     1.201853333957     0.235012050040    12.000000000000
         C           -3.275380674954    -0.023122666043    -0.764187949960    12.000000000000
         C            1.032876325046     1.207293333957    -0.017961949960    12.000000000000
         C            1.046245325046    -1.194412666043    -0.018860949960    12.000000000000
         C            1.735047325046     0.011410333957    -0.145603949960    12.000000000000
         H           -2.794595674954    -0.906412666043     1.148474050040     1.007825032230
         H           -2.810099674954     0.850485333957     1.157453050040     1.007825032230
         H           -0.833047674954    -2.166920666043     0.331060050040     1.007825032230
         H           -0.880770674954     2.142277333957     0.335330050040     1.007825032230
         H           -3.024909674954     0.863887333957    -1.352633949960     1.007825032230
         H           -4.359217674954    -0.032800666043    -0.605182949960     1.007825032230
         H           -3.009459674954    -0.901500666043    -1.358534949960     1.007825032230
         H            2.805626325046     0.043392333957    -0.336110949960     1.007825032230
         H            1.157254325046     3.118933333957    -0.029830949960     1.007825032230
         H            2.619719325046    -2.257757666043    -0.297478949960     1.007825032230

  Basis Set: AUG-CC-PVTZ
    Blend: AUG-CC-PVTZ
  Basis Set: (AUG-CC-PVTZ AUX)
    Blend: AUG-CC-PVTZ-JKFIT
	 Reference Energy          =    -458.6585644269210889 [Eh]
	 Singles Energy            =      -0.0000000000000000 [Eh]
	 Same-Spin Energy          =      -0.4818693418258984 [Eh]
	 Opposite-Spin Energy      =      -1.5053112996516069 [Eh]
	 Correlation Energy        =      -1.9871806414775053 [Eh]
	 Total Energy              =    -460.6457450683985826 [Eh]

	 ================> DF-SCS-MP2 Energies <==================
	-----------------------------------------------------------
	 SCS Same-Spin Scale       =       0.3333333333333333 [-]
	 SCS Opposite-Spin Scale   =       1.2000000000000000 [-]
	 SCS Same-Spin Energy      =      -0.1606231139419661 [Eh]
	 SCS Opposite-Spin Energy  =      -1.8063735595819281 [Eh]
	 SCS Correlation Energy    =      -1.9669966735238942 [Eh]
	 SCS Total Energy          =    -460.6255611004449975 [Eh]
	-----------------------------------------------------------

  Dipole Moment: [D]
     X:    -0.5306      Y:     1.2577      Z:     0.0109     Total:     1.3651

*** Psi4 exiting successfully. Buy a developer a beer!
