                               Psi4 1.4a3.dev225

  ==> Input File <==

--------------------------------------------------------------------------
#psi4
#
memory 32 gb

molecule  {
0 1
  O       -1.8116000     2.3801270     0.1363720
  O       -1.7799440    -2.3994320     0.1189850
  C        0.9489570    -0.0306590    -0.3689570
  C        2.4429910    -0.0568610    -0.5708560
  C        0.2354480    -1.2220220    -0.2373930
  C        0.2798030     1.1938580    -0.2383990
  C        3.1984060    -0.0265600     0.7613490
  C       -1.0921630     1.2139390     0.0079710
  C       -1.1396310    -1.1871160     0.0102260
  C       -1.8374286     0.0689351     0.1431861
  H        2.7180680    -0.9584190    -1.1301260
  H        2.7446220     0.7994920    -1.1857830
  H        0.7258350    -2.1872220    -0.3369480
  H        0.8309290     2.1284970    -0.3452230
  H        2.9508560     0.8787730     1.3230630
  H        4.2811760    -0.0477390     0.6027570
  H        2.9230980    -0.8883860     1.3756490
  H       -2.8837580     0.0741080     0.3259950
  H       -1.1979550     3.1274200     0.0245130
  H       -2.7238770    -2.2320380     0.2881370
units angstrom
no_reorient  #important for SAPT in psi4, default
symmetry c1  #important for SAPT in psi4, default
}

set PROPERTIES_ORIGIN ["COM"]
properties('MP2/aug-cc-pvtz', properties = ['dipole'])
--------------------------------------------------------------------------

    Molecular point group: c1
  Charge       = 0
  Multiplicity = 1
  Basis Set: AUG-CC-PVTZ
    Blend: AUG-CC-PVTZ
  Basis Set: (AUG-CC-PVTZ AUX)
    Blend: AUG-CC-PVTZ-JKFIT

    Orbital Energies [Eh]
    ---------------------

    Doubly Occupied:

       1A    -20.595927     2A    -20.592457     3A    -11.315422
       4A    -11.307536     5A    -11.253425     6A    -11.232974
       7A    -11.224364     8A    -11.222983     9A    -11.220190
      10A    -11.217003    11A     -1.403770    12A     -1.400965
      13A     -1.148011    14A     -1.062614    15A     -1.001060
      16A     -0.987198    17A     -0.877936    18A     -0.832352
      19A     -0.807741    20A     -0.739065    21A     -0.688982
      22A     -0.671796    23A     -0.666421    24A     -0.611722
      25A     -0.601585    26A     -0.595602    27A     -0.589796
      28A     -0.575531    29A     -0.553301    30A     -0.550516
      31A     -0.525186    32A     -0.518240    33A     -0.488695
      34A     -0.483364    35A     -0.452491    36A     -0.324962
      37A     -0.310713

  @DF-RHF Final Energy:  -458.65634659496754

   => Energetics <=

    Nuclear Repulsion Energy =            506.6549863340028423
    One-Electron Energy =               -1629.3188776369170228
    Two-Electron Energy =                 664.0075447079466358
    Total Energy =                       -458.6563465949675447
  Basis Set: (AUG-CC-PVTZ AUX)
    Blend: AUG-CC-PVTZ-RI
    Molecular point group: c1

    Geometry (in Angstrom), charge = 0, multiplicity = 1:

       Center              X                  Y                   Z               Mass
    ------------   -----------------  -----------------  -----------------  -----------------
         O           -1.735118027094     2.381334319258     0.142750418124    15.994914619570
         O           -1.703462027094    -2.398224680742     0.125363418124    15.994914619570
         C            1.025438972906    -0.029451680742    -0.362578581876    12.000000000000
         C            2.519472972906    -0.055653680742    -0.564477581876    12.000000000000
         C            0.311929972906    -1.220814680742    -0.231014581876    12.000000000000
         C            0.356284972906     1.195065319258    -0.232020581876    12.000000000000
         C            3.274887972906    -0.025352680742     0.767727418124    12.000000000000
         C           -1.015681027094     1.215146319258     0.014349418124    12.000000000000
         C           -1.063149027094    -1.185908680742     0.016604418124    12.000000000000
         C           -1.760946627094     0.070142419258     0.149564518124    12.000000000000
         H            2.794549972906    -0.957211680742    -1.123747581876     1.007825032230
         H            2.821103972906     0.800699319258    -1.179404581876     1.007825032230
         H            0.802316972906    -2.186014680742    -0.330569581876     1.007825032230
         H            0.907410972906     2.129704319258    -0.338844581876     1.007825032230
         H            3.027337972906     0.879980319258     1.329441418124     1.007825032230
         H            4.357657972906    -0.046531680742     0.609135418124     1.007825032230
         H            2.999579972906    -0.887178680742     1.382027418124     1.007825032230
         H           -2.807276027094     0.075315319258     0.332373418124     1.007825032230
         H           -1.121473027094     3.128627319258     0.030891418124     1.007825032230
         H           -2.647395027094    -2.230830680742     0.294515418124     1.007825032230

  Basis Set: AUG-CC-PVTZ
    Blend: AUG-CC-PVTZ
  Basis Set: (AUG-CC-PVTZ AUX)
    Blend: AUG-CC-PVTZ-JKFIT
	 Reference Energy          =    -458.6563465949675447 [Eh]
	 Singles Energy            =      -0.0000000000000000 [Eh]
	 Same-Spin Energy          =      -0.4816834961782430 [Eh]
	 Opposite-Spin Energy      =      -1.5056862989576825 [Eh]
	 Correlation Energy        =      -1.9873697951359255 [Eh]
	 Total Energy              =    -460.6437163901034637 [Eh]

	 ================> DF-SCS-MP2 Energies <==================
	-----------------------------------------------------------
	 SCS Same-Spin Scale       =       0.3333333333333333 [-]
	 SCS Opposite-Spin Scale   =       1.2000000000000000 [-]
	 SCS Same-Spin Energy      =      -0.1605611653927477 [Eh]
	 SCS Opposite-Spin Energy  =      -1.8068235587492190 [Eh]
	 SCS Correlation Energy    =      -1.9673847241419666 [Eh]
	 SCS Total Energy          =    -460.6237313191095382 [Eh]
	-----------------------------------------------------------

  Dipole Moment: [D]
     X:     0.5282      Y:     1.1251      Z:    -0.0167     Total:     1.2430

*** Psi4 exiting successfully. Buy a developer a beer!
