                               Psi4 1.4a3.dev225

  ==> Input File <==

--------------------------------------------------------------------------
#psi4
#
memory 32 gb

molecule  {
0 1
  O       -1.8116000     2.3801270     0.1363720
  O       -1.7799440    -2.3994320     0.1189850
  C        0.9489570    -0.0306590    -0.3689570
  C        2.4429910    -0.0568610    -0.5708560
  C        0.2354480    -1.2220220    -0.2373930
  C        0.2798030     1.1938580    -0.2383990
  C        3.1984060    -0.0265600     0.7613490
  C       -1.0429553     1.2132188    -0.0008654
  C       -1.1396310    -1.1871160     0.0102260
  C       -1.8132500     0.0254130     0.1385790
  H        2.7180680    -0.9584190    -1.1301260
  H        2.7446220     0.7994920    -1.1857830
  H        0.7258350    -2.1872220    -0.3369480
  H        0.8309290     2.1284970    -0.3452230
  H        2.9508560     0.8787730     1.3230630
  H        4.2811760    -0.0477390     0.6027570
  H        2.9230980    -0.8883860     1.3756490
  H       -2.8837580     0.0741080     0.3259950
  H       -1.1979550     3.1274200     0.0245130
  H       -2.7238770    -2.2320380     0.2881370
units angstrom
no_reorient  #important for SAPT in psi4, default
symmetry c1  #important for SAPT in psi4, default
}

set PROPERTIES_ORIGIN ["COM"]
properties('MP2/aug-cc-pvtz', properties = ['dipole'])
--------------------------------------------------------------------------

    Molecular point group: c1
  Charge       = 0
  Multiplicity = 1
  Basis Set: AUG-CC-PVTZ
    Blend: AUG-CC-PVTZ
  Basis Set: (AUG-CC-PVTZ AUX)
    Blend: AUG-CC-PVTZ-JKFIT

    Orbital Energies [Eh]
    ---------------------

    Doubly Occupied:

       1A    -20.592903     2A    -20.591604     3A    -11.308583
       4A    -11.307816     5A    -11.254117     6A    -11.233880
       7A    -11.226809     8A    -11.220993     9A    -11.220779
      10A    -11.219312    11A     -1.401422    12A     -1.390630
      13A     -1.153912    14A     -1.062639    15A     -1.009696
      16A     -0.986254    17A     -0.879335    18A     -0.830564
      19A     -0.808678    20A     -0.738209    21A     -0.688334
      22A     -0.668761    23A     -0.662293    24A     -0.612176
      25A     -0.600577    26A     -0.594557    27A     -0.586028
      28A     -0.571720    29A     -0.553424    30A     -0.552382
      31A     -0.524795    32A     -0.519384    33A     -0.489472
      34A     -0.486472    35A     -0.456141    36A     -0.324116
      37A     -0.318266

  @DF-RHF Final Energy:  -458.65569049325615

   => Energetics <=

    Nuclear Repulsion Energy =            507.3026315856597535
    One-Electron Energy =               -1630.6225809610523356
    Two-Electron Energy =                 664.6642588821363233
    Total Energy =                       -458.6556904932562020
  Basis Set: (AUG-CC-PVTZ AUX)
    Blend: AUG-CC-PVTZ-RI
    Molecular point group: c1

    Geometry (in Angstrom), charge = 0, multiplicity = 1:

       Center              X                  Y                   Z               Mass
    ------------   -----------------  -----------------  -----------------  -----------------
         O           -1.741496297892     2.385179578797     0.143918841706    15.994914619570
         O           -1.709840297892    -2.394379421203     0.126531841706    15.994914619570
         C            1.019060702108    -0.025606421203    -0.361410158294    12.000000000000
         C            2.513094702108    -0.051808421203    -0.563309158294    12.000000000000
         C            0.305551702108    -1.216969421203    -0.229846158294    12.000000000000
         C            0.349906702108     1.198910578797    -0.230852158294    12.000000000000
         C            3.268509702108    -0.021507421203     0.768895841706    12.000000000000
         C           -0.972851597892     1.218271378797     0.006681441706    12.000000000000
         C           -1.069527297892    -1.182063421203     0.017772841706    12.000000000000
         C           -1.743146297892     0.030465578797     0.146125841706    12.000000000000
         H            2.788171702108    -0.953366421203    -1.122579158294     1.007825032230
         H            2.814725702108     0.804544578797    -1.178236158294     1.007825032230
         H            0.795938702108    -2.182169421203    -0.329401158294     1.007825032230
         H            0.901032702108     2.133549578797    -0.337676158294     1.007825032230
         H            3.020959702108     0.883825578797     1.330609841706     1.007825032230
         H            4.351279702108    -0.042686421203     0.610303841706     1.007825032230
         H            2.993201702108    -0.883333421203     1.383195841706     1.007825032230
         H           -2.813654297892     0.079160578797     0.333541841706     1.007825032230
         H           -1.127851297892     3.132472578797     0.032059841706     1.007825032230
         H           -2.653773297892    -2.226985421203     0.295683841706     1.007825032230

  Basis Set: AUG-CC-PVTZ
    Blend: AUG-CC-PVTZ
  Basis Set: (AUG-CC-PVTZ AUX)
    Blend: AUG-CC-PVTZ-JKFIT
	 Reference Energy          =    -458.6556904932561451 [Eh]
	 Singles Energy            =      -0.0000000000000000 [Eh]
	 Same-Spin Energy          =      -0.4817511599129301 [Eh]
	 Opposite-Spin Energy      =      -1.5061840142653073 [Eh]
	 Correlation Energy        =      -1.9879351741782374 [Eh]
	 Total Energy              =    -460.6436256674343781 [Eh]

	 ================> DF-SCS-MP2 Energies <==================
	-----------------------------------------------------------
	 SCS Same-Spin Scale       =       0.3333333333333333 [-]
	 SCS Opposite-Spin Scale   =       1.2000000000000000 [-]
	 SCS Same-Spin Energy      =      -0.1605837199709767 [Eh]
	 SCS Opposite-Spin Energy  =      -1.8074208171183688 [Eh]
	 SCS Correlation Energy    =      -1.9680045370893455 [Eh]
	 SCS Total Energy          =    -460.6236950303455160 [Eh]
	-----------------------------------------------------------

  Dipole Moment: [D]
     X:     0.6684      Y:     1.0848      Z:    -0.0389     Total:     1.2748

*** Psi4 exiting successfully. Buy a developer a beer!
