                               Psi4 1.3.2 release

  ==> Input File <==

--------------------------------------------------------------------------
#psi4
#
memory 32 gb

molecule  {
0 1
  O        1.7627890     2.3683800    -0.1458810
  O        1.6754140    -2.4069960    -0.1279020
  C       -1.0215720    -0.0077180     0.3641480
  C       -2.5139530    -0.0194410     0.5634370
  C       -0.3230660    -1.2073880     0.2343750
  C       -0.3370590     1.2052280     0.2348720
  C       -3.2735700    -0.0197480    -0.7643280
  C        1.0346806     1.1984953    -0.0181057
  C        1.0480560    -1.1910380    -0.0190010
  C        1.7368580     0.0147850    -0.1457440
  H       -2.7927850    -0.9030380     1.1483340
  H       -2.8082890     0.8538600     1.1573130
  H       -0.8312370    -2.1635460     0.3309200
  H       -0.8870103     2.1408069     0.3366727
  H       -3.0230990     0.8672620    -1.3527740
  H       -4.3574070    -0.0294260    -0.6053230
  H       -3.0076490    -0.8981260    -1.3586750
  H        2.8074370     0.0467670    -0.3362510
  H        1.1590650     3.1223080    -0.0299710
  H        2.6215300    -2.2543830    -0.2976190
units angstrom
no_reorient  #important for SAPT in psi4, default
symmetry c1  #important for SAPT in psi4, default
}

set PROPERTIES_ORIGIN ["COM"]
properties('MP2/aug-cc-pvtz', properties = ['dipole'])
--------------------------------------------------------------------------

    Molecular point group: c1
  Charge       = 0
  Multiplicity = 1
  Basis Set: AUG-CC-PVTZ
    Blend: AUG-CC-PVTZ
  Basis Set: (AUG-CC-PVTZ AUX)
    Blend: AUG-CC-PVTZ-JKFIT

    Orbital Energies [Eh]
    ---------------------

    Doubly Occupied:

       1A    -20.593792     2A    -20.593385     3A    -11.309720
       4A    -11.309333     5A    -11.251365     6A    -11.232258
       7A    -11.223873     8A    -11.223023     9A    -11.219923
      10A    -11.216290    11A     -1.403440    12A     -1.398620
      13A     -1.151655    14A     -1.065282    15A     -1.001529
      16A     -0.989084    17A     -0.876881    18A     -0.836292
      19A     -0.807797    20A     -0.738788    21A     -0.687893
      22A     -0.674167    23A     -0.666648    24A     -0.611567
      25A     -0.601478    26A     -0.595214    27A     -0.586688
      28A     -0.574816    29A     -0.552806    30A     -0.549964
      31A     -0.525029    32A     -0.521177    33A     -0.487967
      34A     -0.482610    35A     -0.454656    36A     -0.327328
      37A     -0.311806

  @DF-RHF Final Energy:  -458.65991633240145

   => Energetics <=

    Nuclear Repulsion Energy =            507.5882153085171922
    One-Electron Energy =               -1631.1879757995588989
    Two-Electron Energy =                 664.9398441586403123
    Total Energy =                       -458.6599163324013944
  Basis Set: (AUG-CC-PVTZ AUX)
    Blend: AUG-CC-PVTZ-RI
    Molecular point group: c1

    Geometry (in Angstrom), charge = 0, multiplicity = 1:

       Center              X                  Y                   Z               Mass
    ------------   -----------------  -----------------  -----------------  -----------------
         O            1.762848359704     2.369473287847    -0.145891486582    15.994914619570
         O            1.675473359704    -2.405902712153    -0.127912486582    15.994914619570
         C           -1.021512640296    -0.006624712153     0.364137513418    12.000000000000
         C           -2.513893640296    -0.018347712153     0.563426513418    12.000000000000
         C           -0.323006640296    -1.206294712153     0.234364513418    12.000000000000
         C           -0.336999640296     1.206321287847     0.234861513418    12.000000000000
         C           -3.273510640296    -0.018654712153    -0.764338486582    12.000000000000
         C            1.034739959704     1.199588587847    -0.018116186582    12.000000000000
         C            1.048115359704    -1.189944712153    -0.019011486582    12.000000000000
         C            1.736917359704     0.015878287847    -0.145754486582    12.000000000000
         H           -2.792725640296    -0.901944712153     1.148323513418     1.007825032230
         H           -2.808229640296     0.854953287847     1.157302513418     1.007825032230
         H           -0.831177640296    -2.162452712153     0.330909513418     1.007825032230
         H           -0.886950940296     2.141900187847     0.336662213418     1.007825032230
         H           -3.023039640296     0.868355287847    -1.352784486582     1.007825032230
         H           -4.357347640296    -0.028332712153    -0.605333486582     1.007825032230
         H           -3.007589640296    -0.897032712153    -1.358685486582     1.007825032230
         H            2.807496359704     0.047860287847    -0.336261486582     1.007825032230
         H            1.159124359704     3.123401287847    -0.029981486582     1.007825032230
         H            2.621589359704    -2.253289712153    -0.297629486582     1.007825032230

  Basis Set: AUG-CC-PVTZ
    Blend: AUG-CC-PVTZ
  Basis Set: (AUG-CC-PVTZ AUX)
    Blend: AUG-CC-PVTZ-JKFIT
	 Reference Energy          =    -458.6599163324014512 [Eh]
	 Singles Energy            =      -0.0000000000000000 [Eh]
	 Same-Spin Energy          =      -0.4817388416013241 [Eh]
	 Opposite-Spin Energy      =      -1.5052780065390052 [Eh]
	 Correlation Energy        =      -1.9870168481403292 [Eh]
	 Total Energy              =    -460.6469331805417937 [Eh]

	 ================> DF-SCS-MP2 Energies <==================
	-----------------------------------------------------------
	 SCS Same-Spin Scale       =       0.3333333333333333 [-]
	 SCS Opposite-Spin Scale   =       1.2000000000000000 [-]
	 SCS Same-Spin Energy      =      -0.1605796138671080 [Eh]
	 SCS Opposite-Spin Energy  =      -1.8063336078468062 [Eh]
	 SCS Correlation Energy    =      -1.9669132217139143 [Eh]
	 SCS Total Energy          =    -460.6268295541153748 [Eh]
	-----------------------------------------------------------

  Dipole Moment: [D]
     X:    -0.5287      Y:     1.1516      Z:     0.0135     Total:     1.2672

*** Psi4 exiting successfully. Buy a developer a beer!
