                               Psi4 1.3.2 release

  ==> Input File <==

--------------------------------------------------------------------------
#psi4
#
memory 32 gb

molecule  {
0 1
  O        1.7627890     2.3683800    -0.1458810
  O        1.6754140    -2.4069960    -0.1279020
  C       -1.0215720    -0.0077180     0.3641480
  C       -2.5139530    -0.0194410     0.5634370
  C       -0.3230660    -1.2073880     0.2343750
  C       -0.3370590     1.2052280     0.2348720
  C       -3.2735700    -0.0197480    -0.7643280
  C        0.9954254     1.2371705    -0.0106950
  C        1.0480560    -1.1910380    -0.0190010
  C        1.7368580     0.0147850    -0.1457440
  H       -2.7927850    -0.9030380     1.1483340
  H       -2.8082890     0.8538600     1.1573130
  H       -0.8312370    -2.1635460     0.3309200
  H       -0.8789600     2.1456520     0.3351900
  H       -3.0230990     0.8672620    -1.3527740
  H       -4.3574070    -0.0294260    -0.6053230
  H       -3.0076490    -0.8981260    -1.3586750
  H        2.8074370     0.0467670    -0.3362510
  H        1.1335362     3.1003951    -0.0253823
  H        2.6215300    -2.2543830    -0.2976190
units angstrom
no_reorient  #important for SAPT in psi4, default
symmetry c1  #important for SAPT in psi4, default
}

set PROPERTIES_ORIGIN ["COM"]
properties('MP2/aug-cc-pvtz', properties = ['dipole'])
--------------------------------------------------------------------------

    Molecular point group: c1
  Charge       = 0
  Multiplicity = 1
  Basis Set: AUG-CC-PVTZ
    Blend: AUG-CC-PVTZ
  Basis Set: (AUG-CC-PVTZ AUX)
    Blend: AUG-CC-PVTZ-JKFIT

    Orbital Energies [Eh]
    ---------------------

    Doubly Occupied:

       1A    -20.598077     2A    -20.592097     3A    -11.309776
       4A    -11.307268     5A    -11.252825     6A    -11.233043
       7A    -11.225939     8A    -11.220541     9A    -11.220414
      10A    -11.217316    11A     -1.408293    12A     -1.401164
      13A     -1.151399    14A     -1.061018    15A     -1.007935
      16A     -0.984543    17A     -0.878751    18A     -0.832595
      19A     -0.809412    20A     -0.741964    21A     -0.687382
      22A     -0.670676    23A     -0.664377    24A     -0.614465
      25A     -0.603347    26A     -0.595254    27A     -0.589447
      28A     -0.577043    29A     -0.553861    30A     -0.549985
      31A     -0.523665    32A     -0.517047    33A     -0.488707
      34A     -0.486331    35A     -0.454700    36A     -0.322785
      37A     -0.314953

  @DF-RHF Final Energy:  -458.65635913262463

   => Energetics <=

    Nuclear Repulsion Energy =            507.5772865903874731
    One-Electron Energy =               -1631.1304981107857657
    Two-Electron Energy =                 664.8968523877736061
    Total Energy =                       -458.6563591326246296
  Basis Set: (AUG-CC-PVTZ AUX)
    Blend: AUG-CC-PVTZ-RI
    Molecular point group: c1

    Geometry (in Angstrom), charge = 0, multiplicity = 1:

       Center              X                  Y                   Z               Mass
    ------------   -----------------  -----------------  -----------------  -----------------
         O            1.766387756148     2.366236471304    -0.146558249709    15.994914619570
         O            1.679012756148    -2.409139528696    -0.128579249709    15.994914619570
         C           -1.017973243852    -0.009861528696     0.363470750291    12.000000000000
         C           -2.510354243852    -0.021584528696     0.562759750291    12.000000000000
         C           -0.319467243852    -1.209531528696     0.233697750291    12.000000000000
         C           -0.333460243852     1.203084471304     0.234194750291    12.000000000000
         C           -3.269971243852    -0.021891528696    -0.765005249709    12.000000000000
         C            0.999024156148     1.235026971304    -0.011372249709    12.000000000000
         C            1.051654756148    -1.193181528696    -0.019678249709    12.000000000000
         C            1.740456756148     0.012641471304    -0.146421249709    12.000000000000
         H           -2.789186243852    -0.905181528696     1.147656750291     1.007825032230
         H           -2.804690243852     0.851716471304     1.156635750291     1.007825032230
         H           -0.827638243852    -2.165689528696     0.330242750291     1.007825032230
         H           -0.875361243852     2.143508471304     0.334512750291     1.007825032230
         H           -3.019500243852     0.865118471304    -1.353451249709     1.007825032230
         H           -4.353808243852    -0.031569528696    -0.606000249709     1.007825032230
         H           -3.004050243852    -0.900269528696    -1.359352249709     1.007825032230
         H            2.811035756148     0.044623471304    -0.336928249709     1.007825032230
         H            1.137134956148     3.098251571304    -0.026059549709     1.007825032230
         H            2.625128756148    -2.256526528696    -0.298296249709     1.007825032230

  Basis Set: AUG-CC-PVTZ
    Blend: AUG-CC-PVTZ
  Basis Set: (AUG-CC-PVTZ AUX)
    Blend: AUG-CC-PVTZ-JKFIT
	 Reference Energy          =    -458.6563591326246296 [Eh]
	 Singles Energy            =      -0.0000000000000000 [Eh]
	 Same-Spin Energy          =      -0.4818435721186562 [Eh]
	 Opposite-Spin Energy      =      -1.5058526955153093 [Eh]
	 Correlation Energy        =      -1.9876962676339656 [Eh]
	 Total Energy              =    -460.6440554002585941 [Eh]

	 ================> DF-SCS-MP2 Energies <==================
	-----------------------------------------------------------
	 SCS Same-Spin Scale       =       0.3333333333333333 [-]
	 SCS Opposite-Spin Scale   =       1.2000000000000000 [-]
	 SCS Same-Spin Energy      =      -0.1606145240395521 [Eh]
	 SCS Opposite-Spin Energy  =      -1.8070232346183710 [Eh]
	 SCS Correlation Energy    =      -1.9676377586579230 [Eh]
	 SCS Total Energy          =    -460.6239968912825589 [Eh]
	-----------------------------------------------------------

  Dipole Moment: [D]
     X:    -0.5750      Y:     1.2083      Z:     0.0221     Total:     1.3384

*** Psi4 exiting successfully. Buy a developer a beer!
