                               Psi4 1.4a3.dev225

  ==> Input File <==

--------------------------------------------------------------------------
#psi4
#
memory 32 gb

molecule  {
0 1
  O       -1.8116000     2.3801270     0.1363720
  O       -1.7799440    -2.3994320     0.1189850
  C        0.9489570    -0.0306590    -0.3689570
  C        2.4429910    -0.0568610    -0.5708560
  C        0.2354480    -1.2220220    -0.2373930
  C        0.2559305     1.2375434    -0.2337413
  C        3.1984060    -0.0265600     0.7613490
  C       -1.0921630     1.2139390     0.0079710
  C       -1.1396310    -1.1871160     0.0102260
  C       -1.8132500     0.0254130     0.1385790
  H        2.7180680    -0.9584190    -1.1301260
  H        2.7446220     0.7994920    -1.1857830
  H        0.7258350    -2.1872220    -0.3369480
  H        0.8309290     2.1284970    -0.3452230
  H        2.9508560     0.8787730     1.3230630
  H        4.2811760    -0.0477390     0.6027570
  H        2.9230980    -0.8883860     1.3756490
  H       -2.8837580     0.0741080     0.3259950
  H       -1.1979550     3.1274200     0.0245130
  H       -2.7238770    -2.2320380     0.2881370
units angstrom
no_reorient  #important for SAPT in psi4, default
symmetry c1  #important for SAPT in psi4, default
}

set PROPERTIES_ORIGIN ["COM"]
properties('MP2/aug-cc-pvtz', properties = ['dipole'])
--------------------------------------------------------------------------

    Molecular point group: c1
  Charge       = 0
  Multiplicity = 1
  Basis Set: AUG-CC-PVTZ
    Blend: AUG-CC-PVTZ
  Basis Set: (AUG-CC-PVTZ AUX)
    Blend: AUG-CC-PVTZ-JKFIT

    Orbital Energies [Eh]
    ---------------------

    Doubly Occupied:

       1A    -20.594304     2A    -20.591544     3A    -11.310633
       4A    -11.307671     5A    -11.258341     6A    -11.233606
       7A    -11.224096     8A    -11.222180     9A    -11.220554
      10A    -11.218602    11A     -1.403343    12A     -1.400433
      13A     -1.146338    14A     -1.063211    15A     -1.004202
      16A     -0.985571    17A     -0.878582    18A     -0.835113
      19A     -0.806834    20A     -0.735978    21A     -0.688153
      22A     -0.673570    23A     -0.669743    24A     -0.610943
      25A     -0.602174    26A     -0.595642    27A     -0.587716
      28A     -0.575378    29A     -0.552238    30A     -0.547982
      31A     -0.527248    32A     -0.520621    33A     -0.488751
      34A     -0.482250    35A     -0.451570    36A     -0.322435
      37A     -0.314712

  @DF-RHF Final Energy:  -458.65695035472311

   => Energetics <=

    Nuclear Repulsion Energy =            506.6508361997418888
    One-Electron Energy =               -1629.3110517473580785
    Two-Electron Energy =                 664.0032651928930818
    Total Energy =                       -458.6569503547231079
  Basis Set: (AUG-CC-PVTZ AUX)
    Blend: AUG-CC-PVTZ-RI
    Molecular point group: c1

    Geometry (in Angstrom), charge = 0, multiplicity = 1:

       Center              X                  Y                   Z               Mass
    ------------   -----------------  -----------------  -----------------  -----------------
         O           -1.735144631361     2.381320126260     0.142746020294    15.994914619570
         O           -1.703488631361    -2.398238873740     0.125359020294    15.994914619570
         C            1.025412368639    -0.029465873740    -0.362582979706    12.000000000000
         C            2.519446368639    -0.055667873740    -0.564481979706    12.000000000000
         C            0.311903368639    -1.220828873740    -0.231018979706    12.000000000000
         C            0.332385868639     1.238736526260    -0.227367279706    12.000000000000
         C            3.274861368639    -0.025366873740     0.767723020294    12.000000000000
         C           -1.015707631361     1.215132126260     0.014345020294    12.000000000000
         C           -1.063175631361    -1.185922873740     0.016600020294    12.000000000000
         C           -1.736794631361     0.026606126260     0.144953020294    12.000000000000
         H            2.794523368639    -0.957225873740    -1.123751979706     1.007825032230
         H            2.821077368639     0.800685126260    -1.179408979706     1.007825032230
         H            0.802290368639    -2.186028873740    -0.330573979706     1.007825032230
         H            0.907384368639     2.129690126260    -0.338848979706     1.007825032230
         H            3.027311368639     0.879966126260     1.329437020294     1.007825032230
         H            4.357631368639    -0.046545873740     0.609131020294     1.007825032230
         H            2.999553368639    -0.887192873740     1.382023020294     1.007825032230
         H           -2.807302631361     0.075301126260     0.332369020294     1.007825032230
         H           -1.121499631361     3.128613126260     0.030887020294     1.007825032230
         H           -2.647421631361    -2.230844873740     0.294511020294     1.007825032230

  Basis Set: AUG-CC-PVTZ
    Blend: AUG-CC-PVTZ
  Basis Set: (AUG-CC-PVTZ AUX)
    Blend: AUG-CC-PVTZ-JKFIT
	 Reference Energy          =    -458.6569503547231079 [Eh]
	 Singles Energy            =      -0.0000000000000000 [Eh]
	 Same-Spin Energy          =      -0.4814299762415813 [Eh]
	 Opposite-Spin Energy      =      -1.5053732736230898 [Eh]
	 Correlation Energy        =      -1.9868032498646711 [Eh]
	 Total Energy              =    -460.6437536045878005 [Eh]

	 ================> DF-SCS-MP2 Energies <==================
	-----------------------------------------------------------
	 SCS Same-Spin Scale       =       0.3333333333333333 [-]
	 SCS Opposite-Spin Scale   =       1.2000000000000000 [-]
	 SCS Same-Spin Energy      =      -0.1604766587471937 [Eh]
	 SCS Opposite-Spin Energy  =      -1.8064479283477077 [Eh]
	 SCS Correlation Energy    =      -1.9669245870949015 [Eh]
	 SCS Total Energy          =    -460.6238749418180305 [Eh]
	-----------------------------------------------------------

  Dipole Moment: [D]
     X:     0.5775      Y:     1.1387      Z:    -0.0245     Total:     1.2770

*** Psi4 exiting successfully. Buy a developer a beer!
