                               Psi4 1.4a3.dev225

  ==> Input File <==

--------------------------------------------------------------------------
#psi4
#
memory 32 gb

molecule  {
0 1
  O       -1.8116000     2.3801270     0.1363720
  O       -1.7799440    -2.3994320     0.1189850
  C        0.9489570    -0.0306590    -0.3689570
  C        2.4429910    -0.0568610    -0.5708560
  C        0.2354480    -1.2220220    -0.2373930
  C        0.2798030     1.1938580    -0.2383990
  C        3.1984060    -0.0265600     0.7613490
  C       -1.0921630     1.2139390     0.0079710
  C       -1.1396310    -1.1871160     0.0102260
  C       -1.8132500     0.0254130     0.1385790
  H        2.7180680    -0.9584190    -1.1301260
  H        2.7446220     0.7994920    -1.1857830
  H        0.7258350    -2.1872220    -0.3369480
  H        0.8309290     2.1284970    -0.3452230
  H        2.9508560     0.8787730     1.3230630
  H        4.2811760    -0.0477390     0.6027570
  H        2.9230980    -0.8883860     1.3756490
  H       -2.8837580     0.0741080     0.3259950
  H       -1.1979550     3.1274200     0.0245130
  H       -2.7044838    -2.2354771     0.2846618
units angstrom
no_reorient  #important for SAPT in psi4, default
symmetry c1  #important for SAPT in psi4, default
}

set PROPERTIES_ORIGIN ["COM"]
properties('MP2/aug-cc-pvtz', properties = ['dipole'])
--------------------------------------------------------------------------

    Molecular point group: c1
  Charge       = 0
  Multiplicity = 1
  Basis Set: AUG-CC-PVTZ
    Blend: AUG-CC-PVTZ
  Basis Set: (AUG-CC-PVTZ AUX)
    Blend: AUG-CC-PVTZ-JKFIT

    Orbital Energies [Eh]
    ---------------------

    Doubly Occupied:

       1A    -20.595764     2A    -20.591727     3A    -11.311267
       4A    -11.309446     5A    -11.252429     6A    -11.232696
       7A    -11.224753     8A    -11.223537     9A    -11.219956
      10A    -11.216994    11A     -1.406524    12A     -1.403064
      13A     -1.150098    14A     -1.063790    15A     -1.001764
      16A     -0.987915    17A     -0.876736    18A     -0.836601
      19A     -0.809214    20A     -0.740574    21A     -0.687384
      22A     -0.675645    23A     -0.666205    24A     -0.611828
      25A     -0.602311    26A     -0.595519    27A     -0.587892
      28A     -0.576241    29A     -0.554021    30A     -0.548713
      31A     -0.523752    32A     -0.521699    33A     -0.488434
      34A     -0.482846    35A     -0.453969    36A     -0.326118
      37A     -0.311719

  @DF-RHF Final Energy:  -458.66058682895903

   => Energetics <=

    Nuclear Repulsion Energy =            507.2091428362633678
    One-Electron Energy =               -1630.4011610948623456
    Two-Electron Energy =                 664.5314314296400653
    Total Energy =                       -458.6605868289590262
  Basis Set: (AUG-CC-PVTZ AUX)
    Blend: AUG-CC-PVTZ-RI
    Molecular point group: c1

    Geometry (in Angstrom), charge = 0, multiplicity = 1:

       Center              X                  Y                   Z               Mass
    ------------   -----------------  -----------------  -----------------  -----------------
         O           -1.737361037596     2.385142087228     0.143176205126    15.994914619570
         O           -1.705705037596    -2.394416912772     0.125789205126    15.994914619570
         C            1.023195962404    -0.025643912772    -0.362152794874    12.000000000000
         C            2.517229962404    -0.051845912772    -0.564051794874    12.000000000000
         C            0.309686962404    -1.217006912772    -0.230588794874    12.000000000000
         C            0.354041962404     1.198873087228    -0.231594794874    12.000000000000
         C            3.272644962404    -0.021544912772     0.768153205126    12.000000000000
         C           -1.017924037596     1.218954087228     0.014775205126    12.000000000000
         C           -1.065392037596    -1.182100912772     0.017030205126    12.000000000000
         C           -1.739011037596     0.030428087228     0.145383205126    12.000000000000
         H            2.792306962404    -0.953403912772    -1.123321794874     1.007825032230
         H            2.818860962404     0.804507087228    -1.178978794874     1.007825032230
         H            0.800073962404    -2.182206912772    -0.330143794874     1.007825032230
         H            0.905167962404     2.133512087228    -0.338418794874     1.007825032230
         H            3.025094962404     0.883788087228     1.329867205126     1.007825032230
         H            4.355414962404    -0.042723912772     0.609561205126     1.007825032230
         H            2.997336962404    -0.883370912772     1.382453205126     1.007825032230
         H           -2.809519037596     0.079123087228     0.332799205126     1.007825032230
         H           -1.123716037596     3.132435087228     0.031317205126     1.007825032230
         H           -2.630244837596    -2.230462012772     0.291466005126     1.007825032230

  Basis Set: AUG-CC-PVTZ
    Blend: AUG-CC-PVTZ
  Basis Set: (AUG-CC-PVTZ AUX)
    Blend: AUG-CC-PVTZ-JKFIT
	 Reference Energy          =    -458.6605868289590262 [Eh]
	 Singles Energy            =      -0.0000000000000000 [Eh]
	 Same-Spin Energy          =      -0.4814843286257680 [Eh]
	 Opposite-Spin Energy      =      -1.5048703699856529 [Eh]
	 Correlation Energy        =      -1.9863546986114209 [Eh]
	 Total Energy              =    -460.6469415275704478 [Eh]

	 ================> DF-SCS-MP2 Energies <==================
	-----------------------------------------------------------
	 SCS Same-Spin Scale       =       0.3333333333333333 [-]
	 SCS Opposite-Spin Scale   =       1.2000000000000000 [-]
	 SCS Same-Spin Energy      =      -0.1604947762085893 [Eh]
	 SCS Opposite-Spin Energy  =      -1.8058444439827834 [Eh]
	 SCS Correlation Energy    =      -1.9663392201913727 [Eh]
	 SCS Total Energy          =    -460.6269260491504269 [Eh]
	-----------------------------------------------------------

  Dipole Moment: [D]
     X:     0.5504      Y:     1.2292      Z:    -0.0213     Total:     1.3470

*** Psi4 exiting successfully. Buy a developer a beer!
