                               Psi4 1.3.2 release

  ==> Input File <==

--------------------------------------------------------------------------
#psi4
#
memory 32 gb

molecule  {
0 1
  O        1.7627890     2.3683800    -0.1458810
  O        1.6754140    -2.4069960    -0.1279020
  C       -0.9589153     0.0278203     0.3523402
  C       -2.5139530    -0.0194410     0.5634370
  C       -0.3230660    -1.2073880     0.2343750
  C       -0.3370590     1.2052280     0.2348720
  C       -3.2735700    -0.0197480    -0.7643280
  C        1.0346870     1.2106680    -0.0181020
  C        1.0480560    -1.1910380    -0.0190010
  C        1.7368580     0.0147850    -0.1457440
  H       -2.7927850    -0.9030380     1.1483340
  H       -2.8082890     0.8538600     1.1573130
  H       -0.7813531    -2.1893069     0.3215823
  H       -0.8789600     2.1456520     0.3351900
  H       -3.0230990     0.8672620    -1.3527740
  H       -4.3574070    -0.0294260    -0.6053230
  H       -3.0076490    -0.8981260    -1.3586750
  H        2.8074370     0.0467670    -0.3362510
  H        1.1590650     3.1223080    -0.0299710
  H        2.6215300    -2.2543830    -0.2976190
units angstrom
no_reorient  #important for SAPT in psi4, default
symmetry c1  #important for SAPT in psi4, default
}

set PROPERTIES_ORIGIN ["COM"]
properties('MP2/aug-cc-pvtz', properties = ['dipole'])
--------------------------------------------------------------------------

    Molecular point group: c1
  Charge       = 0
  Multiplicity = 1
  Basis Set: AUG-CC-PVTZ
    Blend: AUG-CC-PVTZ
  Basis Set: (AUG-CC-PVTZ AUX)
    Blend: AUG-CC-PVTZ-JKFIT

    Orbital Energies [Eh]
    ---------------------

    Doubly Occupied:

       1A    -20.597042     2A    -20.592834     3A    -11.311923
       4A    -11.306626     5A    -11.247191     6A    -11.233167
       7A    -11.223354     8A    -11.218808     9A    -11.217707
      10A    -11.214348    11A     -1.406587    12A     -1.401714
      13A     -1.156193    14A     -1.056299    15A     -1.006655
      16A     -0.989978    17A     -0.869201    18A     -0.838083
      19A     -0.808310    20A     -0.743639    21A     -0.689402
      22A     -0.675006    23A     -0.665401    24A     -0.608703
      25A     -0.602646    26A     -0.591844    27A     -0.587106
      28A     -0.576656    29A     -0.559084    30A     -0.547696
      31A     -0.528567    32A     -0.519179    33A     -0.488270
      34A     -0.464424    35A     -0.459744    36A     -0.331811
      37A     -0.311169

  @DF-RHF Final Energy:  -458.65439308616021

   => Energetics <=

    Nuclear Repulsion Energy =            508.0901625346239143
    One-Electron Energy =               -1632.1963781982810815
    Two-Electron Energy =                 665.4518225774969551
    Total Energy =                       -458.6543930861602121
  Basis Set: (AUG-CC-PVTZ AUX)
    Blend: AUG-CC-PVTZ-RI
    Molecular point group: c1

    Geometry (in Angstrom), charge = 0, multiplicity = 1:

       Center              X                  Y                   Z               Mass
    ------------   -----------------  -----------------  -----------------  -----------------
         O            1.756979191830     2.365479225389    -0.144786565948    15.994914619570
         O            1.669604191830    -2.409896774611    -0.126807565948    15.994914619570
         C           -0.964725108170     0.024919525389     0.353434634052    12.000000000000
         C           -2.519762808170    -0.022341774611     0.564531434052    12.000000000000
         C           -0.328875808170    -1.210288774611     0.235469434052    12.000000000000
         C           -0.342868808170     1.202327225389     0.235966434052    12.000000000000
         C           -3.279379808170    -0.022648774611    -0.763233565948    12.000000000000
         C            1.028877191830     1.207767225389    -0.017007565948    12.000000000000
         C            1.042246191830    -1.193938774611    -0.017906565948    12.000000000000
         C            1.731048191830     0.011884225389    -0.144649565948    12.000000000000
         H           -2.798594808170    -0.905938774611     1.149428434052     1.007825032230
         H           -2.814098808170     0.850959225389     1.158407434052     1.007825032230
         H           -0.787162908170    -2.192207674611     0.322676734052     1.007825032230
         H           -0.884769808170     2.142751225389     0.336284434052     1.007825032230
         H           -3.028908808170     0.864361225389    -1.351679565948     1.007825032230
         H           -4.363216808170    -0.032326774611    -0.604228565948     1.007825032230
         H           -3.013458808170    -0.901026774611    -1.357580565948     1.007825032230
         H            2.801627191830     0.043866225389    -0.335156565948     1.007825032230
         H            1.153255191830     3.119407225389    -0.028876565948     1.007825032230
         H            2.615720191830    -2.257283774611    -0.296524565948     1.007825032230

  Basis Set: AUG-CC-PVTZ
    Blend: AUG-CC-PVTZ
  Basis Set: (AUG-CC-PVTZ AUX)
    Blend: AUG-CC-PVTZ-JKFIT
	 Reference Energy          =    -458.6543930861602121 [Eh]
	 Singles Energy            =      -0.0000000000000000 [Eh]
	 Same-Spin Energy          =      -0.4813483188442205 [Eh]
	 Opposite-Spin Energy      =      -1.5047368469934226 [Eh]
	 Correlation Energy        =      -1.9860851658376431 [Eh]
	 Total Energy              =    -460.6404782519978767 [Eh]

	 ================> DF-SCS-MP2 Energies <==================
	-----------------------------------------------------------
	 SCS Same-Spin Scale       =       0.3333333333333333 [-]
	 SCS Opposite-Spin Scale   =       1.2000000000000000 [-]
	 SCS Same-Spin Energy      =      -0.1604494396147401 [Eh]
	 SCS Opposite-Spin Energy  =      -1.8056842163921070 [Eh]
	 SCS Correlation Energy    =      -1.9661336560068472 [Eh]
	 SCS Total Energy          =    -460.6205267421670442 [Eh]
	-----------------------------------------------------------

  Dipole Moment: [D]
     X:    -0.4000      Y:     1.2592      Z:     0.0079     Total:     1.3213

*** Psi4 exiting successfully. Buy a developer a beer!
