                               Psi4 1.3.2 release

  ==> Input File <==

--------------------------------------------------------------------------
#psi4
#
memory 32 gb

molecule  {
0 1
  O        1.7627890     2.3683800    -0.1458810
  O        1.6754140    -2.4069960    -0.1279020
  C       -1.0215720    -0.0077180     0.3641480
  C       -2.5139530    -0.0194410     0.5634370
  C       -0.3230660    -1.2073880     0.2343750
  C       -0.3370590     1.2052280     0.2348720
  C       -3.2735700    -0.0197480    -0.7643280
  C        1.0346870     1.2106680    -0.0181020
  C        1.0480560    -1.1910380    -0.0190010
  C        1.7862536     0.1012573    -0.1548330
  H       -2.7927850    -0.9030380     1.1483340
  H       -2.8082890     0.8538600     1.1573130
  H       -0.8312370    -2.1635460     0.3309200
  H       -0.8789600     2.1456520     0.3351900
  H       -3.0230990     0.8672620    -1.3527740
  H       -4.3574070    -0.0294260    -0.6053230
  H       -3.0076490    -0.8981260    -1.3586750
  H        2.8074370     0.0467670    -0.3362510
  H        1.1590650     3.1223080    -0.0299710
  H        2.6215300    -2.2543830    -0.2976190
units angstrom
no_reorient  #important for SAPT in psi4, default
symmetry c1  #important for SAPT in psi4, default
}

set PROPERTIES_ORIGIN ["COM"]
properties('MP2/aug-cc-pvtz', properties = ['dipole'])
--------------------------------------------------------------------------

    Molecular point group: c1
  Charge       = 0
  Multiplicity = 1
  Basis Set: AUG-CC-PVTZ
    Blend: AUG-CC-PVTZ
  Basis Set: (AUG-CC-PVTZ AUX)
    Blend: AUG-CC-PVTZ-JKFIT

    Orbital Energies [Eh]
    ---------------------

    Doubly Occupied:

       1A    -20.598096     2A    -20.589200     3A    -11.319886
       4A    -11.303287     5A    -11.253520     6A    -11.232801
       7A    -11.223506     8A    -11.221992     9A    -11.220333
      10A    -11.216097    11A     -1.405337    12A     -1.401123
      13A     -1.147223    14A     -1.062718    15A     -1.002465
      16A     -0.986313    17A     -0.879902    18A     -0.829752
      19A     -0.807958    20A     -0.739588    21A     -0.692342
      22A     -0.670620    23A     -0.666777    24A     -0.612395
      25A     -0.601726    26A     -0.597482    27A     -0.590985
      28A     -0.576092    29A     -0.557199    30A     -0.547607
      31A     -0.526863    32A     -0.512699    33A     -0.488501
      34A     -0.483063    35A     -0.451547    36A     -0.326755
      37A     -0.307902

  @DF-RHF Final Energy:  -458.64786101199604

   => Energetics <=

    Nuclear Repulsion Energy =            506.6800373491985283
    One-Electron Energy =               -1629.3524887408182167
    Two-Electron Energy =                 664.0245903796236462
    Total Energy =                       -458.6478610119960422
  Basis Set: (AUG-CC-PVTZ AUX)
    Blend: AUG-CC-PVTZ-RI
    Molecular point group: c1

    Geometry (in Angstrom), charge = 0, multiplicity = 1:

       Center              X                  Y                   Z               Mass
    ------------   -----------------  -----------------  -----------------  -----------------
         O            1.758495888837     2.360864324668    -0.145091027109    15.994914619570
         O            1.671120888837    -2.414511675332    -0.127112027109    15.994914619570
         C           -1.025865111163    -0.015233675332     0.364937972891    12.000000000000
         C           -2.518246111163    -0.026956675332     0.564226972891    12.000000000000
         C           -0.327359111163    -1.214903675332     0.235164972891    12.000000000000
         C           -0.341352111163     1.197712324668     0.235661972891    12.000000000000
         C           -3.277863111163    -0.027263675332    -0.763538027109    12.000000000000
         C            1.030393888837     1.203152324668    -0.017312027109    12.000000000000
         C            1.043762888837    -1.198553675332    -0.018211027109    12.000000000000
         C            1.781960488837     0.093741624668    -0.154043027109    12.000000000000
         H           -2.797078111163    -0.910553675332     1.149123972891     1.007825032230
         H           -2.812582111163     0.846344324668     1.158102972891     1.007825032230
         H           -0.835530111163    -2.171061675332     0.331709972891     1.007825032230
         H           -0.883253111163     2.138136324668     0.335979972891     1.007825032230
         H           -3.027392111163     0.859746324668    -1.351984027109     1.007825032230
         H           -4.361700111163    -0.036941675332    -0.604533027109     1.007825032230
         H           -3.011942111163    -0.905641675332    -1.357885027109     1.007825032230
         H            2.803143888837     0.039251324668    -0.335461027109     1.007825032230
         H            1.154771888837     3.114792324668    -0.029181027109     1.007825032230
         H            2.617236888837    -2.261898675332    -0.296829027109     1.007825032230

  Basis Set: AUG-CC-PVTZ
    Blend: AUG-CC-PVTZ
  Basis Set: (AUG-CC-PVTZ AUX)
    Blend: AUG-CC-PVTZ-JKFIT
	 Reference Energy          =    -458.6478610119960422 [Eh]
	 Singles Energy            =      -0.0000000000000000 [Eh]
	 Same-Spin Energy          =      -0.4815279720828620 [Eh]
	 Opposite-Spin Energy      =      -1.5057913474432767 [Eh]
	 Correlation Energy        =      -1.9873193195261387 [Eh]
	 Total Energy              =    -460.6351803315221787 [Eh]

	 ================> DF-SCS-MP2 Energies <==================
	-----------------------------------------------------------
	 SCS Same-Spin Scale       =       0.3333333333333333 [-]
	 SCS Opposite-Spin Scale   =       1.2000000000000000 [-]
	 SCS Same-Spin Energy      =      -0.1605093240276207 [Eh]
	 SCS Opposite-Spin Energy  =      -1.8069496169319319 [Eh]
	 SCS Correlation Energy    =      -1.9674589409595526 [Eh]
	 SCS Total Energy          =    -460.6153199529555877 [Eh]
	-----------------------------------------------------------

  Dipole Moment: [D]
     X:    -0.5048      Y:     1.0298      Z:     0.0080     Total:     1.1469

*** Psi4 exiting successfully. Buy a developer a beer!
