                               Psi4 1.3.2 release

  ==> Input File <==

--------------------------------------------------------------------------
#psi4
#
memory 32 gb

molecule  {
0 1
  O        1.7627890     2.3683800    -0.1458810
  O        1.6962022    -2.3956984    -0.1316563
  C       -1.0215720    -0.0077180     0.3641480
  C       -2.5139530    -0.0194410     0.5634370
  C       -0.3230660    -1.2073880     0.2343750
  C       -0.3370590     1.2052280     0.2348720
  C       -3.2735700    -0.0197480    -0.7643280
  C        1.0346870     1.2106680    -0.0181020
  C        1.0480560    -1.1910380    -0.0190010
  C        1.7574742     0.0023785    -0.1494005
  H       -2.7927850    -0.9030380     1.1483340
  H       -2.8082890     0.8538600     1.1573130
  H       -0.8312370    -2.1635460     0.3309200
  H       -0.8789600     2.1456520     0.3351900
  H       -3.0230990     0.8672620    -1.3527740
  H       -4.3574070    -0.0294260    -0.6053230
  H       -3.0076490    -0.8981260    -1.3586750
  H        2.8074370     0.0467670    -0.3362510
  H        1.1590650     3.1223080    -0.0299710
  H        2.6215300    -2.2543830    -0.2976190
units angstrom
no_reorient  #important for SAPT in psi4, default
symmetry c1  #important for SAPT in psi4, default
}

set PROPERTIES_ORIGIN ["COM"]
properties('MP2/aug-cc-pvtz', properties = ['dipole'])
--------------------------------------------------------------------------

    Molecular point group: c1
  Charge       = 0
  Multiplicity = 1
  Basis Set: AUG-CC-PVTZ
    Blend: AUG-CC-PVTZ
  Basis Set: (AUG-CC-PVTZ AUX)
    Blend: AUG-CC-PVTZ-JKFIT

    Orbital Energies [Eh]
    ---------------------

    Doubly Occupied:

       1A    -20.596096     2A    -20.589021     3A    -11.313093
       4A    -11.309251     5A    -11.252412     6A    -11.232581
       7A    -11.223492     8A    -11.223004     9A    -11.220086
      10A    -11.216674    11A     -1.406522    12A     -1.403820
      13A     -1.149345    14A     -1.063027    15A     -1.001532
      16A     -0.988037    17A     -0.877687    18A     -0.836563
      19A     -0.810363    20A     -0.741750    21A     -0.687711
      22A     -0.676250    23A     -0.668908    24A     -0.612335
      25A     -0.602284    26A     -0.595826    27A     -0.587259
      28A     -0.576129    29A     -0.554555    30A     -0.549378
      31A     -0.523466    32A     -0.519549    33A     -0.488316
      34A     -0.484102    35A     -0.453086    36A     -0.324761
      37A     -0.311416

  @DF-RHF Final Energy:  -458.66046360774186

   => Energetics <=

    Nuclear Repulsion Energy =            507.2085582500435521
    One-Electron Energy =               -1630.3986649016821957
    Two-Electron Energy =                 664.5296430438967263
    Total Energy =                       -458.6604636077419173
  Basis Set: (AUG-CC-PVTZ AUX)
    Blend: AUG-CC-PVTZ-RI
    Molecular point group: c1

    Geometry (in Angstrom), charge = 0, multiplicity = 1:

       Center              X                  Y                   Z               Mass
    ------------   -----------------  -----------------  -----------------  -----------------
         O            1.758588939425     2.368149436881    -0.145128257235    15.994914619570
         O            1.692002139425    -2.395928963119    -0.130903557235    15.994914619570
         C           -1.025772060575    -0.007948563119     0.364900742765    12.000000000000
         C           -2.518153060575    -0.019671563119     0.564189742765    12.000000000000
         C           -0.327266060575    -1.207618563119     0.235127742765    12.000000000000
         C           -0.341259060575     1.204997436881     0.235624742765    12.000000000000
         C           -3.277770060575    -0.019978563119    -0.763575257235    12.000000000000
         C            1.030486939425     1.210437436881    -0.017349257235    12.000000000000
         C            1.043855939425    -1.191268563119    -0.018248257235    12.000000000000
         C            1.753274139425     0.002147936881    -0.148647757235    12.000000000000
         H           -2.796985060575    -0.903268563119     1.149086742765     1.007825032230
         H           -2.812489060575     0.853629436881     1.158065742765     1.007825032230
         H           -0.835437060575    -2.163776563119     0.331672742765     1.007825032230
         H           -0.883160060575     2.145421436881     0.335942742765     1.007825032230
         H           -3.027299060575     0.867031436881    -1.352021257235     1.007825032230
         H           -4.361607060575    -0.029656563119    -0.604570257235     1.007825032230
         H           -3.011849060575    -0.898356563119    -1.357922257235     1.007825032230
         H            2.803236939425     0.046536436881    -0.335498257235     1.007825032230
         H            1.154864939425     3.122077436881    -0.029218257235     1.007825032230
         H            2.617329939425    -2.254613563119    -0.296866257235     1.007825032230

  Basis Set: AUG-CC-PVTZ
    Blend: AUG-CC-PVTZ
  Basis Set: (AUG-CC-PVTZ AUX)
    Blend: AUG-CC-PVTZ-JKFIT
	 Reference Energy          =    -458.6604636077418604 [Eh]
	 Singles Energy            =      -0.0000000000000000 [Eh]
	 Same-Spin Energy          =      -0.4812644884513222 [Eh]
	 Opposite-Spin Energy      =      -1.5043525513015519 [Eh]
	 Correlation Energy        =      -1.9856170397528741 [Eh]
	 Total Energy              =    -460.6460806474947276 [Eh]

	 ================> DF-SCS-MP2 Energies <==================
	-----------------------------------------------------------
	 SCS Same-Spin Scale       =       0.3333333333333333 [-]
	 SCS Opposite-Spin Scale   =       1.2000000000000000 [-]
	 SCS Same-Spin Energy      =      -0.1604214961504407 [Eh]
	 SCS Opposite-Spin Energy  =      -1.8052230615618621 [Eh]
	 SCS Correlation Energy    =      -1.9656445577123027 [Eh]
	 SCS Total Energy          =    -460.6261081654541840 [Eh]
	-----------------------------------------------------------

  Dipole Moment: [D]
     X:    -0.5364      Y:     1.2522      Z:     0.0146     Total:     1.3623

*** Psi4 exiting successfully. Buy a developer a beer!
