                               Psi4 1.3.2 release

  ==> Input File <==

--------------------------------------------------------------------------
#psi4
#
memory 32 gb

molecule  {
0 1
  O        1.7627890     2.3683800    -0.1458810
  O        1.6754140    -2.4069960    -0.1279020
  C       -1.0215720    -0.0077180     0.3641480
  C       -2.5139530    -0.0194410     0.5634370
  C       -0.3230660    -1.2073880     0.2343750
  C       -0.3354792     1.2782376     0.2344679
  C       -3.2735700    -0.0197480    -0.7643280
  C        1.0346870     1.2106680    -0.0181020
  C        1.0480560    -1.1910380    -0.0190010
  C        1.7974353     0.0537748    -0.1569753
  H       -2.7927850    -0.9030380     1.1483340
  H       -2.8082890     0.8538600     1.1573130
  H       -0.8312370    -2.1635460     0.3309200
  H       -0.8789600     2.1456520     0.3351900
  H       -3.0230990     0.8672620    -1.3527740
  H       -4.3574070    -0.0294260    -0.6053230
  H       -3.0076490    -0.8981260    -1.3586750
  H        2.8074370     0.0467670    -0.3362510
  H        1.1590650     3.1223080    -0.0299710
  H        2.6215300    -2.2543830    -0.2976190
units angstrom
no_reorient  #important for SAPT in psi4, default
symmetry c1  #important for SAPT in psi4, default
}

set PROPERTIES_ORIGIN ["COM"]
properties('MP2/aug-cc-pvtz', properties = ['dipole'])
--------------------------------------------------------------------------

    Molecular point group: c1
  Charge       = 0
  Multiplicity = 1
  Basis Set: AUG-CC-PVTZ
    Blend: AUG-CC-PVTZ
  Basis Set: (AUG-CC-PVTZ AUX)
    Blend: AUG-CC-PVTZ-JKFIT

    Orbital Energies [Eh]
    ---------------------

    Doubly Occupied:

       1A    -20.596894     2A    -20.587881     3A    -11.319957
       4A    -11.310511     5A    -11.261887     6A    -11.233108
       7A    -11.223629     8A    -11.221416     9A    -11.220799
      10A    -11.218133    11A     -1.405494    12A     -1.400315
      13A     -1.139721    14A     -1.060192    15A     -1.002011
      16A     -0.984725    17A     -0.881380    18A     -0.832329
      19A     -0.806199    20A     -0.733787    21A     -0.696842
      22A     -0.674270    23A     -0.670366    24A     -0.610632
      25A     -0.604644    26A     -0.596159    27A     -0.590811
      28A     -0.575169    29A     -0.561906    30A     -0.545496
      31A     -0.528909    32A     -0.517738    33A     -0.489693
      34A     -0.478909    35A     -0.446507    36A     -0.321652
      37A     -0.309257

  @DF-RHF Final Energy:  -458.64522250262854

   => Energetics <=

    Nuclear Repulsion Energy =            505.3729631046762165
    One-Electron Energy =               -1626.7177132701904156
    Two-Electron Energy =                 662.6995276628855436
    Total Energy =                       -458.6452225026285987
  Basis Set: (AUG-CC-PVTZ AUX)
    Blend: AUG-CC-PVTZ-RI
    Molecular point group: c1

    Geometry (in Angstrom), charge = 0, multiplicity = 1:

       Center              X                  Y                   Z               Mass
    ------------   -----------------  -----------------  -----------------  -----------------
         O            1.757386740362     2.358645671371    -0.144869710204    15.994914619570
         O            1.670011740362    -2.416730328629    -0.126890710204    15.994914619570
         C           -1.026974259638    -0.017452328629     0.365159289796    12.000000000000
         C           -2.519355259638    -0.029175328629     0.564448289796    12.000000000000
         C           -0.328468259638    -1.217122328629     0.235386289796    12.000000000000
         C           -0.340881459638     1.268503271371     0.235479189796    12.000000000000
         C           -3.278972259638    -0.029482328629    -0.763316710204    12.000000000000
         C            1.029284740362     1.200933671371    -0.017090710204    12.000000000000
         C            1.042653740362    -1.200772328629    -0.017989710204    12.000000000000
         C            1.792033040362     0.044040471371    -0.155964010204    12.000000000000
         H           -2.798187259638    -0.912772328629     1.149345289796     1.007825032230
         H           -2.813691259638     0.844125671371     1.158324289796     1.007825032230
         H           -0.836639259638    -2.173280328629     0.331931289796     1.007825032230
         H           -0.884362259638     2.135917671371     0.336201289796     1.007825032230
         H           -3.028501259638     0.857527671371    -1.351762710204     1.007825032230
         H           -4.362809259638    -0.039160328629    -0.604311710204     1.007825032230
         H           -3.013051259638    -0.907860328629    -1.357663710204     1.007825032230
         H            2.802034740362     0.037032671371    -0.335239710204     1.007825032230
         H            1.153662740362     3.112573671371    -0.028959710204     1.007825032230
         H            2.616127740362    -2.264117328629    -0.296607710204     1.007825032230

  Basis Set: AUG-CC-PVTZ
    Blend: AUG-CC-PVTZ
  Basis Set: (AUG-CC-PVTZ AUX)
    Blend: AUG-CC-PVTZ-JKFIT
	 Reference Energy          =    -458.6452225026285419 [Eh]
	 Singles Energy            =      -0.0000000000000000 [Eh]
	 Same-Spin Energy          =      -0.4813083294691383 [Eh]
	 Opposite-Spin Energy      =      -1.5057402722951156 [Eh]
	 Correlation Energy        =      -1.9870486017642539 [Eh]
	 Total Energy              =    -460.6322711043927711 [Eh]

	 ================> DF-SCS-MP2 Energies <==================
	-----------------------------------------------------------
	 SCS Same-Spin Scale       =       0.3333333333333333 [-]
	 SCS Opposite-Spin Scale   =       1.2000000000000000 [-]
	 SCS Same-Spin Energy      =      -0.1604361098230461 [Eh]
	 SCS Opposite-Spin Energy  =      -1.8068883267541387 [Eh]
	 SCS Correlation Energy    =      -1.9673244365771847 [Eh]
	 SCS Total Energy          =    -460.6125469392057425 [Eh]
	-----------------------------------------------------------

  Dipole Moment: [D]
     X:    -0.5240      Y:     1.0459      Z:     0.0125     Total:     1.1699

*** Psi4 exiting successfully. Buy a developer a beer!
