                               Psi4 1.4a3.dev225

  ==> Input File <==

--------------------------------------------------------------------------
#psi4
#
memory 32 gb

molecule  {
0 1
  O       -1.8116000     2.3801270     0.1363720
  O       -1.7799440    -2.3994320     0.1189850
  C        0.9489570    -0.0306590    -0.3689570
  C        2.4429910    -0.0568610    -0.5708560
  C        0.2354480    -1.2220220    -0.2373930
  C        0.2798030     1.1938580    -0.2383990
  C        3.1984060    -0.0265600     0.7613490
  C       -1.0921630     1.2139390     0.0079710
  C       -1.1396310    -1.1871160     0.0102260
  C       -1.8132500     0.0254130     0.1385790
  H        2.7180680    -0.9584190    -1.1301260
  H        2.7446220     0.7994920    -1.1857830
  H        0.7258350    -2.1872220    -0.3369480
  H        0.8309290     2.1284970    -0.3452230
  H        2.9508560     0.8787730     1.3230630
  H        4.2811760    -0.0477390     0.6027570
  H        2.9230980    -0.8883860     1.3756490
  H       -2.8837580     0.0741080     0.3259950
  H       -1.1979550     3.1274200     0.0245130
  H       -2.7432702    -2.2285989     0.2916122
units angstrom
no_reorient  #important for SAPT in psi4, default
symmetry c1  #important for SAPT in psi4, default
}

set PROPERTIES_ORIGIN ["COM"]
properties('MP2/aug-cc-pvtz', properties = ['dipole'])
--------------------------------------------------------------------------

    Molecular point group: c1
  Charge       = 0
  Multiplicity = 1
  Basis Set: AUG-CC-PVTZ
    Blend: AUG-CC-PVTZ
  Basis Set: (AUG-CC-PVTZ AUX)
    Blend: AUG-CC-PVTZ-JKFIT

    Orbital Energies [Eh]
    ---------------------

    Doubly Occupied:

       1A    -20.595618     2A    -20.594968     3A    -11.311046
       4A    -11.309098     5A    -11.252282     6A    -11.232562
       7A    -11.224405     8A    -11.223251     9A    -11.219837
      10A    -11.216780    11A     -1.403825    12A     -1.397105
      13A     -1.149427    14A     -1.063345    15A     -1.000331
      16A     -0.987670    17A     -0.875995    18A     -0.835628
      19A     -0.806073    20A     -0.737680    21A     -0.686851
      22A     -0.672943    23A     -0.664918    24A     -0.611591
      25A     -0.601910    26A     -0.595140    27A     -0.586646
      28A     -0.575362    29A     -0.552709    30A     -0.548384
      31A     -0.523305    32A     -0.521295    33A     -0.488261
      34A     -0.482610    35A     -0.453523    36A     -0.325826
      37A     -0.311380

  @DF-RHF Final Energy:  -458.65803924033821

   => Energetics <=

    Nuclear Repulsion Energy =            506.9692353795937834
    One-Electron Energy =               -1629.9753912986825526
    Two-Electron Energy =                 664.3481166787505572
    Total Energy =                       -458.6580392403382120
  Basis Set: (AUG-CC-PVTZ AUX)
    Blend: AUG-CC-PVTZ-RI
    Molecular point group: c1

    Geometry (in Angstrom), charge = 0, multiplicity = 1:

       Center              X                  Y                   Z               Mass
    ------------   -----------------  -----------------  -----------------  -----------------
         O           -1.737077917088     2.385091879953     0.143125470827    15.994914619570
         O           -1.705421917088    -2.394467120047     0.125738470827    15.994914619570
         C            1.023479082912    -0.025694120047    -0.362203529173    12.000000000000
         C            2.517513082912    -0.051896120047    -0.564102529173    12.000000000000
         C            0.309970082912    -1.217057120047    -0.230639529173    12.000000000000
         C            0.354325082912     1.198822879953    -0.231645529173    12.000000000000
         C            3.272928082912    -0.021595120047     0.768102470827    12.000000000000
         C           -1.017640917088     1.218903879953     0.014724470827    12.000000000000
         C           -1.065108917088    -1.182151120047     0.016979470827    12.000000000000
         C           -1.738727917088     0.030377879953     0.145332470827    12.000000000000
         H            2.792590082912    -0.953454120047    -1.123372529173     1.007825032230
         H            2.819144082912     0.804456879953    -1.179029529173     1.007825032230
         H            0.800357082912    -2.182257120047    -0.330194529173     1.007825032230
         H            0.905451082912     2.133461879953    -0.338469529173     1.007825032230
         H            3.025378082912     0.883737879953     1.329816470827     1.007825032230
         H            4.355698082912    -0.042774120047     0.609510470827     1.007825032230
         H            2.997620082912    -0.883421120047     1.382402470827     1.007825032230
         H           -2.809235917088     0.079072879953     0.332748470827     1.007825032230
         H           -1.123432917088     3.132384879953     0.031266470827     1.007825032230
         H           -2.668748117088    -2.223634020047     0.298365670827     1.007825032230

  Basis Set: AUG-CC-PVTZ
    Blend: AUG-CC-PVTZ
  Basis Set: (AUG-CC-PVTZ AUX)
    Blend: AUG-CC-PVTZ-JKFIT
	 Reference Energy          =    -458.6580392403382120 [Eh]
	 Singles Energy            =      -0.0000000000000000 [Eh]
	 Same-Spin Energy          =      -0.4819832947761263 [Eh]
	 Opposite-Spin Energy      =      -1.5061250880990675 [Eh]
	 Correlation Energy        =      -1.9881083828751938 [Eh]
	 Total Energy              =    -460.6461476232133805 [Eh]

	 ================> DF-SCS-MP2 Energies <==================
	-----------------------------------------------------------
	 SCS Same-Spin Scale       =       0.3333333333333333 [-]
	 SCS Opposite-Spin Scale   =       1.2000000000000000 [-]
	 SCS Same-Spin Energy      =      -0.1606610982587088 [Eh]
	 SCS Opposite-Spin Energy  =      -1.8073501057188810 [Eh]
	 SCS Correlation Energy    =      -1.9680112039775897 [Eh]
	 SCS Total Energy          =    -460.6260504443158084 [Eh]
	-----------------------------------------------------------

  Dipole Moment: [D]
     X:     0.5074      Y:     1.2172      Z:    -0.0140     Total:     1.3189

*** Psi4 exiting successfully. Buy a developer a beer!
