                               Psi4 1.3.2 release

  ==> Input File <==

--------------------------------------------------------------------------
#psi4
#
memory 32 gb

molecule  {
0 1
  O        1.7627890     2.3683800    -0.1458810
  O        1.6754140    -2.4069960    -0.1279020
  C       -1.0215720    -0.0077180     0.3641480
  C       -2.5139530    -0.0194410     0.5634370
  C       -0.3230660    -1.2073880     0.2343750
  C       -0.3370590     1.2052280     0.2348720
  C       -3.2735700    -0.0197480    -0.7643280
  C        1.0346870     1.2106680    -0.0181020
  C        1.0688879    -1.2030771    -0.0226634
  C        1.7368580     0.0147850    -0.1457440
  H       -2.7927850    -0.9030380     1.1483340
  H       -2.8082890     0.8538600     1.1573130
  H       -0.8312370    -2.1635460     0.3309200
  H       -0.8789600     2.1456520     0.3351900
  H       -3.0230990     0.8672620    -1.3527740
  H       -4.3574070    -0.0294260    -0.6053230
  H       -3.0076490    -0.8981260    -1.3586750
  H        2.8078350     0.0277845    -0.3362550
  H        1.1590650     3.1223080    -0.0299710
  H        2.6215300    -2.2543830    -0.2976190
units angstrom
no_reorient  #important for SAPT in psi4, default
symmetry c1  #important for SAPT in psi4, default
}

set PROPERTIES_ORIGIN ["COM"]
properties('MP2/aug-cc-pvtz', properties = ['dipole'])
--------------------------------------------------------------------------

    Molecular point group: c1
  Charge       = 0
  Multiplicity = 1
  Basis Set: AUG-CC-PVTZ
    Blend: AUG-CC-PVTZ
  Basis Set: (AUG-CC-PVTZ AUX)
    Blend: AUG-CC-PVTZ-JKFIT

    Orbital Energies [Eh]
    ---------------------

    Doubly Occupied:

       1A    -20.598216     2A    -20.595271     3A    -11.310603
       4A    -11.310568     5A    -11.250200     6A    -11.231361
       7A    -11.223388     8A    -11.221470     9A    -11.219038
      10A    -11.216497    11A     -1.414605    12A     -1.404097
      13A     -1.147702    14A     -1.063123    15A     -0.997963
      16A     -0.987249    17A     -0.875622    18A     -0.837587
      19A     -0.810054    20A     -0.741426    21A     -0.689147
      22A     -0.674614    23A     -0.666518    24A     -0.612064
      25A     -0.603783    26A     -0.596202    27A     -0.589620
      28A     -0.579933    29A     -0.551247    30A     -0.548172
      31A     -0.524416    32A     -0.519379    33A     -0.486971
      34A     -0.480556    35A     -0.452479    36A     -0.325897
      37A     -0.307821

  @DF-RHF Final Energy:  -458.65953527488671

   => Energetics <=

    Nuclear Repulsion Energy =            507.3394540885462334
    One-Electron Energy =               -1630.6682600761841968
    Two-Electron Energy =                 664.6692707127511994
    Total Energy =                       -458.6595352748867072
  Basis Set: (AUG-CC-PVTZ AUX)
    Blend: AUG-CC-PVTZ-RI
    Molecular point group: c1

    Geometry (in Angstrom), charge = 0, multiplicity = 1:

       Center              X                  Y                   Z               Mass
    ------------   -----------------  -----------------  -----------------  -----------------
         O            1.760975558915     2.369564871837    -0.145562643495    15.994914619570
         O            1.673600558915    -2.405811128163    -0.127583643495    15.994914619570
         C           -1.023385441085    -0.006533128163     0.364466356505    12.000000000000
         C           -2.515766441085    -0.018256128163     0.563755356505    12.000000000000
         C           -0.324879441085    -1.206203128163     0.234693356505    12.000000000000
         C           -0.338872441085     1.206412871837     0.235190356505    12.000000000000
         C           -3.275383441085    -0.018563128163    -0.764009643495    12.000000000000
         C            1.032873558915     1.211852871837    -0.017783643495    12.000000000000
         C            1.067074458915    -1.201892228163    -0.022345043495    12.000000000000
         C            1.735044558915     0.015969871837    -0.145425643495    12.000000000000
         H           -2.794598441085    -0.901853128163     1.148652356505     1.007825032230
         H           -2.810102441085     0.855044871837     1.157631356505     1.007825032230
         H           -0.833050441085    -2.162361128163     0.331238356505     1.007825032230
         H           -0.880773441085     2.146836871837     0.335508356505     1.007825032230
         H           -3.024912441085     0.868446871837    -1.352455643495     1.007825032230
         H           -4.359220441085    -0.028241128163    -0.605004643495     1.007825032230
         H           -3.009462441085    -0.896941128163    -1.358356643495     1.007825032230
         H            2.806021558915     0.028969371837    -0.335936643495     1.007825032230
         H            1.157251558915     3.123492871837    -0.029652643495     1.007825032230
         H            2.619716558915    -2.253198128163    -0.297300643495     1.007825032230

  Basis Set: AUG-CC-PVTZ
    Blend: AUG-CC-PVTZ
  Basis Set: (AUG-CC-PVTZ AUX)
    Blend: AUG-CC-PVTZ-JKFIT
	 Reference Energy          =    -458.6595352748867072 [Eh]
	 Singles Energy            =      -0.0000000000000000 [Eh]
	 Same-Spin Energy          =      -0.4817127479552601 [Eh]
	 Opposite-Spin Energy      =      -1.5050919539544034 [Eh]
	 Correlation Energy        =      -1.9868047019096635 [Eh]
	 Total Energy              =    -460.6463399767963551 [Eh]

	 ================> DF-SCS-MP2 Energies <==================
	-----------------------------------------------------------
	 SCS Same-Spin Scale       =       0.3333333333333333 [-]
	 SCS Opposite-Spin Scale   =       1.2000000000000000 [-]
	 SCS Same-Spin Energy      =      -0.1605709159850867 [Eh]
	 SCS Opposite-Spin Energy  =      -1.8061103447452840 [Eh]
	 SCS Correlation Energy    =      -1.9666812607303708 [Eh]
	 SCS Total Energy          =    -460.6262165356170613 [Eh]
	-----------------------------------------------------------

  Dipole Moment: [D]
     X:    -0.4021      Y:     1.0850      Z:    -0.0048     Total:     1.1572

*** Psi4 exiting successfully. Buy a developer a beer!
