                               Psi4 1.3.2 release

  ==> Input File <==

--------------------------------------------------------------------------
#psi4
#
memory 32 gb

molecule  {
0 1
  O        1.7627890     2.3683800    -0.1458810
  O        1.7167400    -2.3840350    -0.1356680
  C       -1.0215720    -0.0077180     0.3641480
  C       -2.5139530    -0.0194410     0.5634370
  C       -0.3228418    -1.1587172     0.2340539
  C       -0.3370590     1.2052280     0.2348720
  C       -3.2735700    -0.0197480    -0.7643280
  C        1.0346870     1.2106680    -0.0181020
  C        1.0480560    -1.1910380    -0.0190010
  C        1.7368580     0.0147850    -0.1457440
  H       -2.7927850    -0.9030380     1.1483340
  H       -2.8082890     0.8538600     1.1573130
  H       -0.8312370    -2.1635460     0.3309200
  H       -0.8789600     2.1456520     0.3351900
  H       -3.0230990     0.8672620    -1.3527740
  H       -4.3574070    -0.0294260    -0.6053230
  H       -3.0076490    -0.8981260    -1.3586750
  H        2.8074370     0.0467670    -0.3362510
  H        1.1590650     3.1223080    -0.0299710
  H        2.6215300    -2.2543830    -0.2976190
units angstrom
no_reorient  #important for SAPT in psi4, default
symmetry c1  #important for SAPT in psi4, default
}

set PROPERTIES_ORIGIN ["COM"]
properties('MP2/aug-cc-pvtz', properties = ['dipole'])
--------------------------------------------------------------------------

    Molecular point group: c1
  Charge       = 0
  Multiplicity = 1
  Basis Set: AUG-CC-PVTZ
    Blend: AUG-CC-PVTZ
  Basis Set: (AUG-CC-PVTZ AUX)
    Blend: AUG-CC-PVTZ-JKFIT

    Orbital Energies [Eh]
    ---------------------

    Doubly Occupied:

       1A    -20.594463     2A    -20.589898     3A    -11.310517
       4A    -11.308695     5A    -11.246419     6A    -11.232552
       7A    -11.223293     8A    -11.222057     9A    -11.219837
      10A    -11.217920    11A     -1.411791    12A     -1.403414
      13A     -1.156458    14A     -1.065278    15A     -1.002601
      16A     -0.990191    17A     -0.877458    18A     -0.840152
      19A     -0.813107    20A     -0.744454    21A     -0.686759
      22A     -0.681664    23A     -0.665828    24A     -0.613147
      25A     -0.603058    26A     -0.597074    27A     -0.583634
      28A     -0.576995    29A     -0.554698    30A     -0.549237
      31A     -0.524089    32A     -0.513608    33A     -0.489727
      34A     -0.480197    35A     -0.457499    36A     -0.328288
      37A     -0.312043

  @DF-RHF Final Energy:  -458.65740477640310

   => Energetics <=

    Nuclear Repulsion Energy =            508.4176063203698845
    One-Electron Energy =               -1632.7738235300046199
    Two-Electron Energy =                 665.6988124332316374
    Total Energy =                       -458.6574047764030411
  Basis Set: (AUG-CC-PVTZ AUX)
    Blend: AUG-CC-PVTZ-RI
    Molecular point group: c1

    Geometry (in Angstrom), charge = 0, multiplicity = 1:

       Center              X                  Y                   Z               Mass
    ------------   -----------------  -----------------  -----------------  -----------------
         O            1.757982018855     2.361489804255    -0.144953401475    15.994914619570
         O            1.711933018855    -2.390925195745    -0.134740401475    15.994914619570
         C           -1.026378981145    -0.014608195745     0.365075598525    12.000000000000
         C           -2.518759981145    -0.026331195745     0.564364598525    12.000000000000
         C           -0.327648781145    -1.165607395745     0.234981498525    12.000000000000
         C           -0.341865981145     1.198337804255     0.235799598525    12.000000000000
         C           -3.278376981145    -0.026638195745    -0.763400401475    12.000000000000
         C            1.029880018855     1.203777804255    -0.017174401475    12.000000000000
         C            1.043249018855    -1.197928195745    -0.018073401475    12.000000000000
         C            1.732051018855     0.007894804255    -0.144816401475    12.000000000000
         H           -2.797591981145    -0.909928195745     1.149261598525     1.007825032230
         H           -2.813095981145     0.846969804255     1.158240598525     1.007825032230
         H           -0.836043981145    -2.170436195745     0.331847598525     1.007825032230
         H           -0.883766981145     2.138761804255     0.336117598525     1.007825032230
         H           -3.027905981145     0.860371804255    -1.351846401475     1.007825032230
         H           -4.362213981145    -0.036316195745    -0.604395401475     1.007825032230
         H           -3.012455981145    -0.905016195745    -1.357747401475     1.007825032230
         H            2.802630018855     0.039876804255    -0.335323401475     1.007825032230
         H            1.154258018855     3.115417804255    -0.029043401475     1.007825032230
         H            2.616723018855    -2.261273195745    -0.296691401475     1.007825032230

  Basis Set: AUG-CC-PVTZ
    Blend: AUG-CC-PVTZ
  Basis Set: (AUG-CC-PVTZ AUX)
    Blend: AUG-CC-PVTZ-JKFIT
	 Reference Energy          =    -458.6574047764030979 [Eh]
	 Singles Energy            =      -0.0000000000000000 [Eh]
	 Same-Spin Energy          =      -0.4812631105927738 [Eh]
	 Opposite-Spin Energy      =      -1.5037894032364885 [Eh]
	 Correlation Energy        =      -1.9850525138292623 [Eh]
	 Total Energy              =    -460.6424572902323575 [Eh]

	 ================> DF-SCS-MP2 Energies <==================
	-----------------------------------------------------------
	 SCS Same-Spin Scale       =       0.3333333333333333 [-]
	 SCS Opposite-Spin Scale   =       1.2000000000000000 [-]
	 SCS Same-Spin Energy      =      -0.1604210368642579 [Eh]
	 SCS Opposite-Spin Energy  =      -1.8045472838837862 [Eh]
	 SCS Correlation Energy    =      -1.9649683207480440 [Eh]
	 SCS Total Energy          =    -460.6223730971511259 [Eh]
	-----------------------------------------------------------

  Dipole Moment: [D]
     X:    -0.5447      Y:     1.1961      Z:     0.0157     Total:     1.3144

*** Psi4 exiting successfully. Buy a developer a beer!
