                               Psi4 1.4a3.dev225

  ==> Input File <==

--------------------------------------------------------------------------
#psi4
#
memory 32 gb

molecule  {
0 1
  O       -1.8116000     2.3801270     0.1363720
  O       -1.7799440    -2.3994320     0.1189850
  C        0.9489570    -0.0306590    -0.3689570
  C        2.4429910    -0.0568610    -0.5708560
  C        0.2354480    -1.2220220    -0.2373930
  C        0.2798030     1.1938580    -0.2383990
  C        3.1984060    -0.0265600     0.7613490
  C       -1.0921630     1.2139390     0.0079710
  C       -1.1396310    -1.1871160     0.0102260
  C       -1.8132500     0.0254130     0.1385790
  H        2.7180680    -0.9584190    -1.1301260
  H        2.7446220     0.7994920    -1.1857830
  H        0.7032822    -2.1428327    -0.3323695
  H        0.8309290     2.1284970    -0.3452230
  H        2.9508560     0.8787730     1.3230630
  H        4.2811760    -0.0477390     0.6027570
  H        2.9230980    -0.8883860     1.3756490
  H       -2.8837580     0.0741080     0.3259950
  H       -1.1979550     3.1274200     0.0245130
  H       -2.7238770    -2.2320380     0.2881370
units angstrom
no_reorient  #important for SAPT in psi4, default
symmetry c1  #important for SAPT in psi4, default
}

set PROPERTIES_ORIGIN ["COM"]
properties('MP2/aug-cc-pvtz', properties = ['dipole'])
--------------------------------------------------------------------------

    Molecular point group: c1
  Charge       = 0
  Multiplicity = 1
  Basis Set: AUG-CC-PVTZ
    Blend: AUG-CC-PVTZ
  Basis Set: (AUG-CC-PVTZ AUX)
    Blend: AUG-CC-PVTZ-JKFIT

    Orbital Energies [Eh]
    ---------------------

    Doubly Occupied:

       1A    -20.595566     2A    -20.593389     3A    -11.311005
       4A    -11.308812     5A    -11.251949     6A    -11.232668
       7A    -11.224236     8A    -11.223049     9A    -11.219964
      10A    -11.211038    11A     -1.404164    12A     -1.400838
      13A     -1.149832    14A     -1.063492    15A     -1.002614
      16A     -0.987930    17A     -0.876432    18A     -0.837890
      19A     -0.807651    20A     -0.739352    21A     -0.690268
      22A     -0.675781    23A     -0.666922    24A     -0.611650
      25A     -0.602011    26A     -0.595280    27A     -0.590413
      28A     -0.575731    29A     -0.553255    30A     -0.548941
      31A     -0.525491    32A     -0.522490    33A     -0.488352
      34A     -0.482969    35A     -0.453533    36A     -0.325726
      37A     -0.311359

  @DF-RHF Final Energy:  -458.65892020318171

   => Energetics <=

    Nuclear Repulsion Energy =            507.3601955355729842
    One-Electron Energy =               -1630.7141432544958661
    Two-Electron Energy =                 664.6950275157412307
    Total Energy =                       -458.6589202031816512
  Basis Set: (AUG-CC-PVTZ AUX)
    Blend: AUG-CC-PVTZ-RI
    Molecular point group: c1

    Geometry (in Angstrom), charge = 0, multiplicity = 1:

       Center              X                  Y                   Z               Mass
    ------------   -----------------  -----------------  -----------------  -----------------
         O           -1.737054853654     2.384792964832     0.143117417312    15.994914619570
         O           -1.705398853654    -2.394766035168     0.125730417312    15.994914619570
         C            1.023502146346    -0.025993035168    -0.362211582688    12.000000000000
         C            2.517536146346    -0.052195035168    -0.564110582688    12.000000000000
         C            0.309993146346    -1.217356035168    -0.230647582688    12.000000000000
         C            0.354348146346     1.198523964832    -0.231653582688    12.000000000000
         C            3.272951146346    -0.021894035168     0.768094417312    12.000000000000
         C           -1.017617853654     1.218604964832     0.014716417312    12.000000000000
         C           -1.065085853654    -1.182450035168     0.016971417312    12.000000000000
         C           -1.738704853654     0.030078964832     0.145324417312    12.000000000000
         H            2.792613146346    -0.953753035168    -1.123380582688     1.007825032230
         H            2.819167146346     0.804157964832    -1.179037582688     1.007825032230
         H            0.777827346346    -2.138166735168    -0.325624082688     1.007825032230
         H            0.905474146346     2.133162964832    -0.338477582688     1.007825032230
         H            3.025401146346     0.883438964832     1.329808417312     1.007825032230
         H            4.355721146346    -0.043073035168     0.609502417312     1.007825032230
         H            2.997643146346    -0.883720035168     1.382394417312     1.007825032230
         H           -2.809212853654     0.078773964832     0.332740417312     1.007825032230
         H           -1.123409853654     3.132085964832     0.031258417312     1.007825032230
         H           -2.649331853654    -2.227372035168     0.294882417312     1.007825032230

  Basis Set: AUG-CC-PVTZ
    Blend: AUG-CC-PVTZ
  Basis Set: (AUG-CC-PVTZ AUX)
    Blend: AUG-CC-PVTZ-JKFIT
	 Reference Energy          =    -458.6589202031817081 [Eh]
	 Singles Energy            =      -0.0000000000000000 [Eh]
	 Same-Spin Energy          =      -0.4816129868775628 [Eh]
	 Opposite-Spin Energy      =      -1.5051688277746780 [Eh]
	 Correlation Energy        =      -1.9867818146522409 [Eh]
	 Total Energy              =    -460.6457020178339690 [Eh]

	 ================> DF-SCS-MP2 Energies <==================
	-----------------------------------------------------------
	 SCS Same-Spin Scale       =       0.3333333333333333 [-]
	 SCS Opposite-Spin Scale   =       1.2000000000000000 [-]
	 SCS Same-Spin Energy      =      -0.1605376622925209 [Eh]
	 SCS Opposite-Spin Energy  =      -1.8062025933296135 [Eh]
	 SCS Correlation Energy    =      -1.9667402556221345 [Eh]
	 SCS Total Energy          =    -460.6256604588038499 [Eh]
	-----------------------------------------------------------

  Dipole Moment: [D]
     X:     0.5340      Y:     1.2168      Z:    -0.0185     Total:     1.3289

*** Psi4 exiting successfully. Buy a developer a beer!
