                               Psi4 1.3.2 release

  ==> Input File <==

--------------------------------------------------------------------------
#psi4
#
memory 32 gb

molecule  {
0 1
  O        1.7627890     2.3683800    -0.1458810
  O        1.6754140    -2.4069960    -0.1279020
  C       -1.0215720    -0.0077180     0.3641480
  C       -2.5139530    -0.0194410     0.5634370
  C       -0.3230660    -1.2073880     0.2343750
  C       -0.3370590     1.2052280     0.2348720
  C       -3.2735700    -0.0197480    -0.7643280
  C        1.0346870     1.2106680    -0.0181020
  C        1.0480560    -1.1910380    -0.0190010
  C        1.8356492     0.1877297    -0.1639221
  H       -2.7927850    -0.9030380     1.1483340
  H       -2.8082890     0.8538600     1.1573130
  H       -0.8312370    -2.1635460     0.3309200
  H       -0.8789600     2.1456520     0.3351900
  H       -3.0230990     0.8672620    -1.3527740
  H       -4.3574070    -0.0294260    -0.6053230
  H       -3.0076490    -0.8981260    -1.3586750
  H        2.8074370     0.0467670    -0.3362510
  H        1.1590650     3.1223080    -0.0299710
  H        2.6215300    -2.2543830    -0.2976190
units angstrom
no_reorient  #important for SAPT in psi4, default
symmetry c1  #important for SAPT in psi4, default
}

set PROPERTIES_ORIGIN ["COM"]
properties('MP2/aug-cc-pvtz', properties = ['dipole'])
--------------------------------------------------------------------------

    Molecular point group: c1
  Charge       = 0
  Multiplicity = 1
  Basis Set: AUG-CC-PVTZ
    Blend: AUG-CC-PVTZ
  Basis Set: (AUG-CC-PVTZ AUX)
    Blend: AUG-CC-PVTZ-JKFIT

    Orbital Energies [Eh]
    ---------------------

    Doubly Occupied:

       1A    -20.601565     2A    -20.583073     3A    -11.326678
       4A    -11.297279     5A    -11.255809     6A    -11.233514
       7A    -11.223962     8A    -11.221370     9A    -11.220956
      10A    -11.215837    11A     -1.406646    12A     -1.399359
      13A     -1.144835    14A     -1.062954    15A     -1.005387
      16A     -0.984271    17A     -0.883164    18A     -0.825691
      19A     -0.807113    20A     -0.738881    21A     -0.700661
      22A     -0.669978    23A     -0.662260    24A     -0.616074
      25A     -0.604429    26A     -0.598766    27A     -0.590725
      28A     -0.576215    29A     -0.562103    30A     -0.543936
      31A     -0.528377    32A     -0.501109    33A     -0.489014
      34A     -0.477107    35A     -0.449402    36A     -0.332735
      37A     -0.302053

  @DF-RHF Final Energy:  -458.61605241659282

   => Energetics <=

    Nuclear Repulsion Energy =            505.9736555930456916
    One-Electron Energy =               -1627.8928427107412062
    Two-Electron Energy =                 663.3031347011025218
    Total Energy =                       -458.6160524165928791
  Basis Set: (AUG-CC-PVTZ AUX)
    Blend: AUG-CC-PVTZ-RI
    Molecular point group: c1

    Geometry (in Angstrom), charge = 0, multiplicity = 1:

       Center              X                  Y                   Z               Mass
    ------------   -----------------  -----------------  -----------------  -----------------
         O            1.754202737213     2.353348693225    -0.144301060301    15.994914619570
         O            1.666827737213    -2.422027306775    -0.126322060301    15.994914619570
         C           -1.030158262787    -0.022749306775     0.365727939699    12.000000000000
         C           -2.522539262787    -0.034472306775     0.565016939699    12.000000000000
         C           -0.331652262787    -1.222419306775     0.235954939699    12.000000000000
         C           -0.345645262787     1.190196693225     0.236451939699    12.000000000000
         C           -3.282156262787    -0.034779306775    -0.762748060301    12.000000000000
         C            1.026100737213     1.195636693225    -0.016522060301    12.000000000000
         C            1.039469737213    -1.206069306775    -0.017421060301    12.000000000000
         C            1.827062937213     0.172698393225    -0.162342160301    12.000000000000
         H           -2.801371262787    -0.918069306775     1.149913939699     1.007825032230
         H           -2.816875262787     0.838828693225     1.158892939699     1.007825032230
         H           -0.839823262787    -2.178577306775     0.332499939699     1.007825032230
         H           -0.887546262787     2.130620693225     0.336769939699     1.007825032230
         H           -3.031685262787     0.852230693225    -1.351194060301     1.007825032230
         H           -4.365993262787    -0.044457306775    -0.603743060301     1.007825032230
         H           -3.016235262787    -0.913157306775    -1.357095060301     1.007825032230
         H            2.798850737213     0.031735693225    -0.334671060301     1.007825032230
         H            1.150478737213     3.107276693225    -0.028391060301     1.007825032230
         H            2.612943737213    -2.269414306775    -0.296039060301     1.007825032230

  Basis Set: AUG-CC-PVTZ
    Blend: AUG-CC-PVTZ
  Basis Set: (AUG-CC-PVTZ AUX)
    Blend: AUG-CC-PVTZ-JKFIT
	 Reference Energy          =    -458.6160524165928223 [Eh]
	 Singles Energy            =      -0.0000000000000000 [Eh]
	 Same-Spin Energy          =      -0.4813399196003173 [Eh]
	 Opposite-Spin Energy      =      -1.5072154204442825 [Eh]
	 Correlation Energy        =      -1.9885553400445999 [Eh]
	 Total Energy              =    -460.6046077566374493 [Eh]

	 ================> DF-SCS-MP2 Energies <==================
	-----------------------------------------------------------
	 SCS Same-Spin Scale       =       0.3333333333333333 [-]
	 SCS Opposite-Spin Scale   =       1.2000000000000000 [-]
	 SCS Same-Spin Energy      =      -0.1604466398667724 [Eh]
	 SCS Opposite-Spin Energy  =      -1.8086585045331389 [Eh]
	 SCS Correlation Energy    =      -1.9691051443999115 [Eh]
	 SCS Total Energy          =    -460.5851575609927409 [Eh]
	-----------------------------------------------------------

  Dipole Moment: [D]
     X:    -0.5272      Y:     0.8622      Z:     0.0086     Total:     1.0106

*** Psi4 exiting successfully. Buy a developer a beer!
