                               Psi4 1.3.2 release

  ==> Input File <==

--------------------------------------------------------------------------
#psi4
#
memory 32 gb

molecule  {
0 1
  O        1.7627890     2.3683800    -0.1458810
  O        1.6754140    -2.4069960    -0.1279020
  C       -1.0215720    -0.0077180     0.3641480
  C       -2.5139530    -0.0194410     0.5634370
  C       -0.3230660    -1.2073880     0.2343750
  C       -0.3370590     1.2052280     0.2348720
  C       -3.2735700    -0.0197480    -0.7643280
  C        1.0346870     1.2106680    -0.0181020
  C        1.0480560    -1.1910380    -0.0190010
  C        1.7368580     0.0147850    -0.1457440
  H       -2.7927850    -0.9030380     1.1483340
  H       -2.8082890     0.8538600     1.1573130
  H       -0.8312370    -2.1635460     0.3309200
  H       -0.8789600     2.1456520     0.3351900
  H       -3.0230990     0.8672620    -1.3527740
  H       -4.3574070    -0.0294260    -0.6053230
  H       -3.0076490    -0.8981260    -1.3586750
  H        2.8074370     0.0467670    -0.3362510
  H        1.2211259     3.0448066    -0.0418862
  H        2.6215300    -2.2543830    -0.2976190
units angstrom
no_reorient  #important for SAPT in psi4, default
symmetry c1  #important for SAPT in psi4, default
}

set PROPERTIES_ORIGIN ["COM"]
properties('MP2/aug-cc-pvtz', properties = ['dipole'])
--------------------------------------------------------------------------

    Molecular point group: c1
  Charge       = 0
  Multiplicity = 1
  Basis Set: AUG-CC-PVTZ
    Blend: AUG-CC-PVTZ
  Basis Set: (AUG-CC-PVTZ AUX)
    Blend: AUG-CC-PVTZ-JKFIT

    Orbital Energies [Eh]
    ---------------------

    Doubly Occupied:

       1A    -20.593708     2A    -20.586588     3A    -11.311422
       4A    -11.309202     5A    -11.251927     6A    -11.232410
       7A    -11.224597     8A    -11.223624     9A    -11.219947
      10A    -11.216700    11A     -1.429920    12A     -1.402860
      13A     -1.152302    14A     -1.065712    15A     -1.004452
      16A     -0.989027    17A     -0.877254    18A     -0.847275
      19A     -0.810603    20A     -0.747567    21A     -0.689998
      22A     -0.681678    23A     -0.666819    24A     -0.614361
      25A     -0.604737    26A     -0.596401    27A     -0.588918
      28A     -0.578484    29A     -0.555203    30A     -0.550436
      31A     -0.524273    32A     -0.521683    33A     -0.488103
      34A     -0.483550    35A     -0.455191    36A     -0.326530
      37A     -0.312376

  @DF-RHF Final Energy:  -458.65521726638366

   => Energetics <=

    Nuclear Repulsion Energy =            508.1487410355146039
    One-Electron Energy =               -1632.1362452922337525
    Two-Electron Energy =                 665.3322869903355468
    Total Energy =                       -458.6552172663836018
  Basis Set: (AUG-CC-PVTZ AUX)
    Blend: AUG-CC-PVTZ-RI
    Molecular point group: c1

    Geometry (in Angstrom), charge = 0, multiplicity = 1:

       Center              X                  Y                   Z               Mass
    ------------   -----------------  -----------------  -----------------  -----------------
         O            1.762336028232     2.368945667253    -0.145794010474    15.994914619570
         O            1.674961028232    -2.406430332747    -0.127815010474    15.994914619570
         C           -1.022024971768    -0.007152332747     0.364234989526    12.000000000000
         C           -2.514405971768    -0.018875332747     0.563523989526    12.000000000000
         C           -0.323518971768    -1.206822332747     0.234461989526    12.000000000000
         C           -0.337511971768     1.205793667253     0.234958989526    12.000000000000
         C           -3.274022971768    -0.019182332747    -0.764241010474    12.000000000000
         C            1.034234028232     1.211233667253    -0.018015010474    12.000000000000
         C            1.047603028232    -1.190472332747    -0.018914010474    12.000000000000
         C            1.736405028232     0.015350667253    -0.145657010474    12.000000000000
         H           -2.793237971768    -0.902472332747     1.148420989526     1.007825032230
         H           -2.808741971768     0.854425667253     1.157399989526     1.007825032230
         H           -0.831689971768    -2.162980332747     0.331006989526     1.007825032230
         H           -0.879412971768     2.146217667253     0.335276989526     1.007825032230
         H           -3.023551971768     0.867827667253    -1.352687010474     1.007825032230
         H           -4.357859971768    -0.028860332747    -0.605236010474     1.007825032230
         H           -3.008101971768    -0.897560332747    -1.358588010474     1.007825032230
         H            2.806984028232     0.047332667253    -0.336164010474     1.007825032230
         H            1.220672928232     3.045372267253    -0.041799210474     1.007825032230
         H            2.621077028232    -2.253817332747    -0.297532010474     1.007825032230

  Basis Set: AUG-CC-PVTZ
    Blend: AUG-CC-PVTZ
  Basis Set: (AUG-CC-PVTZ AUX)
    Blend: AUG-CC-PVTZ-JKFIT
	 Reference Energy          =    -458.6552172663836586 [Eh]
	 Singles Energy            =      -0.0000000000000000 [Eh]
	 Same-Spin Energy          =      -0.4804894127788419 [Eh]
	 Opposite-Spin Energy      =      -1.5022355514070656 [Eh]
	 Correlation Energy        =      -1.9827249641859075 [Eh]
	 Total Energy              =    -460.6379422305695925 [Eh]

	 ================> DF-SCS-MP2 Energies <==================
	-----------------------------------------------------------
	 SCS Same-Spin Scale       =       0.3333333333333333 [-]
	 SCS Opposite-Spin Scale   =       1.2000000000000000 [-]
	 SCS Same-Spin Energy      =      -0.1601631375929473 [Eh]
	 SCS Opposite-Spin Energy  =      -1.8026826616884786 [Eh]
	 SCS Correlation Energy    =      -1.9628457992814259 [Eh]
	 SCS Total Energy          =    -460.6180630656650692 [Eh]
	-----------------------------------------------------------

  Dipole Moment: [D]
     X:    -0.4781      Y:     1.1081      Z:     0.0037     Total:     1.2069

*** Psi4 exiting successfully. Buy a developer a beer!
