                               Psi4 1.3.2 release

  ==> Input File <==

--------------------------------------------------------------------------
#psi4
#
memory 32 gb

molecule  {
0 1
  O        1.7627890     2.3683800    -0.1458810
  O        1.6754140    -2.4069960    -0.1279020
  C       -1.0215720    -0.0077180     0.3641480
  C       -2.5139530    -0.0194410     0.5634370
  C       -0.3230660    -1.2073880     0.2343750
  C       -0.3370590     1.2052280     0.2348720
  C       -3.2735700    -0.0197480    -0.7643280
  C        1.0346870     1.2106680    -0.0181020
  C        1.0480560    -1.1910380    -0.0190010
  C        1.6380668    -0.1581597    -0.1275659
  H       -2.7927850    -0.9030380     1.1483340
  H       -2.8082890     0.8538600     1.1573130
  H       -0.8312370    -2.1635460     0.3309200
  H       -0.8789600     2.1456520     0.3351900
  H       -3.0230990     0.8672620    -1.3527740
  H       -4.3574070    -0.0294260    -0.6053230
  H       -3.0076490    -0.8981260    -1.3586750
  H        2.8074370     0.0467670    -0.3362510
  H        1.1590650     3.1223080    -0.0299710
  H        2.6215300    -2.2543830    -0.2976190
units angstrom
no_reorient  #important for SAPT in psi4, default
symmetry c1  #important for SAPT in psi4, default
}

set PROPERTIES_ORIGIN ["COM"]
properties('MP2/aug-cc-pvtz', properties = ['dipole'])
--------------------------------------------------------------------------

    Molecular point group: c1
  Charge       = 0
  Multiplicity = 1
  Basis Set: AUG-CC-PVTZ
    Blend: AUG-CC-PVTZ
  Basis Set: (AUG-CC-PVTZ AUX)
    Blend: AUG-CC-PVTZ-JKFIT

    Orbital Energies [Eh]
    ---------------------

    Doubly Occupied:

       1A    -20.607396     2A    -20.581568     3A    -11.324715
       4A    -11.275467     5A    -11.247814     6A    -11.231038
       7A    -11.224961     8A    -11.223382     9A    -11.218805
      10A    -11.215920    11A     -1.411845    12A     -1.397326
      13A     -1.162571    14A     -1.075329    15A     -1.011085
      16A     -0.983143    17A     -0.875477    18A     -0.846700
      19A     -0.804606    20A     -0.739662    21A     -0.693837
      22A     -0.677537    23A     -0.659235    24A     -0.614142
      25A     -0.607529    26A     -0.597547    27A     -0.580153
      28A     -0.578817    29A     -0.560007    30A     -0.536972
      31A     -0.526472    32A     -0.504328    33A     -0.486845
      34A     -0.467364    35A     -0.460293    36A     -0.349530
      37A     -0.303536

  @DF-RHF Final Energy:  -458.59541249795939

   => Energetics <=

    Nuclear Repulsion Energy =            509.7073358422850902
    One-Electron Energy =               -1635.2795824261088455
    Two-Electron Energy =                 666.9768340858643114
    Total Energy =                       -458.5954124979593871
  Basis Set: (AUG-CC-PVTZ AUX)
    Blend: AUG-CC-PVTZ-RI
    Molecular point group: c1

    Geometry (in Angstrom), charge = 0, multiplicity = 1:

       Center              X                  Y                   Z               Mass
    ------------   -----------------  -----------------  -----------------  -----------------
         O            1.771375343709     2.383411201614    -0.147460910148    15.994914619570
         O            1.684000343709    -2.391964798386    -0.129481910148    15.994914619570
         C           -1.012985656291     0.007313201614     0.362568089852    12.000000000000
         C           -2.505366656291    -0.004409798386     0.561857089852    12.000000000000
         C           -0.314479656291    -1.192356798386     0.232795089852    12.000000000000
         C           -0.328472656291     1.220259201614     0.233292089852    12.000000000000
         C           -3.264983656291    -0.004716798386    -0.765907910148    12.000000000000
         C            1.043273343709     1.225699201614    -0.019681910148    12.000000000000
         C            1.056642343709    -1.176006798386    -0.020580910148    12.000000000000
         C            1.646653143709    -0.143128498386    -0.129145810148    12.000000000000
         H           -2.784198656291    -0.888006798386     1.146754089852     1.007825032230
         H           -2.799702656291     0.868891201614     1.155733089852     1.007825032230
         H           -0.822650656291    -2.148514798386     0.329340089852     1.007825032230
         H           -0.870373656291     2.160683201614     0.333610089852     1.007825032230
         H           -3.014512656291     0.882293201614    -1.354353910148     1.007825032230
         H           -4.348820656291    -0.014394798386    -0.606902910148     1.007825032230
         H           -2.999062656291    -0.883094798386    -1.360254910148     1.007825032230
         H            2.816023343709     0.061798201614    -0.337830910148     1.007825032230
         H            1.167651343709     3.137339201614    -0.031550910148     1.007825032230
         H            2.630116343709    -2.239351798386    -0.299198910148     1.007825032230

  Basis Set: AUG-CC-PVTZ
    Blend: AUG-CC-PVTZ
  Basis Set: (AUG-CC-PVTZ AUX)
    Blend: AUG-CC-PVTZ-JKFIT
	 Reference Energy          =    -458.5954124979593871 [Eh]
	 Singles Energy            =      -0.0000000000000000 [Eh]
	 Same-Spin Energy          =      -0.4816816323551151 [Eh]
	 Opposite-Spin Energy      =      -1.5068823036041055 [Eh]
	 Correlation Energy        =      -1.9885639359592207 [Eh]
	 Total Energy              =    -460.5839764339186218 [Eh]

	 ================> DF-SCS-MP2 Energies <==================
	-----------------------------------------------------------
	 SCS Same-Spin Scale       =       0.3333333333333333 [-]
	 SCS Opposite-Spin Scale   =       1.2000000000000000 [-]
	 SCS Same-Spin Energy      =      -0.1605605441183717 [Eh]
	 SCS Opposite-Spin Energy  =      -1.8082587643249264 [Eh]
	 SCS Correlation Energy    =      -1.9688193084432981 [Eh]
	 SCS Total Energy          =    -460.5642318064026881 [Eh]
	-----------------------------------------------------------

  Dipole Moment: [D]
     X:    -0.5576      Y:     1.6628      Z:     0.0226     Total:     1.7539

*** Psi4 exiting successfully. Buy a developer a beer!
