                               Psi4 1.3.2 release

  ==> Input File <==

--------------------------------------------------------------------------
#psi4
#
memory 32 gb

molecule  {
0 1
  O        1.7627890     2.3683800    -0.1458810
  O        1.6754140    -2.4069960    -0.1279020
  C       -1.0215720    -0.0077180     0.3641480
  C       -2.5139530    -0.0194410     0.5634370
  C       -0.3230660    -1.2073880     0.2343750
  C       -0.4349338     1.0317954     0.2533565
  C       -3.2735700    -0.0197480    -0.7643280
  C        1.0346870     1.2106680    -0.0181020
  C        1.0480560    -1.1910380    -0.0190010
  C        1.7368580     0.0147850    -0.1457440
  H       -2.7927850    -0.9030380     1.1483340
  H       -2.8082890     0.8538600     1.1573130
  H       -0.8312370    -2.1635460     0.3309200
  H       -0.8789600     2.1456520     0.3351900
  H       -3.0230990     0.8672620    -1.3527740
  H       -4.3574070    -0.0294260    -0.6053230
  H       -3.0076490    -0.8981260    -1.3586750
  H        2.8074370     0.0467670    -0.3362510
  H        1.1590650     3.1223080    -0.0299710
  H        2.6215300    -2.2543830    -0.2976190
units angstrom
no_reorient  #important for SAPT in psi4, default
symmetry c1  #important for SAPT in psi4, default
}

set PROPERTIES_ORIGIN ["COM"]
properties('MP2/aug-cc-pvtz', properties = ['dipole'])
--------------------------------------------------------------------------

    Molecular point group: c1
  Charge       = 0
  Multiplicity = 1
  Basis Set: AUG-CC-PVTZ
    Blend: AUG-CC-PVTZ
  Basis Set: (AUG-CC-PVTZ AUX)
    Blend: AUG-CC-PVTZ-JKFIT

    Orbital Energies [Eh]
    ---------------------

    Doubly Occupied:

       1A    -20.610317     2A    -20.590365     3A    -11.323159
       4A    -11.304048     5A    -11.229236     6A    -11.226646
       7A    -11.226022     8A    -11.219041     9A    -11.217626
      10A    -11.209509    11A     -1.413350    12A     -1.399453
      13A     -1.173338    14A     -1.068327    15A     -1.001931
      16A     -0.988345    17A     -0.867152    18A     -0.845110
      19A     -0.805810    20A     -0.753736    21A     -0.683284
      22A     -0.677404    23A     -0.652514    24A     -0.615766
      25A     -0.604980    26A     -0.599337    27A     -0.584736
      28A     -0.577755    29A     -0.560612    30A     -0.550542
      31A     -0.524163    32A     -0.511076    33A     -0.487714
      34A     -0.466933    35A     -0.452948    36A     -0.349503
      37A     -0.298065

  @DF-RHF Final Energy:  -458.59543461020365

   => Energetics <=

    Nuclear Repulsion Energy =            509.7199158728886914
    One-Electron Energy =               -1635.2909980021775027
    Two-Electron Energy =                 666.9756475190849869
    Total Energy =                       -458.5954346102037107
  Basis Set: (AUG-CC-PVTZ AUX)
    Blend: AUG-CC-PVTZ-RI
    Molecular point group: c1

    Geometry (in Angstrom), charge = 0, multiplicity = 1:

       Center              X                  Y                   Z               Mass
    ------------   -----------------  -----------------  -----------------  -----------------
         O            1.771295696046     2.383453606781    -0.147487540489    15.994914619570
         O            1.683920696046    -2.391922393219    -0.129508540489    15.994914619570
         C           -1.013065303954     0.007355606781     0.362541459511    12.000000000000
         C           -2.505446303954    -0.004367393219     0.561830459511    12.000000000000
         C           -0.314559303954    -1.192314393219     0.232768459511    12.000000000000
         C           -0.426427103954     1.046869006781     0.251749959511    12.000000000000
         C           -3.265063303954    -0.004674393219    -0.765934540489    12.000000000000
         C            1.043193696046     1.225741606781    -0.019708540489    12.000000000000
         C            1.056562696046    -1.175964393219    -0.020607540489    12.000000000000
         C            1.745364696046     0.029858606781    -0.147350540489    12.000000000000
         H           -2.784278303954    -0.887964393219     1.146727459511     1.007825032230
         H           -2.799782303954     0.868933606781     1.155706459511     1.007825032230
         H           -0.822730303954    -2.148472393219     0.329313459511     1.007825032230
         H           -0.870453303954     2.160725606781     0.333583459511     1.007825032230
         H           -3.014592303954     0.882335606781    -1.354380540489     1.007825032230
         H           -4.348900303954    -0.014352393219    -0.606929540489     1.007825032230
         H           -2.999142303954    -0.883052393219    -1.360281540489     1.007825032230
         H            2.815943696046     0.061840606781    -0.337857540489     1.007825032230
         H            1.167571696046     3.137381606781    -0.031577540489     1.007825032230
         H            2.630036696046    -2.239309393219    -0.299225540489     1.007825032230

  Basis Set: AUG-CC-PVTZ
    Blend: AUG-CC-PVTZ
  Basis Set: (AUG-CC-PVTZ AUX)
    Blend: AUG-CC-PVTZ-JKFIT
	 Reference Energy          =    -458.5954346102036538 [Eh]
	 Singles Energy            =      -0.0000000000000000 [Eh]
	 Same-Spin Energy          =      -0.4823017836123823 [Eh]
	 Opposite-Spin Energy      =      -1.5079000857900842 [Eh]
	 Correlation Energy        =      -1.9902018694024664 [Eh]
	 Total Energy              =    -460.5856364796061371 [Eh]

	 ================> DF-SCS-MP2 Energies <==================
	-----------------------------------------------------------
	 SCS Same-Spin Scale       =       0.3333333333333333 [-]
	 SCS Opposite-Spin Scale   =       1.2000000000000000 [-]
	 SCS Same-Spin Energy      =      -0.1607672612041274 [Eh]
	 SCS Opposite-Spin Energy  =      -1.8094801029481009 [Eh]
	 SCS Correlation Energy    =      -1.9702473641522285 [Eh]
	 SCS Total Energy          =    -460.5656819743558685 [Eh]
	-----------------------------------------------------------

  Dipole Moment: [D]
     X:    -0.3208      Y:     1.4625      Z:    -0.0186     Total:     1.4974

*** Psi4 exiting successfully. Buy a developer a beer!
