                               Psi4 1.3.2 release

  ==> Input File <==

--------------------------------------------------------------------------
#psi4
#
memory 32 gb

molecule  {
0 1
  O        1.7627890     2.3683800    -0.1458810
  O        1.6754140    -2.4069960    -0.1279020
  C       -1.0176272    -0.0748161     0.4053319
  C       -2.5139530    -0.0194410     0.5634370
  C       -0.3230660    -1.2073880     0.2343750
  C       -0.3370590     1.2052280     0.2348720
  C       -3.2735700    -0.0197480    -0.7643280
  C        1.0346870     1.2106680    -0.0181020
  C        1.0480560    -1.1910380    -0.0190010
  C        1.7368580     0.0147850    -0.1457440
  H       -2.7372963    -0.9174742     1.1501649
  H       -2.8082890     0.8538600     1.1573130
  H       -0.8312370    -2.1635460     0.3309200
  H       -0.8789600     2.1456520     0.3351900
  H       -3.0230990     0.8672620    -1.3527740
  H       -4.3574070    -0.0294260    -0.6053230
  H       -3.0076490    -0.8981260    -1.3586750
  H        2.8074370     0.0467670    -0.3362510
  H        1.1590650     3.1223080    -0.0299710
  H        2.6215300    -2.2543830    -0.2976190
units angstrom
no_reorient  #important for SAPT in psi4, default
symmetry c1  #important for SAPT in psi4, default
}

set PROPERTIES_ORIGIN ["COM"]
properties('MP2/aug-cc-pvtz', properties = ['dipole'])
--------------------------------------------------------------------------

    Molecular point group: c1
  Charge       = 0
  Multiplicity = 1
  Basis Set: AUG-CC-PVTZ
    Blend: AUG-CC-PVTZ
  Basis Set: (AUG-CC-PVTZ AUX)
    Blend: AUG-CC-PVTZ-JKFIT

    Orbital Energies [Eh]
    ---------------------

    Doubly Occupied:

       1A    -20.595283     2A    -20.593750     3A    -11.311502
       4A    -11.308287     5A    -11.250244     6A    -11.232187
       7A    -11.224231     8A    -11.224120     9A    -11.220656
      10A    -11.213611    11A     -1.405184    12A     -1.402114
      13A     -1.150794    14A     -1.064152    15A     -1.004751
      16A     -0.983622    17A     -0.878866    18A     -0.839050
      19A     -0.808929    20A     -0.732367    21A     -0.688571
      22A     -0.676724    23A     -0.666496    24A     -0.608122
      25A     -0.603274    26A     -0.596315    27A     -0.588301
      28A     -0.576593    29A     -0.553545    30A     -0.549953
      31A     -0.525734    32A     -0.520603    33A     -0.495000
      34A     -0.470404    35A     -0.453670    36A     -0.329373
      37A     -0.309135

  @DF-RHF Final Energy:  -458.65294864323380

   => Energetics <=

    Nuclear Repulsion Energy =            507.4501988023573631
    One-Electron Energy =               -1630.8952646270934110
    Two-Electron Energy =                 664.7921171815022490
    Total Energy =                       -458.6529486432337990
  Basis Set: (AUG-CC-PVTZ AUX)
    Blend: AUG-CC-PVTZ-RI
    Molecular point group: c1

    Geometry (in Angstrom), charge = 0, multiplicity = 1:

       Center              X                  Y                   Z               Mass
    ------------   -----------------  -----------------  -----------------  -----------------
         O            1.762041144922     2.374317064575    -0.149473792689    15.994914619570
         O            1.674666144922    -2.401058935425    -0.131494792689    15.994914619570
         C           -1.018375055078    -0.068879035425     0.401739107311    12.000000000000
         C           -2.514700855078    -0.013503935425     0.559844207311    12.000000000000
         C           -0.323813855078    -1.201450935425     0.230782207311    12.000000000000
         C           -0.337806855078     1.211165064575     0.231279207311    12.000000000000
         C           -3.274317855078    -0.013810935425    -0.767920792689    12.000000000000
         C            1.033939144922     1.216605064575    -0.021694792689    12.000000000000
         C            1.047308144922    -1.185100935425    -0.022593792689    12.000000000000
         C            1.736110144922     0.020722064575    -0.149336792689    12.000000000000
         H           -2.738044155078    -0.911537135425     1.146572107311     1.007825032230
         H           -2.809036855078     0.859797064575     1.153720207311     1.007825032230
         H           -0.831984855078    -2.157608935425     0.327327207311     1.007825032230
         H           -0.879707855078     2.151589064575     0.331597207311     1.007825032230
         H           -3.023846855078     0.873199064575    -1.356366792689     1.007825032230
         H           -4.358154855078    -0.023488935425    -0.608915792689     1.007825032230
         H           -3.008396855078    -0.892188935425    -1.362267792689     1.007825032230
         H            2.806689144922     0.052704064575    -0.339843792689     1.007825032230
         H            1.158317144922     3.128245064575    -0.033563792689     1.007825032230
         H            2.620782144922    -2.248445935425    -0.301211792689     1.007825032230

  Basis Set: AUG-CC-PVTZ
    Blend: AUG-CC-PVTZ
  Basis Set: (AUG-CC-PVTZ AUX)
    Blend: AUG-CC-PVTZ-JKFIT
	 Reference Energy          =    -458.6529486432337990 [Eh]
	 Singles Energy            =      -0.0000000000000000 [Eh]
	 Same-Spin Energy          =      -0.4816290765864578 [Eh]
	 Opposite-Spin Energy      =      -1.5055948953872207 [Eh]
	 Correlation Energy        =      -1.9872239719736786 [Eh]
	 Total Energy              =    -460.6401726152074616 [Eh]

	 ================> DF-SCS-MP2 Energies <==================
	-----------------------------------------------------------
	 SCS Same-Spin Scale       =       0.3333333333333333 [-]
	 SCS Opposite-Spin Scale   =       1.2000000000000000 [-]
	 SCS Same-Spin Energy      =      -0.1605430255288193 [Eh]
	 SCS Opposite-Spin Energy  =      -1.8067138744646647 [Eh]
	 SCS Correlation Energy    =      -1.9672568999934841 [Eh]
	 SCS Total Energy          =    -460.6202055432272573 [Eh]
	-----------------------------------------------------------

  Dipole Moment: [D]
     X:    -0.4849      Y:     1.1417      Z:    -0.0288     Total:     1.2407

*** Psi4 exiting successfully. Buy a developer a beer!
