                               Psi4 1.3.2 release

  ==> Input File <==

--------------------------------------------------------------------------
#psi4
#
memory 32 gb

molecule  {
0 1
  O        1.7528178     2.3747868    -0.1440886
  O        1.6754140    -2.4069960    -0.1279020
  C       -1.0215720    -0.0077180     0.3641480
  C       -2.5139530    -0.0194410     0.5634370
  C       -0.3230660    -1.2073880     0.2343750
  C       -0.3370590     1.2052280     0.2348720
  C       -3.2735700    -0.0197480    -0.7643280
  C        1.0346870     1.2106680    -0.0181020
  C        1.0480560    -1.1910380    -0.0190010
  C        1.7265557     0.0086026    -0.1439165
  H       -2.7927850    -0.9030380     1.1483340
  H       -2.8082890     0.8538600     1.1573130
  H       -0.8312370    -2.1635460     0.3309200
  H       -0.8789600     2.1456520     0.3351900
  H       -3.0230990     0.8672620    -1.3527740
  H       -4.3574070    -0.0294260    -0.6053230
  H       -3.0076490    -0.8981260    -1.3586750
  H        2.8074370     0.0467670    -0.3362510
  H        1.1590650     3.1223080    -0.0299710
  H        2.6215300    -2.2543830    -0.2976190
units angstrom
no_reorient  #important for SAPT in psi4, default
symmetry c1  #important for SAPT in psi4, default
}

set PROPERTIES_ORIGIN ["COM"]
properties('MP2/aug-cc-pvtz', properties = ['dipole'])
--------------------------------------------------------------------------

    Molecular point group: c1
  Charge       = 0
  Multiplicity = 1
  Basis Set: AUG-CC-PVTZ
    Blend: AUG-CC-PVTZ
  Basis Set: (AUG-CC-PVTZ AUX)
    Blend: AUG-CC-PVTZ-JKFIT

    Orbital Energies [Eh]
    ---------------------

    Doubly Occupied:

       1A    -20.594881     2A    -20.593223     3A    -11.310862
       4A    -11.307550     5A    -11.250907     6A    -11.231927
       7A    -11.224423     8A    -11.222564     9A    -11.219598
      10A    -11.215958    11A     -1.407280    12A     -1.402138
      13A     -1.151391    14A     -1.064751    15A     -1.001983
      16A     -0.988132    17A     -0.876141    18A     -0.839026
      19A     -0.808462    20A     -0.740516    21A     -0.688469
      22A     -0.677010    23A     -0.665547    24A     -0.611812
      25A     -0.602606    26A     -0.595232    27A     -0.586860
      28A     -0.576784    29A     -0.553323    30A     -0.547727
      31A     -0.523812    32A     -0.521359    33A     -0.487626
      34A     -0.481982    35A     -0.454586    36A     -0.326892
      37A     -0.311294

  @DF-RHF Final Energy:  -458.66068515830733

   => Energetics <=

    Nuclear Repulsion Energy =            507.7431125052130483
    One-Electron Energy =               -1631.4783233376963381
    Two-Electron Energy =                 665.0745256741759022
    Total Energy =                       -458.6606851583073876
  Basis Set: (AUG-CC-PVTZ AUX)
    Blend: AUG-CC-PVTZ-RI
    Molecular point group: c1

    Geometry (in Angstrom), charge = 0, multiplicity = 1:

       Center              X                  Y                   Z               Mass
    ------------   -----------------  -----------------  -----------------  -----------------
         O            1.754868394750     2.374581867196    -0.144455065914    15.994914619570
         O            1.677464594750    -2.407200932804    -0.128268465914    15.994914619570
         C           -1.019521405250    -0.007922932804     0.363781534086    12.000000000000
         C           -2.511902405250    -0.019645932804     0.563070534086    12.000000000000
         C           -0.321015405250    -1.207592932804     0.234008534086    12.000000000000
         C           -0.335008405250     1.205023067196     0.234505534086    12.000000000000
         C           -3.271519405250    -0.019952932804    -0.764694465914    12.000000000000
         C            1.036737594750     1.210463067196    -0.018468465914    12.000000000000
         C            1.050106594750    -1.191242932804    -0.019367465914    12.000000000000
         C            1.728606294750     0.008397667196    -0.144282965914    12.000000000000
         H           -2.790734405250    -0.903242932804     1.147967534086     1.007825032230
         H           -2.806238405250     0.853655067196     1.156946534086     1.007825032230
         H           -0.829186405250    -2.163750932804     0.330553534086     1.007825032230
         H           -0.876909405250     2.145447067196     0.334823534086     1.007825032230
         H           -3.021048405250     0.867057067196    -1.353140465914     1.007825032230
         H           -4.355356405250    -0.029630932804    -0.605689465914     1.007825032230
         H           -3.005598405250    -0.898330932804    -1.359041465914     1.007825032230
         H            2.809487594750     0.046562067196    -0.336617465914     1.007825032230
         H            1.161115594750     3.122103067196    -0.030337465914     1.007825032230
         H            2.623580594750    -2.254587932804    -0.297985465914     1.007825032230

  Basis Set: AUG-CC-PVTZ
    Blend: AUG-CC-PVTZ
  Basis Set: (AUG-CC-PVTZ AUX)
    Blend: AUG-CC-PVTZ-JKFIT
	 Reference Energy          =    -458.6606851583073308 [Eh]
	 Singles Energy            =      -0.0000000000000000 [Eh]
	 Same-Spin Energy          =      -0.4816036094312691 [Eh]
	 Opposite-Spin Energy      =      -1.5047909944229434 [Eh]
	 Correlation Energy        =      -1.9863946038542126 [Eh]
	 Total Energy              =    -460.6470797621615247 [Eh]

	 ================> DF-SCS-MP2 Energies <==================
	-----------------------------------------------------------
	 SCS Same-Spin Scale       =       0.3333333333333333 [-]
	 SCS Opposite-Spin Scale   =       1.2000000000000000 [-]
	 SCS Same-Spin Energy      =      -0.1605345364770897 [Eh]
	 SCS Opposite-Spin Energy  =      -1.8057491933075320 [Eh]
	 SCS Correlation Energy    =      -1.9662837297846218 [Eh]
	 SCS Total Energy          =    -460.6269688880919375 [Eh]
	-----------------------------------------------------------

  Dipole Moment: [D]
     X:    -0.4902      Y:     1.2241      Z:     0.0086     Total:     1.3187

*** Psi4 exiting successfully. Buy a developer a beer!
