                               Psi4 1.3.2 release

  ==> Input File <==

--------------------------------------------------------------------------
#psi4
#
memory 32 gb

molecule  {
0 1
  O        1.7627890     2.3683800    -0.1458810
  O        1.6754140    -2.4069960    -0.1279020
  C       -1.0215720    -0.0077180     0.3641480
  C       -2.5128472    -0.0719559     0.5616987
  C       -0.3651069    -1.2314088     0.2392716
  C       -0.3370590     1.2052280     0.2348720
  C       -3.2735700    -0.0197480    -0.7643280
  C        1.0346870     1.2106680    -0.0181020
  C        1.0480560    -1.1910380    -0.0190010
  C        1.7368580     0.0147850    -0.1457440
  H       -2.7927850    -0.9030380     1.1483340
  H       -2.8082890     0.8538600     1.1573130
  H       -0.8312370    -2.1635460     0.3309200
  H       -0.8789600     2.1456520     0.3351900
  H       -3.0230990     0.8672620    -1.3527740
  H       -4.3574070    -0.0294260    -0.6053230
  H       -3.0076490    -0.8981260    -1.3586750
  H        2.8074370     0.0467670    -0.3362510
  H        1.1590650     3.1223080    -0.0299710
  H        2.6215300    -2.2543830    -0.2976190
units angstrom
no_reorient  #important for SAPT in psi4, default
symmetry c1  #important for SAPT in psi4, default
}

set PROPERTIES_ORIGIN ["COM"]
properties('MP2/aug-cc-pvtz', properties = ['dipole'])
--------------------------------------------------------------------------

    Molecular point group: c1
  Charge       = 0
  Multiplicity = 1
  Basis Set: AUG-CC-PVTZ
    Blend: AUG-CC-PVTZ
  Basis Set: (AUG-CC-PVTZ AUX)
    Blend: AUG-CC-PVTZ-JKFIT

    Orbital Energies [Eh]
    ---------------------

    Doubly Occupied:

       1A    -20.596863     2A    -20.594488     3A    -11.314172
       4A    -11.312350     5A    -11.251280     6A    -11.230854
       7A    -11.224429     8A    -11.222688     9A    -11.219006
      10A    -11.216445    11A     -1.406334    12A     -1.402632
      13A     -1.147502    14A     -1.063753    15A     -0.997629
      16A     -0.987876    17A     -0.875427    18A     -0.839288
      19A     -0.806089    20A     -0.742008    21A     -0.690021
      22A     -0.676716    23A     -0.663055    24A     -0.615425
      25A     -0.601837    26A     -0.592766    27A     -0.590252
      28A     -0.576591    29A     -0.553221    30A     -0.548773
      31A     -0.529492    32A     -0.523145    33A     -0.489615
      34A     -0.472621    35A     -0.451326    36A     -0.327565
      37A     -0.307995

  @DF-RHF Final Energy:  -458.65352644026683

   => Energetics <=

    Nuclear Repulsion Energy =            506.8553677425710475
    One-Electron Energy =               -1629.6947359317478004
    Two-Electron Energy =                 664.1858417489097519
    Total Energy =                       -458.6535264402668872
  Basis Set: (AUG-CC-PVTZ AUX)
    Blend: AUG-CC-PVTZ-RI
    Molecular point group: c1

    Geometry (in Angstrom), charge = 0, multiplicity = 1:

       Center              X                  Y                   Z               Mass
    ------------   -----------------  -----------------  -----------------  -----------------
         O            1.766346859195     2.375031944050    -0.146155484588    15.994914619570
         O            1.678971859195    -2.400344055950    -0.128176484588    15.994914619570
         C           -1.018014140805    -0.001066055950     0.363873515412    12.000000000000
         C           -2.509289340805    -0.065303955950     0.561424215412    12.000000000000
         C           -0.361549040805    -1.224756855950     0.238997115412    12.000000000000
         C           -0.333501140805     1.211879944050     0.234597515412    12.000000000000
         C           -3.270012140805    -0.013096055950    -0.764602484588    12.000000000000
         C            1.038244859195     1.217319944050    -0.018376484588    12.000000000000
         C            1.051613859195    -1.184386055950    -0.019275484588    12.000000000000
         C            1.740415859195     0.021436944050    -0.146018484588    12.000000000000
         H           -2.789227140805    -0.896386055950     1.148059515412     1.007825032230
         H           -2.804731140805     0.860511944050     1.157038515412     1.007825032230
         H           -0.827679140805    -2.156894055950     0.330645515412     1.007825032230
         H           -0.875402140805     2.152303944050     0.334915515412     1.007825032230
         H           -3.019541140805     0.873913944050    -1.353048484588     1.007825032230
         H           -4.353849140805    -0.022774055950    -0.605597484588     1.007825032230
         H           -3.004091140805    -0.891474055950    -1.358949484588     1.007825032230
         H            2.810994859195     0.053418944050    -0.336525484588     1.007825032230
         H            1.162622859195     3.128959944050    -0.030245484588     1.007825032230
         H            2.625087859195    -2.247731055950    -0.297893484588     1.007825032230

  Basis Set: AUG-CC-PVTZ
    Blend: AUG-CC-PVTZ
  Basis Set: (AUG-CC-PVTZ AUX)
    Blend: AUG-CC-PVTZ-JKFIT
	 Reference Energy          =    -458.6535264402668304 [Eh]
	 Singles Energy            =      -0.0000000000000000 [Eh]
	 Same-Spin Energy          =      -0.4816117389262197 [Eh]
	 Opposite-Spin Energy      =      -1.5055385983768335 [Eh]
	 Correlation Energy        =      -1.9871503373030532 [Eh]
	 Total Energy              =    -460.6406767775698654 [Eh]

	 ================> DF-SCS-MP2 Energies <==================
	-----------------------------------------------------------
	 SCS Same-Spin Scale       =       0.3333333333333333 [-]
	 SCS Opposite-Spin Scale   =       1.2000000000000000 [-]
	 SCS Same-Spin Energy      =      -0.1605372463087399 [Eh]
	 SCS Opposite-Spin Energy  =      -1.8066463180522001 [Eh]
	 SCS Correlation Energy    =      -1.9671835643609401 [Eh]
	 SCS Total Energy          =    -460.6207100046277674 [Eh]
	-----------------------------------------------------------

  Dipole Moment: [D]
     X:    -0.4257      Y:     1.1540      Z:    -0.0020     Total:     1.2301

*** Psi4 exiting successfully. Buy a developer a beer!
