                               Psi4 1.3.2 release

  ==> Input File <==

--------------------------------------------------------------------------
#psi4
#
memory 32 gb

molecule  {
0 1
  O        1.7627890     2.3683800    -0.1458810
  O        1.6754140    -2.4069960    -0.1279020
  C       -1.0215720    -0.0077180     0.3641480
  C       -2.5116128    -0.0981880     0.5607392
  C       -0.3864305    -1.2428619     0.2417774
  C       -0.3370590     1.2052280     0.2348720
  C       -3.2735700    -0.0197480    -0.7643280
  C        1.0346870     1.2106680    -0.0181020
  C        1.0480560    -1.1910380    -0.0190010
  C        1.7368580     0.0147850    -0.1457440
  H       -2.7927850    -0.9030380     1.1483340
  H       -2.8082890     0.8538600     1.1573130
  H       -0.8312370    -2.1635460     0.3309200
  H       -0.8789600     2.1456520     0.3351900
  H       -3.0230990     0.8672620    -1.3527740
  H       -4.3574070    -0.0294260    -0.6053230
  H       -3.0076490    -0.8981260    -1.3586750
  H        2.8074370     0.0467670    -0.3362510
  H        1.1590650     3.1223080    -0.0299710
  H        2.6215300    -2.2543830    -0.2976190
units angstrom
no_reorient  #important for SAPT in psi4, default
symmetry c1  #important for SAPT in psi4, default
}

set PROPERTIES_ORIGIN ["COM"]
properties('MP2/aug-cc-pvtz', properties = ['dipole'])
--------------------------------------------------------------------------

    Molecular point group: c1
  Charge       = 0
  Multiplicity = 1
  Basis Set: AUG-CC-PVTZ
    Blend: AUG-CC-PVTZ
  Basis Set: (AUG-CC-PVTZ AUX)
    Blend: AUG-CC-PVTZ-JKFIT

    Orbital Energies [Eh]
    ---------------------

    Doubly Occupied:

       1A    -20.597513     2A    -20.595102     3A    -11.316715
       4A    -11.313355     5A    -11.251525     6A    -11.230616
       7A    -11.224692     8A    -11.222763     9A    -11.218851
      10A    -11.216871    11A     -1.406870    12A     -1.403029
      13A     -1.146342    14A     -1.063922    15A     -0.995964
      16A     -0.987821    17A     -0.875028    18A     -0.840760
      19A     -0.805512    20A     -0.743424    21A     -0.691916
      22A     -0.678314    23A     -0.660767    24A     -0.617345
      25A     -0.601729    26A     -0.594485    27A     -0.588901
      28A     -0.576683    29A     -0.553884    30A     -0.548827
      31A     -0.532229    32A     -0.524411    33A     -0.490060
      34A     -0.466124    35A     -0.449246    36A     -0.328448
      37A     -0.306485

  @DF-RHF Final Energy:  -458.64525326222514

   => Energetics <=

    Nuclear Repulsion Energy =            506.5479707003279373
    One-Electron Energy =               -1629.0533886475870986
    Two-Electron Energy =                 663.8601646850338511
    Total Energy =                       -458.6452532622251965
  Basis Set: (AUG-CC-PVTZ AUX)
    Blend: AUG-CC-PVTZ-RI
    Molecular point group: c1

    Geometry (in Angstrom), charge = 0, multiplicity = 1:

       Center              X                  Y                   Z               Mass
    ------------   -----------------  -----------------  -----------------  -----------------
         O            1.768092884785     2.378307302130    -0.146289879157    15.994914619570
         O            1.680717884785    -2.397068697870    -0.128310879157    15.994914619570
         C           -1.016268115215     0.002209302130     0.363739120843    12.000000000000
         C           -2.506308915215    -0.088260697870     0.560330320843    12.000000000000
         C           -0.381126615215    -1.232934597870     0.241368520843    12.000000000000
         C           -0.331755115215     1.215155302130     0.234463120843    12.000000000000
         C           -3.268266115215    -0.009820697870    -0.764736879157    12.000000000000
         C            1.039990884785     1.220595302130    -0.018510879157    12.000000000000
         C            1.053359884785    -1.181110697870    -0.019409879157    12.000000000000
         C            1.742161884785     0.024712302130    -0.146152879157    12.000000000000
         H           -2.787481115215    -0.893110697870     1.147925120843     1.007825032230
         H           -2.802985115215     0.863787302130     1.156904120843     1.007825032230
         H           -0.825933115215    -2.153618697870     0.330511120843     1.007825032230
         H           -0.873656115215     2.155579302130     0.334781120843     1.007825032230
         H           -3.017795115215     0.877189302130    -1.353182879157     1.007825032230
         H           -4.352103115215    -0.019498697870    -0.605731879157     1.007825032230
         H           -3.002345115215    -0.888198697870    -1.359083879157     1.007825032230
         H            2.812740884785     0.056694302130    -0.336659879157     1.007825032230
         H            1.164368884785     3.132235302130    -0.030379879157     1.007825032230
         H            2.626833884785    -2.244455697870    -0.298027879157     1.007825032230

  Basis Set: AUG-CC-PVTZ
    Blend: AUG-CC-PVTZ
  Basis Set: (AUG-CC-PVTZ AUX)
    Blend: AUG-CC-PVTZ-JKFIT
	 Reference Energy          =    -458.6452532622251397 [Eh]
	 Singles Energy            =      -0.0000000000000000 [Eh]
	 Same-Spin Energy          =      -0.4816318269042550 [Eh]
	 Opposite-Spin Energy      =      -1.5059734527685646 [Eh]
	 Correlation Energy        =      -1.9876052796728196 [Eh]
	 Total Energy              =    -460.6328585418979742 [Eh]

	 ================> DF-SCS-MP2 Energies <==================
	-----------------------------------------------------------
	 SCS Same-Spin Scale       =       0.3333333333333333 [-]
	 SCS Opposite-Spin Scale   =       1.2000000000000000 [-]
	 SCS Same-Spin Energy      =      -0.1605439423014183 [Eh]
	 SCS Opposite-Spin Energy  =      -1.8071681433222775 [Eh]
	 SCS Correlation Energy    =      -1.9677120856236958 [Eh]
	 SCS Total Energy          =    -460.6129653478488422 [Eh]
	-----------------------------------------------------------

  Dipole Moment: [D]
     X:    -0.3861      Y:     1.1234      Z:    -0.0119     Total:     1.1880

*** Psi4 exiting successfully. Buy a developer a beer!
