                               Psi4 1.3.2 release

  ==> Input File <==

--------------------------------------------------------------------------
#psi4
#
memory 32 gb

molecule  {
0 1
  O        1.7627890     2.3683800    -0.1458810
  O        1.6754140    -2.4069960    -0.1279020
  C       -1.0215720    -0.0077180     0.3641480
  C       -2.5139530    -0.0194410     0.5634370
  C       -0.3230660    -1.2073880     0.2343750
  C       -0.3370590     1.2052280     0.2348720
  C       -3.2735700    -0.0197480    -0.7643280
  C        1.0346870     1.2106680    -0.0181020
  C        1.0481501    -1.2032063    -0.0189846
  C        1.7368580     0.0147850    -0.1457440
  H       -2.7927850    -0.9030380     1.1483340
  H       -2.8082890     0.8538600     1.1573130
  H       -0.8230103    -2.1680234     0.3294125
  H       -0.8789600     2.1456520     0.3351900
  H       -3.0230990     0.8672620    -1.3527740
  H       -4.3574070    -0.0294260    -0.6053230
  H       -3.0076490    -0.8981260    -1.3586750
  H        2.8074370     0.0467670    -0.3362510
  H        1.1590650     3.1223080    -0.0299710
  H        2.6215300    -2.2543830    -0.2976190
units angstrom
no_reorient  #important for SAPT in psi4, default
symmetry c1  #important for SAPT in psi4, default
}

set PROPERTIES_ORIGIN ["COM"]
properties('MP2/aug-cc-pvtz', properties = ['dipole'])
--------------------------------------------------------------------------

    Molecular point group: c1
  Charge       = 0
  Multiplicity = 1
  Basis Set: AUG-CC-PVTZ
    Blend: AUG-CC-PVTZ
  Basis Set: (AUG-CC-PVTZ AUX)
    Blend: AUG-CC-PVTZ-JKFIT

    Orbital Energies [Eh]
    ---------------------

    Doubly Occupied:

       1A    -20.595306     2A    -20.595249     3A    -11.309982
       4A    -11.309679     5A    -11.251441     6A    -11.231952
       7A    -11.224042     8A    -11.222285     9A    -11.219546
      10A    -11.215464    11A     -1.408523    12A     -1.403884
      13A     -1.149214    14A     -1.062789    15A     -1.001408
      16A     -0.986836    17A     -0.876645    18A     -0.835759
      19A     -0.809490    20A     -0.740788    21A     -0.687102
      22A     -0.675710    23A     -0.667883    24A     -0.611961
      25A     -0.602768    26A     -0.595435    27A     -0.588371
      28A     -0.578234    29A     -0.551965    30A     -0.548701
      31A     -0.523583    32A     -0.519652    33A     -0.487726
      34A     -0.482240    35A     -0.453239    36A     -0.324390
      37A     -0.310860

  @DF-RHF Final Energy:  -458.66012756995826

   => Energetics <=

    Nuclear Repulsion Energy =            507.4306608052708043
    One-Electron Energy =               -1630.8613775679264108
    Two-Electron Energy =                 664.7705891926974573
    Total Energy =                       -458.6601275699582629
  Basis Set: (AUG-CC-PVTZ AUX)
    Blend: AUG-CC-PVTZ-RI
    Molecular point group: c1

    Geometry (in Angstrom), charge = 0, multiplicity = 1:

       Center              X                  Y                   Z               Mass
    ------------   -----------------  -----------------  -----------------  -----------------
         O            1.762720811264     2.369470221408    -0.145871406644    15.994914619570
         O            1.675345811264    -2.405905778592    -0.127892406644    15.994914619570
         C           -1.021640188736    -0.006627778592     0.364157593356    12.000000000000
         C           -2.514021188736    -0.018350778592     0.563446593356    12.000000000000
         C           -0.323134188736    -1.206297778592     0.234384593356    12.000000000000
         C           -0.337127188736     1.206318221408     0.234881593356    12.000000000000
         C           -3.273638188736    -0.018657778592    -0.764318406644    12.000000000000
         C            1.034618811264     1.211758221408    -0.018092406644    12.000000000000
         C            1.048081911264    -1.202116078592    -0.018975006644    12.000000000000
         C            1.736789811264     0.015875221408    -0.145734406644    12.000000000000
         H           -2.792853188736    -0.901947778592     1.148343593356     1.007825032230
         H           -2.808357188736     0.854950221408     1.157322593356     1.007825032230
         H           -0.823078488736    -2.166933178592     0.329422093356     1.007825032230
         H           -0.879028188736     2.146742221408     0.335199593356     1.007825032230
         H           -3.023167188736     0.868352221408    -1.352764406644     1.007825032230
         H           -4.357475188736    -0.028335778592    -0.605313406644     1.007825032230
         H           -3.007717188736    -0.897035778592    -1.358665406644     1.007825032230
         H            2.807368811264     0.047857221408    -0.336241406644     1.007825032230
         H            1.158996811264     3.123398221408    -0.029961406644     1.007825032230
         H            2.621461811264    -2.253292778592    -0.297609406644     1.007825032230

  Basis Set: AUG-CC-PVTZ
    Blend: AUG-CC-PVTZ
  Basis Set: (AUG-CC-PVTZ AUX)
    Blend: AUG-CC-PVTZ-JKFIT
	 Reference Energy          =    -458.6601275699582629 [Eh]
	 Singles Energy            =      -0.0000000000000000 [Eh]
	 Same-Spin Energy          =      -0.4817118758982608 [Eh]
	 Opposite-Spin Energy      =      -1.5050753265251176 [Eh]
	 Correlation Energy        =      -1.9867872024233784 [Eh]
	 Total Energy              =    -460.6469147723816491 [Eh]

	 ================> DF-SCS-MP2 Energies <==================
	-----------------------------------------------------------
	 SCS Same-Spin Scale       =       0.3333333333333333 [-]
	 SCS Opposite-Spin Scale   =       1.2000000000000000 [-]
	 SCS Same-Spin Energy      =      -0.1605706252994203 [Eh]
	 SCS Opposite-Spin Energy  =      -1.8060903918301410 [Eh]
	 SCS Correlation Energy    =      -1.9666610171295613 [Eh]
	 SCS Total Energy          =    -460.6267885870878445 [Eh]
	-----------------------------------------------------------

  Dipole Moment: [D]
     X:    -0.4617      Y:     1.1516      Z:     0.0043     Total:     1.2407

*** Psi4 exiting successfully. Buy a developer a beer!
