                               Psi4 1.3.2 release

  ==> Input File <==

--------------------------------------------------------------------------
#psi4
#
memory 32 gb

molecule  {
0 1
  O        1.7627890     2.3683800    -0.1458810
  O        1.6754140    -2.4069960    -0.1279020
  C       -1.0215720    -0.0077180     0.3641480
  C       -2.5139530    -0.0194410     0.5634370
  C       -0.3230660    -1.2073880     0.2343750
  C       -0.3370590     1.2052280     0.2348720
  C       -3.2735700    -0.0197480    -0.7643280
  C        1.0346870     1.2106680    -0.0181020
  C        1.0480560    -1.1910380    -0.0190010
  C        1.7368580     0.0147850    -0.1457440
  H       -2.7927850    -0.9030380     1.1483340
  H       -2.8082890     0.8538600     1.1573130
  H       -0.7844916    -2.0755915     0.3220391
  H       -0.8789600     2.1456520     0.3351900
  H       -3.0230990     0.8672620    -1.3527740
  H       -4.3574070    -0.0294260    -0.6053230
  H       -3.0076490    -0.8981260    -1.3586750
  H        2.8074370     0.0467670    -0.3362510
  H        1.1590650     3.1223080    -0.0299710
  H        2.6215300    -2.2543830    -0.2976190
units angstrom
no_reorient  #important for SAPT in psi4, default
symmetry c1  #important for SAPT in psi4, default
}

set PROPERTIES_ORIGIN ["COM"]
properties('MP2/aug-cc-pvtz', properties = ['dipole'])
--------------------------------------------------------------------------

    Molecular point group: c1
  Charge       = 0
  Multiplicity = 1
  Basis Set: AUG-CC-PVTZ
    Blend: AUG-CC-PVTZ
  Basis Set: (AUG-CC-PVTZ AUX)
    Blend: AUG-CC-PVTZ-JKFIT

    Orbital Energies [Eh]
    ---------------------

    Doubly Occupied:

       1A    -20.595478     2A    -20.593337     3A    -11.310241
       4A    -11.307942     5A    -11.250619     6A    -11.232188
       7A    -11.223311     8A    -11.222076     9A    -11.219875
      10A    -11.204095    11A     -1.405204    12A     -1.401860
      13A     -1.150692    14A     -1.063898    15A     -1.005028
      16A     -0.988224    17A     -0.876843    18A     -0.840752
      19A     -0.808243    20A     -0.740464    21A     -0.695143
      22A     -0.678056    23A     -0.668346    24A     -0.611840
      25A     -0.602189    26A     -0.595444    27A     -0.593378
      28A     -0.576358    29A     -0.552656    30A     -0.549807
      31A     -0.527337    32A     -0.522833    33A     -0.487793
      34A     -0.483110    35A     -0.453573    36A     -0.325471
      37A     -0.311010

  @DF-RHF Final Energy:  -458.65438589373269

   => Energetics <=

    Nuclear Repulsion Energy =            508.0674074856073048
    One-Electron Energy =               -1632.0941589157650924
    Two-Electron Energy =                 665.3723655364250362
    Total Energy =                       -458.6543858937326377
  Basis Set: (AUG-CC-PVTZ AUX)
    Blend: AUG-CC-PVTZ-RI
    Molecular point group: c1

    Geometry (in Angstrom), charge = 0, multiplicity = 1:

       Center              X                  Y                   Z               Mass
    ------------   -----------------  -----------------  -----------------  -----------------
         O            1.762447823401     2.367737925404    -0.145816159283    15.994914619570
         O            1.675072823401    -2.407638074596    -0.127837159283    15.994914619570
         C           -1.021913176599    -0.008360074596     0.364212840717    12.000000000000
         C           -2.514294176599    -0.020083074596     0.563501840717    12.000000000000
         C           -0.323407176599    -1.208030074596     0.234439840717    12.000000000000
         C           -0.337400176599     1.204585925404     0.234936840717    12.000000000000
         C           -3.273911176599    -0.020390074596    -0.764263159283    12.000000000000
         C            1.034345823401     1.210025925404    -0.018037159283    12.000000000000
         C            1.047714823401    -1.191680074596    -0.018936159283    12.000000000000
         C            1.736516823401     0.014142925404    -0.145679159283    12.000000000000
         H           -2.793126176599    -0.903680074596     1.148398840717     1.007825032230
         H           -2.808630176599     0.853217925404     1.157377840717     1.007825032230
         H           -0.784832776599    -2.076233574596     0.322103940717     1.007825032230
         H           -0.879301176599     2.145009925404     0.335254840717     1.007825032230
         H           -3.023440176599     0.866619925404    -1.352709159283     1.007825032230
         H           -4.357748176599    -0.030068074596    -0.605258159283     1.007825032230
         H           -3.007990176599    -0.898768074596    -1.358610159283     1.007825032230
         H            2.807095823401     0.046124925404    -0.336186159283     1.007825032230
         H            1.158723823401     3.121665925404    -0.029906159283     1.007825032230
         H            2.621188823401    -2.255025074596    -0.297554159283     1.007825032230

  Basis Set: AUG-CC-PVTZ
    Blend: AUG-CC-PVTZ
  Basis Set: (AUG-CC-PVTZ AUX)
    Blend: AUG-CC-PVTZ-JKFIT
	 Reference Energy          =    -458.6543858937326945 [Eh]
	 Singles Energy            =      -0.0000000000000000 [Eh]
	 Same-Spin Energy          =      -0.4815116335467193 [Eh]
	 Opposite-Spin Energy      =      -1.5046707273410451 [Eh]
	 Correlation Energy        =      -1.9861823608877645 [Eh]
	 Total Energy              =    -460.6405682546204616 [Eh]

	 ================> DF-SCS-MP2 Energies <==================
	-----------------------------------------------------------
	 SCS Same-Spin Scale       =       0.3333333333333333 [-]
	 SCS Opposite-Spin Scale   =       1.2000000000000000 [-]
	 SCS Same-Spin Energy      =      -0.1605038778489064 [Eh]
	 SCS Opposite-Spin Energy  =      -1.8056048728092540 [Eh]
	 SCS Correlation Energy    =      -1.9661087506581605 [Eh]
	 SCS Total Energy          =    -460.6204946443908739 [Eh]
	-----------------------------------------------------------

  Dipole Moment: [D]
     X:    -0.5074      Y:     1.2104      Z:     0.0111     Total:     1.3125

*** Psi4 exiting successfully. Buy a developer a beer!
