                               Psi4 1.4a3.dev225

  ==> Input File <==

--------------------------------------------------------------------------
#psi4
#
memory 32 gb

molecule  {
0 1
  O       -1.8116000     2.3801270     0.1363720
  O       -1.7799440    -2.3994320     0.1189850
  C        0.9489570    -0.0306590    -0.3689570
  C        2.4429910    -0.0568610    -0.5708560
  C        0.2354480    -1.2220220    -0.2373930
  C        0.2798030     1.1938580    -0.2383990
  C        3.1984060    -0.0265600     0.7613490
  C       -1.1118461     1.2142271     0.0115056
  C       -1.1396310    -1.1871160     0.0102260
  C       -1.8132500     0.0254130     0.1385790
  H        2.7180680    -0.9584190    -1.1301260
  H        2.7446220     0.7994920    -1.1857830
  H        0.7258350    -2.1872220    -0.3369480
  H        0.8309290     2.1284970    -0.3452230
  H        2.9508560     0.8787730     1.3230630
  H        4.2811760    -0.0477390     0.6027570
  H        2.9230980    -0.8883860     1.3756490
  H       -2.8837580     0.0741080     0.3259950
  H       -1.1979550     3.1274200     0.0245130
  H       -2.7238770    -2.2320380     0.2881370
units angstrom
no_reorient  #important for SAPT in psi4, default
symmetry c1  #important for SAPT in psi4, default
}

set PROPERTIES_ORIGIN ["COM"]
properties('MP2/aug-cc-pvtz', properties = ['dipole'])
--------------------------------------------------------------------------

    Molecular point group: c1
  Charge       = 0
  Multiplicity = 1
  Basis Set: AUG-CC-PVTZ
    Blend: AUG-CC-PVTZ
  Basis Set: (AUG-CC-PVTZ AUX)
    Blend: AUG-CC-PVTZ-JKFIT

    Orbital Energies [Eh]
    ---------------------

    Doubly Occupied:

       1A    -20.597296     2A    -20.593564     3A    -11.312328
       4A    -11.309520     5A    -11.251636     6A    -11.232130
       7A    -11.224280     8A    -11.223656     9A    -11.219459
      10A    -11.215948    11A     -1.408988    12A     -1.401366
      13A     -1.148317    14A     -1.064028    15A     -0.998542
      16A     -0.987635    17A     -0.875127    18A     -0.838350
      19A     -0.807203    20A     -0.739402    21A     -0.687733
      22A     -0.677346    23A     -0.665332    24A     -0.611579
      25A     -0.603103    26A     -0.595757    27A     -0.587544
      28A     -0.577204    29A     -0.553311    30A     -0.546863
      31A     -0.523814    32A     -0.521047    33A     -0.487881
      34A     -0.480883    35A     -0.452862    36A     -0.327192
      37A     -0.308626

  @DF-RHF Final Energy:  -458.65942104236581

   => Energetics <=

    Nuclear Repulsion Energy =            507.0103955304606416
    One-Electron Energy =               -1630.0259274091120005
    Two-Electron Energy =                 664.3561108362856658
    Total Energy =                       -458.6594210423658069
  Basis Set: (AUG-CC-PVTZ AUX)
    Blend: AUG-CC-PVTZ-RI
    Molecular point group: c1

    Geometry (in Angstrom), charge = 0, multiplicity = 1:

       Center              X                  Y                   Z               Mass
    ------------   -----------------  -----------------  -----------------  -----------------
         O           -1.735508747383     2.385091943770     0.142843633008    15.994914619570
         O           -1.703852747383    -2.394467056230     0.125456633008    15.994914619570
         C            1.025048252617    -0.025694056230    -0.362485366992    12.000000000000
         C            2.519082252617    -0.051896056230    -0.564384366992    12.000000000000
         C            0.311539252617    -1.217057056230    -0.230921366992    12.000000000000
         C            0.355894252617     1.198822943770    -0.231927366992    12.000000000000
         C            3.274497252617    -0.021595056230     0.767820633008    12.000000000000
         C           -1.035754847383     1.219192043770     0.017977233008    12.000000000000
         C           -1.063539747383    -1.182151056230     0.016697633008    12.000000000000
         C           -1.737158747383     0.030377943770     0.145050633008    12.000000000000
         H            2.794159252617    -0.953454056230    -1.123654366992     1.007825032230
         H            2.820713252617     0.804456943770    -1.179311366992     1.007825032230
         H            0.801926252617    -2.182257056230    -0.330476366992     1.007825032230
         H            0.907020252617     2.133461943770    -0.338751366992     1.007825032230
         H            3.026947252617     0.883737943770     1.329534633008     1.007825032230
         H            4.357267252617    -0.042774056230     0.609228633008     1.007825032230
         H            2.999189252617    -0.883421056230     1.382120633008     1.007825032230
         H           -2.807666747383     0.079072943770     0.332466633008     1.007825032230
         H           -1.121863747383     3.132384943770     0.030984633008     1.007825032230
         H           -2.647785747383    -2.227073056230     0.294608633008     1.007825032230

  Basis Set: AUG-CC-PVTZ
    Blend: AUG-CC-PVTZ
  Basis Set: (AUG-CC-PVTZ AUX)
    Blend: AUG-CC-PVTZ-JKFIT
	 Reference Energy          =    -458.6594210423658069 [Eh]
	 Singles Energy            =      -0.0000000000000000 [Eh]
	 Same-Spin Energy          =      -0.4817061522706886 [Eh]
	 Opposite-Spin Energy      =      -1.5052979549401275 [Eh]
	 Correlation Energy        =      -1.9870041072108160 [Eh]
	 Total Energy              =    -460.6464251495766007 [Eh]

	 ================> DF-SCS-MP2 Energies <==================
	-----------------------------------------------------------
	 SCS Same-Spin Scale       =       0.3333333333333333 [-]
	 SCS Opposite-Spin Scale   =       1.2000000000000000 [-]
	 SCS Same-Spin Energy      =      -0.1605687174235629 [Eh]
	 SCS Opposite-Spin Energy  =      -1.8063575459281529 [Eh]
	 SCS Correlation Energy    =      -1.9669262633517157 [Eh]
	 SCS Total Energy          =    -460.6263473057175020 [Eh]
	-----------------------------------------------------------

  Dipole Moment: [D]
     X:     0.4744      Y:     1.2799      Z:    -0.0093     Total:     1.3651

*** Psi4 exiting successfully. Buy a developer a beer!
