                               Psi4 1.3.2 release

  ==> Input File <==

--------------------------------------------------------------------------
#psi4
#
memory 32 gb

molecule  {
0 1
  O        1.7627890     2.3683800    -0.1458810
  O        1.6754140    -2.4069960    -0.1279020
  C       -1.0215720    -0.0077180     0.3641480
  C       -2.5139530    -0.0194410     0.5634370
  C       -0.3230660    -1.2073880     0.2343750
  C       -0.3370590     1.2052280     0.2348720
  C       -3.2735700    -0.0197480    -0.7643280
  C        1.0346870     1.2106680    -0.0181020
  C        1.0480560    -1.1910380    -0.0190010
  C        1.7368580     0.0147850    -0.1457440
  H       -2.7927850    -0.9030380     1.1483340
  H       -2.8082890     0.8538600     1.1573130
  H       -0.8312370    -2.1635460     0.3309200
  H       -0.7795294     1.9730984     0.3167832
  H       -3.0230990     0.8672620    -1.3527740
  H       -4.3574070    -0.0294260    -0.6053230
  H       -3.0076490    -0.8981260    -1.3586750
  H        2.8074370     0.0467670    -0.3362510
  H        1.1590650     3.1223080    -0.0299710
  H        2.6215300    -2.2543830    -0.2976190
units angstrom
no_reorient  #important for SAPT in psi4, default
symmetry c1  #important for SAPT in psi4, default
}

set PROPERTIES_ORIGIN ["COM"]
properties('MP2/aug-cc-pvtz', properties = ['dipole'])
--------------------------------------------------------------------------

    Molecular point group: c1
  Charge       = 0
  Multiplicity = 1
  Basis Set: AUG-CC-PVTZ
    Blend: AUG-CC-PVTZ
  Basis Set: (AUG-CC-PVTZ AUX)
    Blend: AUG-CC-PVTZ-JKFIT

    Orbital Energies [Eh]
    ---------------------

    Doubly Occupied:

       1A    -20.596265     2A    -20.592739     3A    -11.308780
       4A    -11.308079     5A    -11.249544     6A    -11.231996
       7A    -11.222492     8A    -11.219829     9A    -11.214395
      10A    -11.197922    11A     -1.405720    12A     -1.401414
      13A     -1.151319    14A     -1.063621    15A     -1.010228
      16A     -0.989493    17A     -0.879809    18A     -0.843656
      19A     -0.808476    20A     -0.740448    21A     -0.708907
      22A     -0.674836    23A     -0.674607    24A     -0.612155
      25A     -0.605127    26A     -0.597371    27A     -0.587167
      28A     -0.576262    29A     -0.557318    30A     -0.548780
      31A     -0.529995    32A     -0.521140    33A     -0.487771
      34A     -0.482258    35A     -0.453057    36A     -0.324872
      37A     -0.310516

  @DF-RHF Final Energy:  -458.62626754323310

   => Energetics <=

    Nuclear Repulsion Energy =            508.6946448790856721
    One-Electron Energy =               -1633.2650949758551633
    Two-Electron Energy =                 665.9441825535363932
    Total Energy =                       -458.6262675432330980
  Basis Set: (AUG-CC-PVTZ AUX)
    Blend: AUG-CC-PVTZ-RI
    Molecular point group: c1

    Geometry (in Angstrom), charge = 0, multiplicity = 1:

       Center              X                  Y                   Z               Mass
    ------------   -----------------  -----------------  -----------------  -----------------
         O            1.762063248896     2.369639498780    -0.145746625177    15.994914619570
         O            1.674688248896    -2.405736501220    -0.127767625177    15.994914619570
         C           -1.022297751104    -0.006458501220     0.364282374823    12.000000000000
         C           -2.514678751104    -0.018181501220     0.563571374823    12.000000000000
         C           -0.323791751104    -1.206128501220     0.234509374823    12.000000000000
         C           -0.337784751104     1.206487498780     0.235006374823    12.000000000000
         C           -3.274295751104    -0.018488501220    -0.764193625177    12.000000000000
         C            1.033961248896     1.211927498780    -0.017967625177    12.000000000000
         C            1.047330248896    -1.189778501220    -0.018866625177    12.000000000000
         C            1.736132248896     0.016044498780    -0.145609625177    12.000000000000
         H           -2.793510751104    -0.901778501220     1.148468374823     1.007825032230
         H           -2.809014751104     0.855119498780     1.157447374823     1.007825032230
         H           -0.831962751104    -2.162286501220     0.331054374823     1.007825032230
         H           -0.780255151104     1.974357898780     0.316917574823     1.007825032230
         H           -3.023824751104     0.868521498780    -1.352639625177     1.007825032230
         H           -4.358132751104    -0.028166501220    -0.605188625177     1.007825032230
         H           -3.008374751104    -0.896866501220    -1.358540625177     1.007825032230
         H            2.806711248896     0.048026498780    -0.336116625177     1.007825032230
         H            1.158339248896     3.123567498780    -0.029836625177     1.007825032230
         H            2.620804248896    -2.253123501220    -0.297484625177     1.007825032230

  Basis Set: AUG-CC-PVTZ
    Blend: AUG-CC-PVTZ
  Basis Set: (AUG-CC-PVTZ AUX)
    Blend: AUG-CC-PVTZ-JKFIT
	 Reference Energy          =    -458.6262675432330980 [Eh]
	 Singles Energy            =      -0.0000000000000000 [Eh]
	 Same-Spin Energy          =      -0.4814172823788856 [Eh]
	 Opposite-Spin Energy      =      -1.5046262195901430 [Eh]
	 Correlation Energy        =      -1.9860435019690286 [Eh]
	 Total Energy              =    -460.6123110452021479 [Eh]

	 ================> DF-SCS-MP2 Energies <==================
	-----------------------------------------------------------
	 SCS Same-Spin Scale       =       0.3333333333333333 [-]
	 SCS Opposite-Spin Scale   =       1.2000000000000000 [-]
	 SCS Same-Spin Energy      =      -0.1604724274596285 [Eh]
	 SCS Opposite-Spin Energy  =      -1.8055514635081715 [Eh]
	 SCS Correlation Energy    =      -1.9660238909678001 [Eh]
	 SCS Total Energy          =    -460.5922914342008880 [Eh]
	-----------------------------------------------------------

  Dipole Moment: [D]
     X:    -0.5087      Y:     1.2870      Z:     0.0131     Total:     1.3839

*** Psi4 exiting successfully. Buy a developer a beer!
