                               Psi4 1.3.2 release

  ==> Input File <==

--------------------------------------------------------------------------
#psi4
#
memory 32 gb

molecule  {
0 1
  O        1.7627890     2.3683800    -0.1458810
  O        1.6754140    -2.4069960    -0.1279020
  C       -1.0112576    -0.0015639     0.3622039
  C       -2.5139530    -0.0194410     0.5634370
  C       -0.3230660    -1.2073880     0.2343750
  C       -0.3370590     1.2052280     0.2348720
  C       -3.2735700    -0.0197480    -0.7643280
  C        1.0346870     1.2106680    -0.0181020
  C        1.0480560    -1.1910380    -0.0190010
  C        1.7368580     0.0147850    -0.1457440
  H       -2.7927850    -0.9030380     1.1483340
  H       -2.8082890     0.8538600     1.1573130
  H       -0.8230161    -2.1680235     0.3293814
  H       -0.8789600     2.1456520     0.3351900
  H       -3.0230990     0.8672620    -1.3527740
  H       -4.3574070    -0.0294260    -0.6053230
  H       -3.0076490    -0.8981260    -1.3586750
  H        2.8074370     0.0467670    -0.3362510
  H        1.1590650     3.1223080    -0.0299710
  H        2.6215300    -2.2543830    -0.2976190
units angstrom
no_reorient  #important for SAPT in psi4, default
symmetry c1  #important for SAPT in psi4, default
}

set PROPERTIES_ORIGIN ["COM"]
properties('MP2/aug-cc-pvtz', properties = ['dipole'])
--------------------------------------------------------------------------

    Molecular point group: c1
  Charge       = 0
  Multiplicity = 1
  Basis Set: AUG-CC-PVTZ
    Blend: AUG-CC-PVTZ
  Basis Set: (AUG-CC-PVTZ AUX)
    Blend: AUG-CC-PVTZ-JKFIT

    Orbital Energies [Eh]
    ---------------------

    Doubly Occupied:

       1A    -20.595930     2A    -20.593236     3A    -11.310746
       4A    -11.308420     5A    -11.250667     6A    -11.232307
       7A    -11.223869     8A    -11.222118     9A    -11.219373
      10A    -11.215637    11A     -1.405580    12A     -1.401849
      13A     -1.151214    14A     -1.062630    15A     -1.002041
      16A     -0.988517    17A     -0.875375    18A     -0.836854
      19A     -0.808231    20A     -0.740465    21A     -0.687827
      22A     -0.675065    23A     -0.666124    24A     -0.611273
      25A     -0.602367    26A     -0.594707    27A     -0.587454
      28A     -0.576508    29A     -0.553548    30A     -0.548889
      31A     -0.524132    32A     -0.521303    33A     -0.487853
      34A     -0.480194    35A     -0.454874    36A     -0.326810
      37A     -0.311395

  @DF-RHF Final Energy:  -458.66028760905425

   => Energetics <=

    Nuclear Repulsion Energy =            507.5955692986685222
    One-Electron Energy =               -1631.2009489606646184
    Two-Electron Energy =                 664.9450920529418454
    Total Energy =                       -458.6602876090541940
  Basis Set: (AUG-CC-PVTZ AUX)
    Blend: AUG-CC-PVTZ-RI
    Molecular point group: c1

    Geometry (in Angstrom), charge = 0, multiplicity = 1:

       Center              X                  Y                   Z               Mass
    ------------   -----------------  -----------------  -----------------  -----------------
         O            1.761832570079     2.367877755576    -0.145700785430    15.994914619570
         O            1.674457570079    -2.407498244424    -0.127721785430    15.994914619570
         C           -1.012214029921    -0.002066144424     0.362384114570    12.000000000000
         C           -2.514909429921    -0.019943244424     0.563617214570    12.000000000000
         C           -0.324022429921    -1.207890244424     0.234555214570    12.000000000000
         C           -0.338015429921     1.204725755576     0.235052214570    12.000000000000
         C           -3.274526429921    -0.020250244424    -0.764147785430    12.000000000000
         C            1.033730570079     1.210165755576    -0.017921785430    12.000000000000
         C            1.047099570079    -1.191540244424    -0.018820785430    12.000000000000
         C            1.735901570079     0.014282755576    -0.145563785430    12.000000000000
         H           -2.793741429921    -0.903540244424     1.148514214570     1.007825032230
         H           -2.809245429921     0.853357755576     1.157493214570     1.007825032230
         H           -0.823972529921    -2.168525744424     0.329561614570     1.007825032230
         H           -0.879916429921     2.145149755576     0.335370214570     1.007825032230
         H           -3.024055429921     0.866759755576    -1.352593785430     1.007825032230
         H           -4.358363429921    -0.029928244424    -0.605142785430     1.007825032230
         H           -3.008605429921    -0.898628244424    -1.358494785430     1.007825032230
         H            2.806480570079     0.046264755576    -0.336070785430     1.007825032230
         H            1.158108570079     3.121805755576    -0.029790785430     1.007825032230
         H            2.620573570079    -2.254885244424    -0.297438785430     1.007825032230

  Basis Set: AUG-CC-PVTZ
    Blend: AUG-CC-PVTZ
  Basis Set: (AUG-CC-PVTZ AUX)
    Blend: AUG-CC-PVTZ-JKFIT
	 Reference Energy          =    -458.6602876090542509 [Eh]
	 Singles Energy            =      -0.0000000000000000 [Eh]
	 Same-Spin Energy          =      -0.4816362132248792 [Eh]
	 Opposite-Spin Energy      =      -1.5050557347713136 [Eh]
	 Correlation Energy        =      -1.9866919479961926 [Eh]
	 Total Energy              =    -460.6469795570504289 [Eh]

	 ================> DF-SCS-MP2 Energies <==================
	-----------------------------------------------------------
	 SCS Same-Spin Scale       =       0.3333333333333333 [-]
	 SCS Opposite-Spin Scale   =       1.2000000000000000 [-]
	 SCS Same-Spin Energy      =      -0.1605454044082930 [Eh]
	 SCS Opposite-Spin Energy  =      -1.8060668817255763 [Eh]
	 SCS Correlation Energy    =      -1.9666122861338693 [Eh]
	 SCS Total Energy          =    -460.6268998951881031 [Eh]
	-----------------------------------------------------------

  Dipole Moment: [D]
     X:    -0.4813      Y:     1.2273      Z:     0.0093     Total:     1.3183

*** Psi4 exiting successfully. Buy a developer a beer!
