                               Psi4 1.3.2 release

  ==> Input File <==

--------------------------------------------------------------------------
#psi4
#
memory 32 gb

molecule  {
0 1
  O        1.7627890     2.3683800    -0.1458810
  O        1.6754140    -2.4069960    -0.1279020
  C       -1.0112501    -0.0015638     0.3622440
  C       -2.5139530    -0.0194410     0.5634370
  C       -0.3230660    -1.2073880     0.2343750
  C       -0.3370590     1.2052280     0.2348720
  C       -3.2735700    -0.0197480    -0.7643280
  C        1.0346870     1.2106680    -0.0181020
  C        1.0478647    -1.1788709    -0.0189587
  C        1.7368580     0.0147850    -0.1457440
  H       -2.7927850    -0.9030380     1.1483340
  H       -2.8082890     0.8538600     1.1573130
  H       -0.8312370    -2.1635460     0.3309200
  H       -0.8789600     2.1456520     0.3351900
  H       -3.0230990     0.8672620    -1.3527740
  H       -4.3574070    -0.0294260    -0.6053230
  H       -3.0076490    -0.8981260    -1.3586750
  H        2.8074370     0.0467670    -0.3362510
  H        1.1590650     3.1223080    -0.0299710
  H        2.6215300    -2.2543830    -0.2976190
units angstrom
no_reorient  #important for SAPT in psi4, default
symmetry c1  #important for SAPT in psi4, default
}

set PROPERTIES_ORIGIN ["COM"]
properties('MP2/aug-cc-pvtz', properties = ['dipole'])
--------------------------------------------------------------------------

    Molecular point group: c1
  Charge       = 0
  Multiplicity = 1
  Basis Set: AUG-CC-PVTZ
    Blend: AUG-CC-PVTZ
  Basis Set: (AUG-CC-PVTZ AUX)
    Blend: AUG-CC-PVTZ-JKFIT

    Orbital Energies [Eh]
    ---------------------

    Doubly Occupied:

       1A    -20.596382     2A    -20.591256     3A    -11.311276
       4A    -11.307559     5A    -11.250612     6A    -11.232459
       7A    -11.223768     8A    -11.222553     9A    -11.219557
      10A    -11.216118    11A     -1.405693    12A     -1.396690
      13A     -1.152463    14A     -1.063876    15A     -1.002036
      16A     -0.989651    17A     -0.875383    18A     -0.837905
      19A     -0.806880    20A     -0.739560    21A     -0.688469
      22A     -0.674764    23A     -0.663991    24A     -0.611301
      25A     -0.602170    26A     -0.594730    27A     -0.586516
      28A     -0.574522    29A     -0.554387    30A     -0.549264
      31A     -0.524680    32A     -0.522167    33A     -0.487979
      34A     -0.480470    35A     -0.455581    36A     -0.328488
      37A     -0.311743

  @DF-RHF Final Energy:  -458.65995512050591

   => Energetics <=

    Nuclear Repulsion Energy =            507.6736517363069652
    One-Electron Energy =               -1631.3614188544158878
    Two-Electron Energy =                 665.0278119976030666
    Total Energy =                       -458.6599551205058560
  Basis Set: (AUG-CC-PVTZ AUX)
    Blend: AUG-CC-PVTZ-RI
    Molecular point group: c1

    Geometry (in Angstrom), charge = 0, multiplicity = 1:

       Center              X                  Y                   Z               Mass
    ------------   -----------------  -----------------  -----------------  -----------------
         O            1.761908553093     2.366787576462    -0.145719178092    15.994914619570
         O            1.674533553093    -2.408588423538    -0.127740178092    15.994914619570
         C           -1.012130546907    -0.003156223538     0.362405821908    12.000000000000
         C           -2.514833446907    -0.021033423538     0.563598821908    12.000000000000
         C           -0.323946446907    -1.208980423538     0.234536821908    12.000000000000
         C           -0.337939446907     1.203635576462     0.235033821908    12.000000000000
         C           -3.274450446907    -0.021340423538    -0.764166178092    12.000000000000
         C            1.033806553093     1.209075576462    -0.017940178092    12.000000000000
         C            1.046984253093    -1.180463323538    -0.018796878092    12.000000000000
         C            1.735977553093     0.013192576462    -0.145582178092    12.000000000000
         H           -2.793665446907    -0.904630423538     1.148495821908     1.007825032230
         H           -2.809169446907     0.852267576462     1.157474821908     1.007825032230
         H           -0.832117446907    -2.165138423538     0.331081821908     1.007825032230
         H           -0.879840446907     2.144059576462     0.335351821908     1.007825032230
         H           -3.023979446907     0.865669576462    -1.352612178092     1.007825032230
         H           -4.358287446907    -0.031018423538    -0.605161178092     1.007825032230
         H           -3.008529446907    -0.899718423538    -1.358513178092     1.007825032230
         H            2.806556553093     0.045174576462    -0.336089178092     1.007825032230
         H            1.158184553093     3.120715576462    -0.029809178092     1.007825032230
         H            2.620649553093    -2.255975423538    -0.297457178092     1.007825032230

  Basis Set: AUG-CC-PVTZ
    Blend: AUG-CC-PVTZ
  Basis Set: (AUG-CC-PVTZ AUX)
    Blend: AUG-CC-PVTZ-JKFIT
	 Reference Energy          =    -458.6599551205059129 [Eh]
	 Singles Energy            =      -0.0000000000000000 [Eh]
	 Same-Spin Energy          =      -0.4816667831541014 [Eh]
	 Opposite-Spin Energy      =      -1.5052096814638172 [Eh]
	 Correlation Energy        =      -1.9868764646179184 [Eh]
	 Total Energy              =    -460.6468315851238344 [Eh]

	 ================> DF-SCS-MP2 Energies <==================
	-----------------------------------------------------------
	 SCS Same-Spin Scale       =       0.3333333333333333 [-]
	 SCS Opposite-Spin Scale   =       1.2000000000000000 [-]
	 SCS Same-Spin Energy      =      -0.1605555943847005 [Eh]
	 SCS Opposite-Spin Energy  =      -1.8062516177565806 [Eh]
	 SCS Correlation Energy    =      -1.9668072121412812 [Eh]
	 SCS Total Energy          =    -460.6267623326472176 [Eh]
	-----------------------------------------------------------

  Dipole Moment: [D]
     X:    -0.5170      Y:     1.2965      Z:     0.0143     Total:     1.3959

*** Psi4 exiting successfully. Buy a developer a beer!
