                               Psi4 1.4a3.dev225

  ==> Input File <==

--------------------------------------------------------------------------
#psi4
#
memory 32 gb

molecule  {
0 1
  O       -1.8116000     2.3801270     0.1363720
  O       -1.7799440    -2.3994320     0.1189850
  C        0.9489570    -0.0306590    -0.3689570
  C        2.4429910    -0.0568610    -0.5708560
  C        0.2098724    -1.2647262    -0.2326771
  C        0.2798030     1.1938580    -0.2383990
  C        3.1984060    -0.0265600     0.7613490
  C       -1.0921630     1.2139390     0.0079710
  C       -1.1396310    -1.1871160     0.0102260
  C       -1.8132500     0.0254130     0.1385790
  H        2.7180680    -0.9584190    -1.1301260
  H        2.7446220     0.7994920    -1.1857830
  H        0.7258350    -2.1872220    -0.3369480
  H        0.8309290     2.1284970    -0.3452230
  H        2.9508560     0.8787730     1.3230630
  H        4.2811760    -0.0477390     0.6027570
  H        2.9230980    -0.8883860     1.3756490
  H       -2.8837580     0.0741080     0.3259950
  H       -1.1979550     3.1274200     0.0245130
  H       -2.7238770    -2.2320380     0.2881370
units angstrom
no_reorient  #important for SAPT in psi4, default
symmetry c1  #important for SAPT in psi4, default
}

set PROPERTIES_ORIGIN ["COM"]
properties('MP2/aug-cc-pvtz', properties = ['dipole'])
--------------------------------------------------------------------------

    Molecular point group: c1
  Charge       = 0
  Multiplicity = 1
  Basis Set: AUG-CC-PVTZ
    Blend: AUG-CC-PVTZ
  Basis Set: (AUG-CC-PVTZ AUX)
    Blend: AUG-CC-PVTZ-JKFIT

    Orbital Energies [Eh]
    ---------------------

    Doubly Occupied:

       1A    -20.596505     2A    -20.589775     3A    -11.312141
       4A    -11.305209     5A    -11.258805     6A    -11.233746
       7A    -11.225121     8A    -11.224078     9A    -11.220663
      10A    -11.215963    11A     -1.404715    12A     -1.399130
      13A     -1.146399    14A     -1.063289    15A     -1.004292
      16A     -0.985893    17A     -0.877743    18A     -0.834901
      19A     -0.805516    20A     -0.739242    21A     -0.688730
      22A     -0.675414    23A     -0.663473    24A     -0.611930
      25A     -0.601826    26A     -0.595305    27A     -0.588610
      28A     -0.575272    29A     -0.552644    30A     -0.547879
      31A     -0.525199    32A     -0.522302    33A     -0.487663
      34A     -0.484885    35A     -0.451673    36A     -0.323723
      37A     -0.312280

  @DF-RHF Final Energy:  -458.65638958108491

   => Energetics <=

    Nuclear Repulsion Energy =            506.6511280262656669
    One-Electron Energy =               -1629.3111654831568558
    Two-Electron Energy =                 664.0036478758062231
    Total Energy =                       -458.6563895810849090
  Basis Set: (AUG-CC-PVTZ AUX)
    Blend: AUG-CC-PVTZ-RI
    Molecular point group: c1

    Geometry (in Angstrom), charge = 0, multiplicity = 1:

       Center              X                  Y                   Z               Mass
    ------------   -----------------  -----------------  -----------------  -----------------
         O           -1.734996608733     2.388828561253     0.142740961920    15.994914619570
         O           -1.703340608733    -2.390730438747     0.125353961920    15.994914619570
         C            1.025560391267    -0.021957438747    -0.362588038080    12.000000000000
         C            2.519594391267    -0.048159438747    -0.564487038080    12.000000000000
         C            0.286475791267    -1.256024638747    -0.226308138080    12.000000000000
         C            0.356406391267     1.202559561253    -0.232030038080    12.000000000000
         C            3.275009391267    -0.017858438747     0.767717961920    12.000000000000
         C           -1.015559608733     1.222640561253     0.014339961920    12.000000000000
         C           -1.063027608733    -1.178414438747     0.016594961920    12.000000000000
         C           -1.736646608733     0.034114561253     0.144947961920    12.000000000000
         H            2.794671391267    -0.949717438747    -1.123757038080     1.007825032230
         H            2.821225391267     0.808193561253    -1.179414038080     1.007825032230
         H            0.802438391267    -2.178520438747    -0.330579038080     1.007825032230
         H            0.907532391267     2.137198561253    -0.338854038080     1.007825032230
         H            3.027459391267     0.887474561253     1.329431961920     1.007825032230
         H            4.357779391267    -0.039037438747     0.609125961920     1.007825032230
         H            2.999701391267    -0.879684438747     1.382017961920     1.007825032230
         H           -2.807154608733     0.082809561253     0.332363961920     1.007825032230
         H           -1.121351608733     3.136121561253     0.030881961920     1.007825032230
         H           -2.647273608733    -2.223336438747     0.294505961920     1.007825032230

  Basis Set: AUG-CC-PVTZ
    Blend: AUG-CC-PVTZ
  Basis Set: (AUG-CC-PVTZ AUX)
    Blend: AUG-CC-PVTZ-JKFIT
	 Reference Energy          =    -458.6563895810849090 [Eh]
	 Singles Energy            =      -0.0000000000000000 [Eh]
	 Same-Spin Energy          =      -0.4817207067514903 [Eh]
	 Opposite-Spin Energy      =      -1.5056455368905928 [Eh]
	 Correlation Energy        =      -1.9873662436420831 [Eh]
	 Total Energy              =    -460.6437558247270090 [Eh]

	 ================> DF-SCS-MP2 Energies <==================
	-----------------------------------------------------------
	 SCS Same-Spin Scale       =       0.3333333333333333 [-]
	 SCS Opposite-Spin Scale   =       1.2000000000000000 [-]
	 SCS Same-Spin Energy      =      -0.1605735689171634 [Eh]
	 SCS Opposite-Spin Energy  =      -1.8067746442687111 [Eh]
	 SCS Correlation Energy    =      -1.9673482131858746 [Eh]
	 SCS Total Energy          =    -460.6237377942707667 [Eh]
	-----------------------------------------------------------

  Dipole Moment: [D]
     X:     0.5829      Y:     1.2920      Z:    -0.0249     Total:     1.4176

*** Psi4 exiting successfully. Buy a developer a beer!
