                               Psi4 1.3.2 release

  ==> Input File <==

--------------------------------------------------------------------------
#psi4
#
memory 32 gb

molecule  {
0 1
  O        1.7627890     2.3683800    -0.1458810
  O        1.6754140    -2.4069960    -0.1279020
  C       -1.0215720    -0.0077180     0.3641480
  C       -2.5139530    -0.0194410     0.5634370
  C       -0.3230660    -1.2073880     0.2343750
  C       -0.3370590     1.2052280     0.2348720
  C       -3.2735700    -0.0197480    -0.7643280
  C        1.0346870     1.2106680    -0.0181020
  C        1.0478060    -1.2397094    -0.0188197
  C        1.7368580     0.0147850    -0.1457440
  H       -2.7927850    -0.9030380     1.1483340
  H       -2.8082890     0.8538600     1.1573130
  H       -0.7981043    -2.1810154     0.3248469
  H       -0.8789600     2.1456520     0.3351900
  H       -3.0230990     0.8672620    -1.3527740
  H       -4.3574070    -0.0294260    -0.6053230
  H       -3.0076490    -0.8981260    -1.3586750
  H        2.8074370     0.0467670    -0.3362510
  H        1.1590650     3.1223080    -0.0299710
  H        2.6215300    -2.2543830    -0.2976190
units angstrom
no_reorient  #important for SAPT in psi4, default
symmetry c1  #important for SAPT in psi4, default
}

set PROPERTIES_ORIGIN ["COM"]
properties('MP2/aug-cc-pvtz', properties = ['dipole'])
--------------------------------------------------------------------------

    Molecular point group: c1
  Charge       = 0
  Multiplicity = 1
  Basis Set: AUG-CC-PVTZ
    Blend: AUG-CC-PVTZ
  Basis Set: (AUG-CC-PVTZ AUX)
    Blend: AUG-CC-PVTZ-JKFIT

    Orbital Energies [Eh]
    ---------------------

    Doubly Occupied:

       1A    -20.601347     2A    -20.593885     3A    -11.312472
       4A    -11.308401     5A    -11.251656     6A    -11.231478
       7A    -11.224128     8A    -11.220874     9A    -11.218975
      10A    -11.214052    11A     -1.425695    12A     -1.402801
      13A     -1.145814    14A     -1.059296    15A     -1.001707
      16A     -0.983259    17A     -0.876826    18A     -0.833866
      19A     -0.813129    20A     -0.744016    21A     -0.686662
      22A     -0.678377    23A     -0.671100    24A     -0.612541
      25A     -0.605735    26A     -0.596178    27A     -0.590677
      28A     -0.581757    29A     -0.550553    30A     -0.546621
      31A     -0.523412    32A     -0.514182    33A     -0.487455
      34A     -0.480148    35A     -0.451058    36A     -0.320466
      37A     -0.308803

  @DF-RHF Final Energy:  -458.65736255977652

   => Energetics <=

    Nuclear Repulsion Energy =            507.2286090152525730
    One-Electron Energy =               -1630.4331406568755938
    Two-Electron Energy =                 664.5471690818463912
    Total Energy =                       -458.6573625597765158
  Basis Set: (AUG-CC-PVTZ AUX)
    Blend: AUG-CC-PVTZ-RI
    Molecular point group: c1

    Geometry (in Angstrom), charge = 0, multiplicity = 1:

       Center              X                  Y                   Z               Mass
    ------------   -----------------  -----------------  -----------------  -----------------
         O            1.762568917428     2.372737673699    -0.145852412203    15.994914619570
         O            1.675193917428    -2.402638326301    -0.127873412203    15.994914619570
         C           -1.021792082572    -0.003360326301     0.364176587797    12.000000000000
         C           -2.514173082572    -0.015083326301     0.563465587797    12.000000000000
         C           -0.323286082572    -1.203030326301     0.234403587797    12.000000000000
         C           -0.337279082572     1.209585673699     0.234900587797    12.000000000000
         C           -3.273790082572    -0.015390326301    -0.764299412203    12.000000000000
         C            1.034466917428     1.215025673699    -0.018073412203    12.000000000000
         C            1.047585917428    -1.235351726301    -0.018791112203    12.000000000000
         C            1.736637917428     0.019142673699    -0.145715412203    12.000000000000
         H           -2.793005082572    -0.898680326301     1.148362587797     1.007825032230
         H           -2.808509082572     0.858217673699     1.157341587797     1.007825032230
         H           -0.798324382572    -2.176657726301     0.324875487797     1.007825032230
         H           -0.879180082572     2.150009673699     0.335218587797     1.007825032230
         H           -3.023319082572     0.871619673699    -1.352745412203     1.007825032230
         H           -4.357627082572    -0.025068326301    -0.605294412203     1.007825032230
         H           -3.007869082572    -0.893768326301    -1.358646412203     1.007825032230
         H            2.807216917428     0.051124673699    -0.336222412203     1.007825032230
         H            1.158844917428     3.126665673699    -0.029942412203     1.007825032230
         H            2.621309917428    -2.250025326301    -0.297590412203     1.007825032230

  Basis Set: AUG-CC-PVTZ
    Blend: AUG-CC-PVTZ
  Basis Set: (AUG-CC-PVTZ AUX)
    Blend: AUG-CC-PVTZ-JKFIT
	 Reference Energy          =    -458.6573625597765158 [Eh]
	 Singles Energy            =      -0.0000000000000000 [Eh]
	 Same-Spin Energy          =      -0.4816932409276172 [Eh]
	 Opposite-Spin Energy      =      -1.5048070058754952 [Eh]
	 Correlation Energy        =      -1.9865002468031125 [Eh]
	 Total Energy              =    -460.6438628065796479 [Eh]

	 ================> DF-SCS-MP2 Energies <==================
	-----------------------------------------------------------
	 SCS Same-Spin Scale       =       0.3333333333333333 [-]
	 SCS Opposite-Spin Scale   =       1.2000000000000000 [-]
	 SCS Same-Spin Energy      =      -0.1605644136425391 [Eh]
	 SCS Opposite-Spin Energy  =      -1.8057684070505942 [Eh]
	 SCS Correlation Energy    =      -1.9663328206931332 [Eh]
	 SCS Total Energy          =    -460.6236953804696554 [Eh]
	-----------------------------------------------------------

  Dipole Moment: [D]
     X:    -0.3492      Y:     0.9406      Z:    -0.0116     Total:     1.0034

*** Psi4 exiting successfully. Buy a developer a beer!
