                               Psi4 1.3.2 release

  ==> Input File <==

--------------------------------------------------------------------------
#psi4
#
memory 32 gb

molecule  {
0 1
  O        1.7627890     2.3683800    -0.1458810
  O        1.6754140    -2.4069960    -0.1279020
  C       -1.0318407    -0.0139635     0.3660421
  C       -2.5139530    -0.0194410     0.5634370
  C       -0.3230660    -1.2073880     0.2343750
  C       -0.3370590     1.2052280     0.2348720
  C       -3.2735700    -0.0197480    -0.7643280
  C        1.0346870     1.2106680    -0.0181020
  C        1.0481428    -1.2032063    -0.0190240
  C        1.7368580     0.0147850    -0.1457440
  H       -2.7927850    -0.9030380     1.1483340
  H       -2.8082890     0.8538600     1.1573130
  H       -0.8312370    -2.1635460     0.3309200
  H       -0.8789600     2.1456520     0.3351900
  H       -3.0230990     0.8672620    -1.3527740
  H       -4.3574070    -0.0294260    -0.6053230
  H       -3.0076490    -0.8981260    -1.3586750
  H        2.8074370     0.0467670    -0.3362510
  H        1.1590650     3.1223080    -0.0299710
  H        2.6215300    -2.2543830    -0.2976190
units angstrom
no_reorient  #important for SAPT in psi4, default
symmetry c1  #important for SAPT in psi4, default
}

set PROPERTIES_ORIGIN ["COM"]
properties('MP2/aug-cc-pvtz', properties = ['dipole'])
--------------------------------------------------------------------------

    Molecular point group: c1
  Charge       = 0
  Multiplicity = 1
  Basis Set: AUG-CC-PVTZ
    Blend: AUG-CC-PVTZ
  Basis Set: (AUG-CC-PVTZ AUX)
    Blend: AUG-CC-PVTZ-JKFIT

    Orbital Energies [Eh]
    ---------------------

    Doubly Occupied:

       1A    -20.595387     2A    -20.595020     3A    -11.310055
       4A    -11.309745     5A    -11.252158     6A    -11.231744
       7A    -11.224132     8A    -11.222879     9A    -11.219914
      10A    -11.215782    11A     -1.408560    12A     -1.403672
      13A     -1.148496    14A     -1.064195    15A     -1.000832
      16A     -0.986231    17A     -0.877904    18A     -0.835672
      19A     -0.809369    20A     -0.740150    21A     -0.686909
      22A     -0.676076    23A     -0.667584    24A     -0.612699
      25A     -0.602773    26A     -0.596061    27A     -0.588381
      28A     -0.578168    29A     -0.551193    30A     -0.549014
      31A     -0.523649    32A     -0.519006    33A     -0.488350
      34A     -0.483770    35A     -0.452336    36A     -0.323650
      37A     -0.310665

  @DF-RHF Final Energy:  -458.65964149826317

   => Energetics <=

    Nuclear Repulsion Energy =            507.3432963934435520
    One-Electron Energy =               -1630.6815113671461859
    Two-Electron Energy =                 664.6785734754394070
    Total Energy =                       -458.6596414982632268
  Basis Set: (AUG-CC-PVTZ AUX)
    Blend: AUG-CC-PVTZ-RI
    Molecular point group: c1

    Geometry (in Angstrom), charge = 0, multiplicity = 1:

       Center              X                  Y                   Z               Mass
    ------------   -----------------  -----------------  -----------------  -----------------
         O            1.763673986499     2.369980357889    -0.146043609345    15.994914619570
         O            1.676298986499    -2.405395642111    -0.128064609345    15.994914619570
         C           -1.030955713501    -0.012363142111     0.365879490655    12.000000000000
         C           -2.513068013501    -0.017840642111     0.563274390655    12.000000000000
         C           -0.322181013501    -1.205787642111     0.234212390655    12.000000000000
         C           -0.336174013501     1.206828357889     0.234709390655    12.000000000000
         C           -3.272685013501    -0.018147642111    -0.764490609345    12.000000000000
         C            1.035571986499     1.212268357889    -0.018264609345    12.000000000000
         C            1.049027786499    -1.201605942111    -0.019186609345    12.000000000000
         C            1.737742986499     0.016385357889    -0.145906609345    12.000000000000
         H           -2.791900013501    -0.901437642111     1.148171390655     1.007825032230
         H           -2.807404013501     0.855460357889     1.157150390655     1.007825032230
         H           -0.830352013501    -2.161945642111     0.330757390655     1.007825032230
         H           -0.878075013501     2.147252357889     0.335027390655     1.007825032230
         H           -3.022214013501     0.868862357889    -1.352936609345     1.007825032230
         H           -4.356522013501    -0.027825642111    -0.605485609345     1.007825032230
         H           -3.006764013501    -0.896525642111    -1.358837609345     1.007825032230
         H            2.808321986499     0.048367357889    -0.336413609345     1.007825032230
         H            1.159949986499     3.123908357889    -0.030133609345     1.007825032230
         H            2.622414986499    -2.252782642111    -0.297781609345     1.007825032230

  Basis Set: AUG-CC-PVTZ
    Blend: AUG-CC-PVTZ
  Basis Set: (AUG-CC-PVTZ AUX)
    Blend: AUG-CC-PVTZ-JKFIT
	 Reference Energy          =    -458.6596414982631700 [Eh]
	 Singles Energy            =      -0.0000000000000000 [Eh]
	 Same-Spin Energy          =      -0.4818234507682158 [Eh]
	 Opposite-Spin Energy      =      -1.5052565436834240 [Eh]
	 Correlation Energy        =      -1.9870799944516397 [Eh]
	 Total Energy              =    -460.6467214927147893 [Eh]

	 ================> DF-SCS-MP2 Energies <==================
	-----------------------------------------------------------
	 SCS Same-Spin Scale       =       0.3333333333333333 [-]
	 SCS Opposite-Spin Scale   =       1.2000000000000000 [-]
	 SCS Same-Spin Energy      =      -0.1606078169227386 [Eh]
	 SCS Opposite-Spin Energy  =      -1.8063078524201086 [Eh]
	 SCS Correlation Energy    =      -1.9669156693428471 [Eh]
	 SCS Total Energy          =    -460.6265571676059949 [Eh]
	-----------------------------------------------------------

  Dipole Moment: [D]
     X:    -0.4785      Y:     1.1455      Z:     0.0044     Total:     1.2414

*** Psi4 exiting successfully. Buy a developer a beer!
