                               Psi4 1.3.2 release

  ==> Input File <==

--------------------------------------------------------------------------
#psi4
#
memory 32 gb

molecule  {
0 1
  O        1.7627890     2.3683800    -0.1458810
  O        1.6754140    -2.4069960    -0.1279020
  C       -1.0422911     0.0046242     0.3679378
  C       -2.5139530    -0.0194410     0.5634370
  C       -0.3230660    -1.2073880     0.2343750
  C       -0.3370590     1.2052280     0.2348720
  C       -3.2735700    -0.0197480    -0.7643280
  C        1.0343738     1.2350111    -0.0181054
  C        1.0480560    -1.1910380    -0.0190010
  C        1.7368580     0.0147850    -0.1457440
  H       -2.7927850    -0.9030380     1.1483340
  H       -2.8082890     0.8538600     1.1573130
  H       -0.8312370    -2.1635460     0.3309200
  H       -0.8789600     2.1456520     0.3351900
  H       -3.0230990     0.8672620    -1.3527740
  H       -4.3574070    -0.0294260    -0.6053230
  H       -3.0076490    -0.8981260    -1.3586750
  H        2.8074370     0.0467670    -0.3362510
  H        1.1590650     3.1223080    -0.0299710
  H        2.6215300    -2.2543830    -0.2976190
units angstrom
no_reorient  #important for SAPT in psi4, default
symmetry c1  #important for SAPT in psi4, default
}

set PROPERTIES_ORIGIN ["COM"]
properties('MP2/aug-cc-pvtz', properties = ['dipole'])
--------------------------------------------------------------------------

    Molecular point group: c1
  Charge       = 0
  Multiplicity = 1
  Basis Set: AUG-CC-PVTZ
    Blend: AUG-CC-PVTZ
  Basis Set: (AUG-CC-PVTZ AUX)
    Blend: AUG-CC-PVTZ-JKFIT

    Orbital Energies [Eh]
    ---------------------

    Doubly Occupied:

       1A    -20.600500     2A    -20.591866     3A    -11.312751
       4A    -11.307110     5A    -11.252965     6A    -11.231424
       7A    -11.224283     8A    -11.222773     9A    -11.220115
      10A    -11.216533    11A     -1.416629    12A     -1.400903
      13A     -1.146763    14A     -1.064388    15A     -0.999634
      16A     -0.985100    17A     -0.878581    18A     -0.837048
      19A     -0.807795    20A     -0.743165    21A     -0.685948
      22A     -0.676589    23A     -0.665447    24A     -0.615461
      25A     -0.604979    26A     -0.596358    27A     -0.588671
      28A     -0.578689    29A     -0.551275    30A     -0.547835
      31A     -0.522521    32A     -0.517327    33A     -0.488567
      34A     -0.485827    35A     -0.450853    36A     -0.322700
      37A     -0.308679

  @DF-RHF Final Energy:  -458.65797019596141

   => Energetics <=

    Nuclear Repulsion Energy =            507.1766995064539287
    One-Electron Energy =               -1630.3332322390817808
    Two-Electron Energy =                 664.4985625366665545
    Total Energy =                       -458.6579701959614113
  Basis Set: (AUG-CC-PVTZ AUX)
    Blend: AUG-CC-PVTZ-RI
    Molecular point group: c1

    Geometry (in Angstrom), charge = 0, multiplicity = 1:

       Center              X                  Y                   Z               Mass
    ------------   -----------------  -----------------  -----------------  -----------------
         O            1.764617034309     2.365191494293    -0.146210075049    15.994914619570
         O            1.677242034309    -2.410184505707    -0.128231075049    15.994914619570
         C           -1.040463065691     0.001435694293     0.367608724951    12.000000000000
         C           -2.512124965691    -0.022629505707     0.563107924951    12.000000000000
         C           -0.321237965691    -1.210576505707     0.234045924951    12.000000000000
         C           -0.335230965691     1.202039494293     0.234542924951    12.000000000000
         C           -3.271741965691    -0.022936505707    -0.764657075049    12.000000000000
         C            1.036201834309     1.231822594293    -0.018434475049    12.000000000000
         C            1.049884034309    -1.194226505707    -0.019330075049    12.000000000000
         C            1.738686034309     0.011596494293    -0.146073075049    12.000000000000
         H           -2.790956965691    -0.906226505707     1.148004924951     1.007825032230
         H           -2.806460965691     0.850671494293     1.156983924951     1.007825032230
         H           -0.829408965691    -2.166734505707     0.330590924951     1.007825032230
         H           -0.877131965691     2.142463494293     0.334860924951     1.007825032230
         H           -3.021270965691     0.864073494293    -1.353103075049     1.007825032230
         H           -4.355578965691    -0.032614505707    -0.605652075049     1.007825032230
         H           -3.005820965691    -0.901314505707    -1.359004075049     1.007825032230
         H            2.809265034309     0.043578494293    -0.336580075049     1.007825032230
         H            1.160893034309     3.119119494293    -0.030300075049     1.007825032230
         H            2.623358034309    -2.257571505707    -0.297948075049     1.007825032230

  Basis Set: AUG-CC-PVTZ
    Blend: AUG-CC-PVTZ
  Basis Set: (AUG-CC-PVTZ AUX)
    Blend: AUG-CC-PVTZ-JKFIT
	 Reference Energy          =    -458.6579701959614113 [Eh]
	 Singles Energy            =      -0.0000000000000000 [Eh]
	 Same-Spin Energy          =      -0.4820476734156668 [Eh]
	 Opposite-Spin Energy      =      -1.5055819571518865 [Eh]
	 Correlation Energy        =      -1.9876296305675534 [Eh]
	 Total Energy              =    -460.6455998265289509 [Eh]

	 ================> DF-SCS-MP2 Energies <==================
	-----------------------------------------------------------
	 SCS Same-Spin Scale       =       0.3333333333333333 [-]
	 SCS Opposite-Spin Scale   =       1.2000000000000000 [-]
	 SCS Same-Spin Energy      =      -0.1606825578052223 [Eh]
	 SCS Opposite-Spin Energy  =      -1.8066983485822636 [Eh]
	 SCS Correlation Energy    =      -1.9673809063874859 [Eh]
	 SCS Total Energy          =    -460.6253511023488727 [Eh]
	-----------------------------------------------------------

  Dipole Moment: [D]
     X:    -0.4711      Y:     1.3716      Z:     0.0013     Total:     1.4503

*** Psi4 exiting successfully. Buy a developer a beer!
