                               Psi4 1.3.2 release

  ==> Input File <==

--------------------------------------------------------------------------
#psi4
#
memory 32 gb

molecule  {
0 1
  O        1.7627890     2.3683800    -0.1458810
  O        1.6754140    -2.4069960    -0.1279020
  C       -1.0215720    -0.0077180     0.3641480
  C       -2.5139530    -0.0194410     0.5634370
  C       -0.3230660    -1.2073880     0.2343750
  C       -0.3370590     1.2052280     0.2348720
  C       -3.2735700    -0.0197480    -0.7643280
  C        1.0346870     1.2106680    -0.0181020
  C        1.0480560    -1.1910380    -0.0190010
  C        1.8376976    -0.1569571    -0.1640748
  H       -2.7927850    -0.9030380     1.1483340
  H       -2.8082890     0.8538600     1.1573130
  H       -0.8312370    -2.1635460     0.3309200
  H       -0.8789600     2.1456520     0.3351900
  H       -3.0230990     0.8672620    -1.3527740
  H       -4.3574070    -0.0294260    -0.6053230
  H       -3.0076490    -0.8981260    -1.3586750
  H        2.8074370     0.0467670    -0.3362510
  H        1.1590650     3.1223080    -0.0299710
  H        2.6215300    -2.2543830    -0.2976190
units angstrom
no_reorient  #important for SAPT in psi4, default
symmetry c1  #important for SAPT in psi4, default
}

set PROPERTIES_ORIGIN ["COM"]
properties('MP2/aug-cc-pvtz', properties = ['dipole'])
--------------------------------------------------------------------------

    Molecular point group: c1
  Charge       = 0
  Multiplicity = 1
  Basis Set: AUG-CC-PVTZ
    Blend: AUG-CC-PVTZ
  Basis Set: (AUG-CC-PVTZ AUX)
    Blend: AUG-CC-PVTZ-JKFIT

    Orbital Energies [Eh]
    ---------------------

    Doubly Occupied:

       1A    -20.603409     2A    -20.578228     3A    -11.329783
       4A    -11.297500     5A    -11.254886     6A    -11.233473
       7A    -11.225199     8A    -11.223775     9A    -11.220892
      10A    -11.215846    11A     -1.408830    12A     -1.396393
      13A     -1.144830    14A     -1.061382    15A     -1.003090
      16A     -0.984544    17A     -0.880874    18A     -0.833895
      19A     -0.809414    20A     -0.737596    21A     -0.703060
      22A     -0.677194    23A     -0.663525    24A     -0.613088
      25A     -0.603719    26A     -0.595732    27A     -0.585217
      28A     -0.575645    29A     -0.564151    30A     -0.544059
      31A     -0.526789    32A     -0.499551    33A     -0.488696
      34A     -0.478158    35A     -0.449191    36A     -0.335955
      37A     -0.301959

  @DF-RHF Final Energy:  -458.61853034323457

   => Energetics <=

    Nuclear Repulsion Energy =            505.9181534479225206
    One-Electron Energy =               -1627.7743111190413856
    Two-Electron Energy =                 663.2376273278841836
    Total Energy =                       -458.6185303432346245
  Basis Set: (AUG-CC-PVTZ AUX)
    Blend: AUG-CC-PVTZ-RI
    Molecular point group: c1

    Geometry (in Angstrom), charge = 0, multiplicity = 1:

       Center              X                  Y                   Z               Mass
    ------------   -----------------  -----------------  -----------------  -----------------
         O            1.754024703304     2.383306679265    -0.144287788588    15.994914619570
         O            1.666649703304    -2.392069320735    -0.126308788588    15.994914619570
         C           -1.030336296696     0.007208679265     0.365741211412    12.000000000000
         C           -2.522717296696    -0.004514320735     0.565030211412    12.000000000000
         C           -0.331830296696    -1.192461320735     0.235968211412    12.000000000000
         C           -0.345823296696     1.220154679265     0.236465211412    12.000000000000
         C           -3.282334296696    -0.004821320735    -0.762734788588    12.000000000000
         C            1.025922703304     1.225594679265    -0.016508788588    12.000000000000
         C            1.039291703304    -1.176111320735    -0.017407788588    12.000000000000
         C            1.828933303304    -0.142030420735    -0.162481588588    12.000000000000
         H           -2.801549296696    -0.888111320735     1.149927211412     1.007825032230
         H           -2.817053296696     0.868786679265     1.158906211412     1.007825032230
         H           -0.840001296696    -2.148619320735     0.332513211412     1.007825032230
         H           -0.887724296696     2.160578679265     0.336783211412     1.007825032230
         H           -3.031863296696     0.882188679265    -1.351180788588     1.007825032230
         H           -4.366171296696    -0.014499320735    -0.603729788588     1.007825032230
         H           -3.016413296696    -0.883199320735    -1.357081788588     1.007825032230
         H            2.798672703304     0.061693679265    -0.334657788588     1.007825032230
         H            1.150300703304     3.137234679265    -0.028377788588     1.007825032230
         H            2.612765703304    -2.239456320735    -0.296025788588     1.007825032230

  Basis Set: AUG-CC-PVTZ
    Blend: AUG-CC-PVTZ
  Basis Set: (AUG-CC-PVTZ AUX)
    Blend: AUG-CC-PVTZ-JKFIT
	 Reference Energy          =    -458.6185303432345677 [Eh]
	 Singles Energy            =      -0.0000000000000000 [Eh]
	 Same-Spin Energy          =      -0.4809078799525515 [Eh]
	 Opposite-Spin Energy      =      -1.5066257370667655 [Eh]
	 Correlation Energy        =      -1.9875336170193170 [Eh]
	 Total Energy              =    -460.6060639602538913 [Eh]

	 ================> DF-SCS-MP2 Energies <==================
	-----------------------------------------------------------
	 SCS Same-Spin Scale       =       0.3333333333333333 [-]
	 SCS Opposite-Spin Scale   =       1.2000000000000000 [-]
	 SCS Same-Spin Energy      =      -0.1603026266508505 [Eh]
	 SCS Opposite-Spin Energy  =      -1.8079508844801184 [Eh]
	 SCS Correlation Energy    =      -1.9682535111309689 [Eh]
	 SCS Total Energy          =    -460.5867838543655353 [Eh]
	-----------------------------------------------------------

  Dipole Moment: [D]
     X:    -0.5973      Y:     1.5761      Z:     0.0204     Total:     1.6856

*** Psi4 exiting successfully. Buy a developer a beer!
