                               Psi4 1.3.2 release

  ==> Input File <==

--------------------------------------------------------------------------
#psi4
#
memory 32 gb

molecule  {
0 1
  O        1.7627890     2.3683800    -0.1458810
  O        1.6754140    -2.4069960    -0.1279020
  C       -1.0215720    -0.0077180     0.3641480
  C       -2.5139530    -0.0194410     0.5634370
  C       -0.3230660    -1.2073880     0.2343750
  C       -0.3370590     1.2052280     0.2348720
  C       -3.2735700    -0.0197480    -0.7643280
  C        1.0346870     1.2106680    -0.0181020
  C        1.0070280    -1.1658616    -0.0117931
  C        1.7368580     0.0147850    -0.1457440
  H       -2.7927850    -0.9030380     1.1483340
  H       -2.8082890     0.8538600     1.1573130
  H       -0.8312370    -2.1635460     0.3309200
  H       -0.8789600     2.1456520     0.3351900
  H       -3.0230990     0.8672620    -1.3527740
  H       -4.3574070    -0.0294260    -0.6053230
  H       -3.0076490    -0.8981260    -1.3586750
  H        2.8056629     0.0846969    -0.3360690
  H        1.1590650     3.1223080    -0.0299710
  H        2.6215300    -2.2543830    -0.2976190
units angstrom
no_reorient  #important for SAPT in psi4, default
symmetry c1  #important for SAPT in psi4, default
}

set PROPERTIES_ORIGIN ["COM"]
properties('MP2/aug-cc-pvtz', properties = ['dipole'])
--------------------------------------------------------------------------

    Molecular point group: c1
  Charge       = 0
  Multiplicity = 1
  Basis Set: AUG-CC-PVTZ
    Blend: AUG-CC-PVTZ
  Basis Set: (AUG-CC-PVTZ AUX)
    Blend: AUG-CC-PVTZ-JKFIT

    Orbital Energies [Eh]
    ---------------------

    Doubly Occupied:

       1A    -20.596591     2A    -20.583653     3A    -11.310463
       4A    -11.305463     5A    -11.253767     6A    -11.233610
       7A    -11.225237     8A    -11.225184     9A    -11.221133
      10A    -11.214655    11A     -1.405884    12A     -1.379787
      13A     -1.156288    14A     -1.065850    15A     -1.008886
      16A     -0.989244    17A     -0.879003    18A     -0.835107
      19A     -0.805665    20A     -0.736575    21A     -0.687534
      22A     -0.673482    23A     -0.664851    24A     -0.612376
      25A     -0.601838    26A     -0.594348    27A     -0.585049
      28A     -0.567917    29A     -0.556331    30A     -0.549249
      31A     -0.524812    32A     -0.519364    33A     -0.489226
      34A     -0.485884    35A     -0.456831    36A     -0.326166
      37A     -0.318430

  @DF-RHF Final Energy:  -458.65641642831309

   => Energetics <=

    Nuclear Repulsion Energy =            507.8769967439262132
    One-Electron Energy =               -1631.7753545902214682
    Two-Electron Energy =                 665.2419414179821615
    Total Energy =                       -458.6564164283131504
  Basis Set: (AUG-CC-PVTZ AUX)
    Blend: AUG-CC-PVTZ-RI
    Molecular point group: c1

    Geometry (in Angstrom), charge = 0, multiplicity = 1:

       Center              X                  Y                   Z               Mass
    ------------   -----------------  -----------------  -----------------  -----------------
         O            1.766367883478     2.365914906233    -0.146508778589    15.994914619570
         O            1.678992883478    -2.409461093767    -0.128529778589    15.994914619570
         C           -1.017993116522    -0.010183093767     0.363520221411    12.000000000000
         C           -2.510374116522    -0.021906093767     0.562809221411    12.000000000000
         C           -0.319487116522    -1.209853093767     0.233747221411    12.000000000000
         C           -0.333480116522     1.202762906233     0.234244221411    12.000000000000
         C           -3.269991116522    -0.022213093767    -0.764955778589    12.000000000000
         C            1.038265883478     1.208202906233    -0.018729778589    12.000000000000
         C            1.010606883478    -1.168326693767    -0.012420878589    12.000000000000
         C            1.740436883478     0.012319906233    -0.146371778589    12.000000000000
         H           -2.789206116522    -0.905503093767     1.147706221411     1.007825032230
         H           -2.804710116522     0.851394906233     1.156685221411     1.007825032230
         H           -0.827658116522    -2.166011093767     0.330292221411     1.007825032230
         H           -0.875381116522     2.143186906233     0.334562221411     1.007825032230
         H           -3.019520116522     0.864796906233    -1.353401778589     1.007825032230
         H           -4.353828116522    -0.031891093767    -0.605950778589     1.007825032230
         H           -3.004070116522    -0.900591093767    -1.359302778589     1.007825032230
         H            2.809241783478     0.082231806233    -0.336696778589     1.007825032230
         H            1.162643883478     3.119842906233    -0.030598778589     1.007825032230
         H            2.625108883478    -2.256848093767    -0.298246778589     1.007825032230

  Basis Set: AUG-CC-PVTZ
    Blend: AUG-CC-PVTZ
  Basis Set: (AUG-CC-PVTZ AUX)
    Blend: AUG-CC-PVTZ-JKFIT
	 Reference Energy          =    -458.6564164283130935 [Eh]
	 Singles Energy            =      -0.0000000000000000 [Eh]
	 Same-Spin Energy          =      -0.4818578545055815 [Eh]
	 Opposite-Spin Energy      =      -1.5057119993252195 [Eh]
	 Correlation Energy        =      -1.9875698538308009 [Eh]
	 Total Energy              =    -460.6439862821438851 [Eh]

	 ================> DF-SCS-MP2 Energies <==================
	-----------------------------------------------------------
	 SCS Same-Spin Scale       =       0.3333333333333333 [-]
	 SCS Opposite-Spin Scale   =       1.2000000000000000 [-]
	 SCS Same-Spin Energy      =      -0.1606192848351938 [Eh]
	 SCS Opposite-Spin Energy  =      -1.8068543991902632 [Eh]
	 SCS Correlation Energy    =      -1.9674736840254572 [Eh]
	 SCS Total Energy          =    -460.6238901123385290 [Eh]
	-----------------------------------------------------------

  Dipole Moment: [D]
     X:    -0.6946      Y:     1.4905      Z:     0.0385     Total:     1.6448

*** Psi4 exiting successfully. Buy a developer a beer!
