                               Psi4 1.3.2 release

  ==> Input File <==

--------------------------------------------------------------------------
#psi4
#
memory 32 gb

molecule  {
0 1
  O        1.7627890     2.3683800    -0.1458810
  O        1.6754140    -2.4069960    -0.1279020
  C       -1.0215720    -0.0077180     0.3641480
  C       -2.5139530    -0.0194410     0.5634370
  C       -0.3646399    -1.2314518     0.2421829
  C       -0.3790876     1.2288005     0.2427231
  C       -3.2735700    -0.0197480    -0.7643280
  C        1.0346870     1.2106680    -0.0181020
  C        1.0480560    -1.1910380    -0.0190010
  C        1.7368580     0.0147850    -0.1457440
  H       -2.7927850    -0.9030380     1.1483340
  H       -2.8082890     0.8538600     1.1573130
  H       -0.8312370    -2.1635460     0.3309200
  H       -0.8789600     2.1456520     0.3351900
  H       -3.0230990     0.8672620    -1.3527740
  H       -4.3574070    -0.0294260    -0.6053230
  H       -3.0076490    -0.8981260    -1.3586750
  H        2.8074370     0.0467670    -0.3362510
  H        1.1590650     3.1223080    -0.0299710
  H        2.6215300    -2.2543830    -0.2976190
units angstrom
no_reorient  #important for SAPT in psi4, default
symmetry c1  #important for SAPT in psi4, default
}

set PROPERTIES_ORIGIN ["COM"]
properties('MP2/aug-cc-pvtz', properties = ['dipole'])
--------------------------------------------------------------------------

    Molecular point group: c1
  Charge       = 0
  Multiplicity = 1
  Basis Set: AUG-CC-PVTZ
    Blend: AUG-CC-PVTZ
  Basis Set: (AUG-CC-PVTZ AUX)
    Blend: AUG-CC-PVTZ-JKFIT

    Orbital Energies [Eh]
    ---------------------

    Doubly Occupied:

       1A    -20.597913     2A    -20.595738     3A    -11.317852
       4A    -11.316050     5A    -11.251040     6A    -11.228468
       7A    -11.225074     8A    -11.222399     9A    -11.217900
      10A    -11.216027    11A     -1.407012    12A     -1.403672
      13A     -1.144240    14A     -1.062732    15A     -0.994733
      16A     -0.987431    17A     -0.873040    18A     -0.842244
      19A     -0.804429    20A     -0.737259    21A     -0.694033
      22A     -0.678017    23A     -0.666259    24A     -0.609905
      25A     -0.602227    26A     -0.595039    27A     -0.591092
      28A     -0.576889    29A     -0.555700    30A     -0.548186
      31A     -0.534775    32A     -0.520121    33A     -0.485621
      34A     -0.473747    35A     -0.449801    36A     -0.329242
      37A     -0.304293

  @DF-RHF Final Energy:  -458.65335310875633

   => Energetics <=

    Nuclear Repulsion Energy =            506.1708859015288340
    One-Electron Energy =               -1628.3280762299568778
    Two-Electron Energy =                 663.5038372196717091
    Total Energy =                       -458.6533531087562778
  Basis Set: (AUG-CC-PVTZ AUX)
    Blend: AUG-CC-PVTZ-RI
    Molecular point group: c1

    Geometry (in Angstrom), charge = 0, multiplicity = 1:

       Center              X                  Y                   Z               Mass
    ------------   -----------------  -----------------  -----------------  -----------------
         O            1.770055238435     2.368422648093    -0.147241965986    15.994914619570
         O            1.682680238435    -2.406953351907    -0.129262965986    15.994914619570
         C           -1.014305761565    -0.007675351907     0.362787034014    12.000000000000
         C           -2.506686761565    -0.019398351907     0.562076034014    12.000000000000
         C           -0.357373661565    -1.231409151907     0.240821934014    12.000000000000
         C           -0.371821361565     1.228843148093     0.241362134014    12.000000000000
         C           -3.266303761565    -0.019705351907    -0.765688965986    12.000000000000
         C            1.041953238435     1.210710648093    -0.019462965986    12.000000000000
         C            1.055322238435    -1.190995351907    -0.020361965986    12.000000000000
         C            1.744124238435     0.014827648093    -0.147104965986    12.000000000000
         H           -2.785518761565    -0.902995351907     1.146973034014     1.007825032230
         H           -2.801022761565     0.853902648093     1.155952034014     1.007825032230
         H           -0.823970761565    -2.163503351907     0.329559034014     1.007825032230
         H           -0.871693761565     2.145694648093     0.333829034014     1.007825032230
         H           -3.015832761565     0.867304648093    -1.354134965986     1.007825032230
         H           -4.350140761565    -0.029383351907    -0.606683965986     1.007825032230
         H           -3.000382761565    -0.898083351907    -1.360035965986     1.007825032230
         H            2.814703238435     0.046809648093    -0.337611965986     1.007825032230
         H            1.166331238435     3.122350648093    -0.031331965986     1.007825032230
         H            2.628796238435    -2.254340351907    -0.298979965986     1.007825032230

  Basis Set: AUG-CC-PVTZ
    Blend: AUG-CC-PVTZ
  Basis Set: (AUG-CC-PVTZ AUX)
    Blend: AUG-CC-PVTZ-JKFIT
	 Reference Energy          =    -458.6533531087563347 [Eh]
	 Singles Energy            =      -0.0000000000000000 [Eh]
	 Same-Spin Energy          =      -0.4814674211837143 [Eh]
	 Opposite-Spin Energy      =      -1.5055312719097502 [Eh]
	 Correlation Energy        =      -1.9869986930934647 [Eh]
	 Total Energy              =    -460.6403518018498175 [Eh]

	 ================> DF-SCS-MP2 Energies <==================
	-----------------------------------------------------------
	 SCS Same-Spin Scale       =       0.3333333333333333 [-]
	 SCS Opposite-Spin Scale   =       1.2000000000000000 [-]
	 SCS Same-Spin Energy      =      -0.1604891403945714 [Eh]
	 SCS Opposite-Spin Energy  =      -1.8066375262917003 [Eh]
	 SCS Correlation Energy    =      -1.9671266666862717 [Eh]
	 SCS Total Energy          =    -460.6204797754426181 [Eh]
	-----------------------------------------------------------

  Dipole Moment: [D]
     X:    -0.3589      Y:     1.2243      Z:    -0.0034     Total:     1.2758

*** Psi4 exiting successfully. Buy a developer a beer!
