                               Psi4 1.3.2 release

  ==> Input File <==

--------------------------------------------------------------------------
#psi4
#
memory 32 gb

molecule  {
0 1
  O        1.7627890     2.3683800    -0.1458810
  O        1.6754140    -2.4069960    -0.1279020
  C       -1.0319580    -0.0015929     0.3660479
  C       -2.5139530    -0.0194410     0.5634370
  C       -0.3230660    -1.2073880     0.2343750
  C       -0.3370590     1.2052280     0.2348720
  C       -3.2735700    -0.0197480    -0.7643280
  C        1.0345826     1.2228402    -0.0181133
  C        1.0480560    -1.1910380    -0.0190010
  C        1.7368580     0.0147850    -0.1457440
  H       -2.7927850    -0.9030380     1.1483340
  H       -2.8082890     0.8538600     1.1573130
  H       -0.8312370    -2.1635460     0.3309200
  H       -0.8789600     2.1456520     0.3351900
  H       -3.0230990     0.8672620    -1.3527740
  H       -4.3574070    -0.0294260    -0.6053230
  H       -3.0076490    -0.8981260    -1.3586750
  H        2.8074370     0.0467670    -0.3362510
  H        1.1590650     3.1223080    -0.0299710
  H        2.6215300    -2.2543830    -0.2976190
units angstrom
no_reorient  #important for SAPT in psi4, default
symmetry c1  #important for SAPT in psi4, default
}

set PROPERTIES_ORIGIN ["COM"]
properties('MP2/aug-cc-pvtz', properties = ['dipole'])
--------------------------------------------------------------------------

    Molecular point group: c1
  Charge       = 0
  Multiplicity = 1
  Basis Set: AUG-CC-PVTZ
    Blend: AUG-CC-PVTZ
  Basis Set: (AUG-CC-PVTZ AUX)
    Blend: AUG-CC-PVTZ-JKFIT

    Orbital Energies [Eh]
    ---------------------

    Doubly Occupied:

       1A    -20.598097     2A    -20.592589     3A    -11.311608
       4A    -11.307943     5A    -11.252163     6A    -11.231770
       7A    -11.224135     8A    -11.222737     9A    -11.219921
      10A    -11.216247    11A     -1.410780    12A     -1.401560
      13A     -1.148524    14A     -1.064177    15A     -1.000416
      16A     -0.986623    17A     -0.877597    18A     -0.836772
      19A     -0.808030    20A     -0.741470    21A     -0.686711
      22A     -0.675990    23A     -0.665745    24A     -0.613659
      25A     -0.603506    26A     -0.595737    27A     -0.588041
      28A     -0.577754    29A     -0.552035    30A     -0.548525
      31A     -0.522535    32A     -0.519760    33A     -0.487248
      34A     -0.485417    35A     -0.452411    36A     -0.324107
      37A     -0.310201

  @DF-RHF Final Energy:  -458.65950240030418

   => Energetics <=

    Nuclear Repulsion Energy =            507.3380123634317442
    One-Electron Energy =               -1630.6699518215364151
    Two-Electron Energy =                 664.6724370578004937
    Total Energy =                       -458.6595024003041772
  Basis Set: (AUG-CC-PVTZ AUX)
    Blend: AUG-CC-PVTZ-RI
    Molecular point group: c1

    Geometry (in Angstrom), charge = 0, multiplicity = 1:

       Center              X                  Y                   Z               Mass
    ------------   -----------------  -----------------  -----------------  -----------------
         O            1.763700799359     2.366789662390    -0.146045130334    15.994914619570
         O            1.676325799359    -2.408586337610    -0.128066130334    15.994914619570
         C           -1.031046200641    -0.003183237610     0.365883769666    12.000000000000
         C           -2.513041200641    -0.021031337610     0.563272869666    12.000000000000
         C           -0.322154200641    -1.208978337610     0.234210869666    12.000000000000
         C           -0.336147200641     1.203637662390     0.234707869666    12.000000000000
         C           -3.272658200641    -0.021338337610    -0.764492130334    12.000000000000
         C            1.035494399359     1.221249862390    -0.018277430334    12.000000000000
         C            1.048967799359    -1.192628337610    -0.019165130334    12.000000000000
         C            1.737769799359     0.013194662390    -0.145908130334    12.000000000000
         H           -2.791873200641    -0.904628337610     1.148169869666     1.007825032230
         H           -2.807377200641     0.852269662390     1.157148869666     1.007825032230
         H           -0.830325200641    -2.165136337610     0.330755869666     1.007825032230
         H           -0.878048200641     2.144061662390     0.335025869666     1.007825032230
         H           -3.022187200641     0.865671662390    -1.352938130334     1.007825032230
         H           -4.356495200641    -0.031016337610    -0.605487130334     1.007825032230
         H           -3.006737200641    -0.899716337610    -1.358839130334     1.007825032230
         H            2.808348799359     0.045176662390    -0.336415130334     1.007825032230
         H            1.159976799359     3.120717662390    -0.030135130334     1.007825032230
         H            2.622441799359    -2.255973337610    -0.297783130334     1.007825032230

  Basis Set: AUG-CC-PVTZ
    Blend: AUG-CC-PVTZ
  Basis Set: (AUG-CC-PVTZ AUX)
    Blend: AUG-CC-PVTZ-JKFIT
	 Reference Energy          =    -458.6595024003041772 [Eh]
	 Singles Energy            =      -0.0000000000000000 [Eh]
	 Same-Spin Energy          =      -0.4818750786345816 [Eh]
	 Opposite-Spin Energy      =      -1.5053651685133023 [Eh]
	 Correlation Energy        =      -1.9872402471478838 [Eh]
	 Total Energy              =    -460.6467426474520721 [Eh]

	 ================> DF-SCS-MP2 Energies <==================
	-----------------------------------------------------------
	 SCS Same-Spin Scale       =       0.3333333333333333 [-]
	 SCS Opposite-Spin Scale   =       1.2000000000000000 [-]
	 SCS Same-Spin Energy      =      -0.1606250262115272 [Eh]
	 SCS Opposite-Spin Energy  =      -1.8064382022159626 [Eh]
	 SCS Correlation Energy    =      -1.9670632284274898 [Eh]
	 SCS Total Energy          =    -460.6265656287316688 [Eh]
	-----------------------------------------------------------

  Dipole Moment: [D]
     X:    -0.4849      Y:     1.2966      Z:     0.0054     Total:     1.3843

*** Psi4 exiting successfully. Buy a developer a beer!
