                               Psi4 1.3.2 release

  ==> Input File <==

--------------------------------------------------------------------------
#psi4
#
memory 32 gb

molecule  {
0 1
  O        1.7627890     2.3683800    -0.1458810
  O        1.6754140    -2.4069960    -0.1279020
  C       -1.0215720    -0.0077180     0.3641480
  C       -2.5139530    -0.0194410     0.5634370
  C       -0.3203514    -1.2803395     0.2338402
  C       -0.3370590     1.2052280     0.2348720
  C       -3.2735700    -0.0197480    -0.7643280
  C        1.0346870     1.2106680    -0.0181020
  C        1.0480560    -1.1910380    -0.0190010
  C        1.7979682    -0.0235218    -0.1570546
  H       -2.7927850    -0.9030380     1.1483340
  H       -2.8082890     0.8538600     1.1573130
  H       -0.8312370    -2.1635460     0.3309200
  H       -0.8789600     2.1456520     0.3351900
  H       -3.0230990     0.8672620    -1.3527740
  H       -4.3574070    -0.0294260    -0.6053230
  H       -3.0076490    -0.8981260    -1.3586750
  H        2.8074370     0.0467670    -0.3362510
  H        1.1590650     3.1223080    -0.0299710
  H        2.6215300    -2.2543830    -0.2976190
units angstrom
no_reorient  #important for SAPT in psi4, default
symmetry c1  #important for SAPT in psi4, default
}

set PROPERTIES_ORIGIN ["COM"]
properties('MP2/aug-cc-pvtz', properties = ['dipole'])
--------------------------------------------------------------------------

    Molecular point group: c1
  Charge       = 0
  Multiplicity = 1
  Basis Set: AUG-CC-PVTZ
    Blend: AUG-CC-PVTZ
  Basis Set: (AUG-CC-PVTZ AUX)
    Blend: AUG-CC-PVTZ-JKFIT

    Orbital Energies [Eh]
    ---------------------

    Doubly Occupied:

       1A    -20.599238     2A    -20.585346     3A    -11.321297
       4A    -11.308531     5A    -11.261888     6A    -11.233208
       7A    -11.225185     8A    -11.223893     9A    -11.220851
      10A    -11.215674    11A     -1.407517    12A     -1.398129
      13A     -1.139813    14A     -1.059909    15A     -1.001193
      16A     -0.985252    17A     -0.879643    18A     -0.834568
      19A     -0.804744    20A     -0.739890    21A     -0.699275
      22A     -0.673835    23A     -0.662341    24A     -0.612260
      25A     -0.601905    26A     -0.596170    27A     -0.594497
      28A     -0.574692    29A     -0.558543    30A     -0.545790
      31A     -0.527653    32A     -0.519058    33A     -0.488512
      34A     -0.482157    35A     -0.446791    36A     -0.323701
      37A     -0.306801

  @DF-RHF Final Energy:  -458.64493451538459

   => Energetics <=

    Nuclear Repulsion Energy =            505.3604767004311498
    One-Electron Energy =               -1626.6913235777169575
    Two-Electron Energy =                 662.6859123619011598
    Total Energy =                       -458.6449345153845343
  Basis Set: (AUG-CC-PVTZ AUX)
    Blend: AUG-CC-PVTZ-RI
    Molecular point group: c1

    Geometry (in Angstrom), charge = 0, multiplicity = 1:

       Center              X                  Y                   Z               Mass
    ------------   -----------------  -----------------  -----------------  -----------------
         O            1.757241794476     2.378049811767    -0.144851458339    15.994914619570
         O            1.669866794476    -2.397326188233    -0.126872458339    15.994914619570
         C           -1.027119205524     0.001951811767     0.365177541661    12.000000000000
         C           -2.519500205524    -0.009771188233     0.564466541661    12.000000000000
         C           -0.325898605524    -1.270669688233     0.234869741661    12.000000000000
         C           -0.342606205524     1.214897811767     0.235901541661    12.000000000000
         C           -3.279117205524    -0.010078188233    -0.763298458339    12.000000000000
         C            1.029139794476     1.220337811767    -0.017072458339    12.000000000000
         C            1.042508794476    -1.181368188233    -0.017971458339    12.000000000000
         C            1.792420994476    -0.013851988233    -0.156025058339    12.000000000000
         H           -2.798332205524    -0.893368188233     1.149363541661     1.007825032230
         H           -2.813836205524     0.863529811767     1.158342541661     1.007825032230
         H           -0.836784205524    -2.153876188233     0.331949541661     1.007825032230
         H           -0.884507205524     2.155321811767     0.336219541661     1.007825032230
         H           -3.028646205524     0.876931811767    -1.351744458339     1.007825032230
         H           -4.362954205524    -0.019756188233    -0.604293458339     1.007825032230
         H           -3.013196205524    -0.888456188233    -1.357645458339     1.007825032230
         H            2.801889794476     0.056436811767    -0.335221458339     1.007825032230
         H            1.153517794476     3.131977811767    -0.028941458339     1.007825032230
         H            2.615982794476    -2.244713188233    -0.296589458339     1.007825032230

  Basis Set: AUG-CC-PVTZ
    Blend: AUG-CC-PVTZ
  Basis Set: (AUG-CC-PVTZ AUX)
    Blend: AUG-CC-PVTZ-JKFIT
	 Reference Energy          =    -458.6449345153845911 [Eh]
	 Singles Energy            =      -0.0000000000000000 [Eh]
	 Same-Spin Energy          =      -0.4814351391077935 [Eh]
	 Opposite-Spin Energy      =      -1.5058913145247723 [Eh]
	 Correlation Energy        =      -1.9873264536325657 [Eh]
	 Total Energy              =    -460.6322609690171817 [Eh]

	 ================> DF-SCS-MP2 Energies <==================
	-----------------------------------------------------------
	 SCS Same-Spin Scale       =       0.3333333333333333 [-]
	 SCS Opposite-Spin Scale   =       1.2000000000000000 [-]
	 SCS Same-Spin Energy      =      -0.1604783797025978 [Eh]
	 SCS Opposite-Spin Energy  =      -1.8070695774297267 [Eh]
	 SCS Correlation Energy    =      -1.9675479571323247 [Eh]
	 SCS Total Energy          =    -460.6124824725168878 [Eh]
	-----------------------------------------------------------

  Dipole Moment: [D]
     X:    -0.5484      Y:     1.3758      Z:     0.0168     Total:     1.4811

*** Psi4 exiting successfully. Buy a developer a beer!
