                               Psi4 1.3.2 release

  ==> Input File <==

--------------------------------------------------------------------------
#psi4
#
memory 32 gb

molecule  {
0 1
  O        1.7428210     2.3811043    -0.1421265
  O        1.6754140    -2.4069960    -0.1279020
  C       -1.0215720    -0.0077180     0.3641480
  C       -2.5139530    -0.0194410     0.5634370
  C       -0.3230660    -1.2073880     0.2343750
  C       -0.3369190     1.2295724     0.2349831
  C       -3.2735700    -0.0197480    -0.7643280
  C        1.0346870     1.2106680    -0.0181020
  C        1.0480560    -1.1910380    -0.0190010
  C        1.7368580     0.0147850    -0.1457440
  H       -2.7927850    -0.9030380     1.1483340
  H       -2.8082890     0.8538600     1.1573130
  H       -0.8312370    -2.1635460     0.3309200
  H       -0.8789600     2.1456520     0.3351900
  H       -3.0230990     0.8672620    -1.3527740
  H       -4.3574070    -0.0294260    -0.6053230
  H       -3.0076490    -0.8981260    -1.3586750
  H        2.8074370     0.0467670    -0.3362510
  H        1.1590650     3.1223080    -0.0299710
  H        2.6215300    -2.2543830    -0.2976190
units angstrom
no_reorient  #important for SAPT in psi4, default
symmetry c1  #important for SAPT in psi4, default
}

set PROPERTIES_ORIGIN ["COM"]
properties('MP2/aug-cc-pvtz', properties = ['dipole'])
--------------------------------------------------------------------------

    Molecular point group: c1
  Charge       = 0
  Multiplicity = 1
  Basis Set: AUG-CC-PVTZ
    Blend: AUG-CC-PVTZ
  Basis Set: (AUG-CC-PVTZ AUX)
    Blend: AUG-CC-PVTZ-JKFIT

    Orbital Energies [Eh]
    ---------------------

    Doubly Occupied:

       1A    -20.594205     2A    -20.591443     3A    -11.311038
       4A    -11.310055     5A    -11.253851     6A    -11.231980
       7A    -11.224675     8A    -11.221883     9A    -11.219751
      10A    -11.216527    11A     -1.408082    12A     -1.402965
      13A     -1.148392    14A     -1.064035    15A     -1.002403
      16A     -0.987104    17A     -0.877081    18A     -0.839338
      19A     -0.808524    20A     -0.738793    21A     -0.689695
      22A     -0.678290    23A     -0.668798    24A     -0.611106
      25A     -0.602354    26A     -0.595644    27A     -0.587429
      28A     -0.576616    29A     -0.553040    30A     -0.548387
      31A     -0.527089    32A     -0.520933    33A     -0.487824
      34A     -0.481168    35A     -0.452595    36A     -0.324995
      37A     -0.311653

  @DF-RHF Final Energy:  -458.66050073687882

   => Energetics <=

    Nuclear Repulsion Energy =            507.2465400675327487
    One-Electron Energy =               -1630.4746001158282525
    Two-Electron Energy =                 664.5675593114166304
    Total Energy =                       -458.6605007368788165
  Basis Set: (AUG-CC-PVTZ AUX)
    Blend: AUG-CC-PVTZ-RI
    Molecular point group: c1

    Geometry (in Angstrom), charge = 0, multiplicity = 1:

       Center              X                  Y                   Z               Mass
    ------------   -----------------  -----------------  -----------------  -----------------
         O            1.745122125956     2.377514301839    -0.142571092748    15.994914619570
         O            1.677715125956    -2.410585998161    -0.128346592748    15.994914619570
         C           -1.019270874044    -0.011307998161     0.363703407252    12.000000000000
         C           -2.511651874044    -0.023030998161     0.562992407252    12.000000000000
         C           -0.320764874044    -1.210977998161     0.233930407252    12.000000000000
         C           -0.334617874044     1.225982401839     0.234538507252    12.000000000000
         C           -3.271268874044    -0.023337998161    -0.764772592748    12.000000000000
         C            1.036988125956     1.207078001839    -0.018546592748    12.000000000000
         C            1.050357125956    -1.194627998161    -0.019445592748    12.000000000000
         C            1.739159125956     0.011195001839    -0.146188592748    12.000000000000
         H           -2.790483874044    -0.906627998161     1.147889407252     1.007825032230
         H           -2.805987874044     0.850270001839     1.156868407252     1.007825032230
         H           -0.828935874044    -2.167135998161     0.330475407252     1.007825032230
         H           -0.876658874044     2.142062001839     0.334745407252     1.007825032230
         H           -3.020797874044     0.863672001839    -1.353218592748     1.007825032230
         H           -4.355105874044    -0.033015998161    -0.605767592748     1.007825032230
         H           -3.005347874044    -0.901715998161    -1.359119592748     1.007825032230
         H            2.809738125956     0.043177001839    -0.336695592748     1.007825032230
         H            1.161366125956     3.118718001839    -0.030415592748     1.007825032230
         H            2.623831125956    -2.257972998161    -0.298063592748     1.007825032230

  Basis Set: AUG-CC-PVTZ
    Blend: AUG-CC-PVTZ
  Basis Set: (AUG-CC-PVTZ AUX)
    Blend: AUG-CC-PVTZ-JKFIT
	 Reference Energy          =    -458.6605007368788165 [Eh]
	 Singles Energy            =      -0.0000000000000000 [Eh]
	 Same-Spin Energy          =      -0.4812451450408727 [Eh]
	 Opposite-Spin Energy      =      -1.5043056052163539 [Eh]
	 Correlation Energy        =      -1.9855507502572267 [Eh]
	 Total Energy              =    -460.6460514871360488 [Eh]

	 ================> DF-SCS-MP2 Energies <==================
	-----------------------------------------------------------
	 SCS Same-Spin Scale       =       0.3333333333333333 [-]
	 SCS Opposite-Spin Scale   =       1.2000000000000000 [-]
	 SCS Same-Spin Energy      =      -0.1604150483469576 [Eh]
	 SCS Opposite-Spin Energy  =      -1.8051667262596247 [Eh]
	 SCS Correlation Energy    =      -1.9655817746065822 [Eh]
	 SCS Total Energy          =    -460.6260825114853787 [Eh]
	-----------------------------------------------------------

  Dipole Moment: [D]
     X:    -0.4867      Y:     1.1729      Z:     0.0079     Total:     1.2699

*** Psi4 exiting successfully. Buy a developer a beer!
