                               Psi4 1.3.2 release

  ==> Input File <==

--------------------------------------------------------------------------
#psi4
#
memory 32 gb

molecule  {
0 1
  O        1.7022441     2.4054796    -0.1345054
  O        1.6754140    -2.4069960    -0.1279020
  C       -1.0215720    -0.0077180     0.3641480
  C       -2.5139530    -0.0194410     0.5634370
  C       -0.3230660    -1.2073880     0.2343750
  C       -0.3353858     1.2782366     0.2349741
  C       -3.2735700    -0.0197480    -0.7643280
  C        1.0346870     1.2106680    -0.0181020
  C        1.0480560    -1.1910380    -0.0190010
  C        1.7368580     0.0147850    -0.1457440
  H       -2.7927850    -0.9030380     1.1483340
  H       -2.8082890     0.8538600     1.1573130
  H       -0.8312370    -2.1635460     0.3309200
  H       -0.8789600     2.1456520     0.3351900
  H       -3.0230990     0.8672620    -1.3527740
  H       -4.3574070    -0.0294260    -0.6053230
  H       -3.0076490    -0.8981260    -1.3586750
  H        2.8074370     0.0467670    -0.3362510
  H        1.1590650     3.1223080    -0.0299710
  H        2.6215300    -2.2543830    -0.2976190
units angstrom
no_reorient  #important for SAPT in psi4, default
symmetry c1  #important for SAPT in psi4, default
}

set PROPERTIES_ORIGIN ["COM"]
properties('MP2/aug-cc-pvtz', properties = ['dipole'])
--------------------------------------------------------------------------

    Molecular point group: c1
  Charge       = 0
  Multiplicity = 1
  Basis Set: AUG-CC-PVTZ
    Blend: AUG-CC-PVTZ
  Basis Set: (AUG-CC-PVTZ AUX)
    Blend: AUG-CC-PVTZ-JKFIT

    Orbital Energies [Eh]
    ---------------------

    Doubly Occupied:

       1A    -20.596071     2A    -20.582520     3A    -11.312692
       4A    -11.312558     5A    -11.258542     6A    -11.231782
       7A    -11.226262     8A    -11.220465     9A    -11.219812
      10A    -11.217790    11A     -1.414683    12A     -1.404908
      13A     -1.145004    14A     -1.064234    15A     -1.004900
      16A     -0.985428    17A     -0.878084    18A     -0.845507
      19A     -0.810164    20A     -0.736798    21A     -0.695349
      22A     -0.683786    23A     -0.673544    24A     -0.609487
      25A     -0.602910    26A     -0.596294    27A     -0.587555
      28A     -0.576934    29A     -0.554611    30A     -0.546086
      31A     -0.533051    32A     -0.519782    33A     -0.488306
      34A     -0.475815    35A     -0.450234    36A     -0.323932
      37A     -0.311683

  @DF-RHF Final Energy:  -458.65163757450682

   => Energetics <=

    Nuclear Repulsion Energy =            506.7916904923930588
    One-Electron Energy =               -1629.4915336548688174
    Two-Electron Energy =                 664.0482055879688232
    Total Energy =                       -458.6516375745068217
  Basis Set: (AUG-CC-PVTZ AUX)
    Blend: AUG-CC-PVTZ-RI
    Molecular point group: c1

    Geometry (in Angstrom), charge = 0, multiplicity = 1:

       Center              X                  Y                   Z               Mass
    ------------   -----------------  -----------------  -----------------  -----------------
         O            1.709112723766     2.394836188440    -0.135832099925    15.994914619570
         O            1.682282623766    -2.417639411560    -0.129228699925    15.994914619570
         C           -1.014703376234    -0.018361411560     0.362821300075    12.000000000000
         C           -2.507084376234    -0.030084411560     0.562110300075    12.000000000000
         C           -0.316197376234    -1.218031411560     0.233048300075    12.000000000000
         C           -0.328517176234     1.267593188440     0.233647400075    12.000000000000
         C           -3.266701376234    -0.030391411560    -0.765654699925    12.000000000000
         C            1.041555623766     1.200024588440    -0.019428699925    12.000000000000
         C            1.054924623766    -1.201681411560    -0.020327699925    12.000000000000
         C            1.743726623766     0.004141588440    -0.147070699925    12.000000000000
         H           -2.785916376234    -0.913681411560     1.147007300075     1.007825032230
         H           -2.801420376234     0.843216588440     1.155986300075     1.007825032230
         H           -0.824368376234    -2.174189411560     0.329593300075     1.007825032230
         H           -0.872091376234     2.135008588440     0.333863300075     1.007825032230
         H           -3.016230376234     0.856618588440    -1.354100699925     1.007825032230
         H           -4.350538376234    -0.040069411560    -0.606649699925     1.007825032230
         H           -3.000780376234    -0.908769411560    -1.360001699925     1.007825032230
         H            2.814305623766     0.036123588440    -0.337577699925     1.007825032230
         H            1.165933623766     3.111664588440    -0.031297699925     1.007825032230
         H            2.628398623766    -2.265026411560    -0.298945699925     1.007825032230

  Basis Set: AUG-CC-PVTZ
    Blend: AUG-CC-PVTZ
  Basis Set: (AUG-CC-PVTZ AUX)
    Blend: AUG-CC-PVTZ-JKFIT
	 Reference Energy          =    -458.6516375745068217 [Eh]
	 Singles Energy            =      -0.0000000000000000 [Eh]
	 Same-Spin Energy          =      -0.4804281316955960 [Eh]
	 Opposite-Spin Energy      =      -1.5029645349074710 [Eh]
	 Correlation Energy        =      -1.9833926666030668 [Eh]
	 Total Energy              =    -460.6350302411099165 [Eh]

	 ================> DF-SCS-MP2 Energies <==================
	-----------------------------------------------------------
	 SCS Same-Spin Scale       =       0.3333333333333333 [-]
	 SCS Opposite-Spin Scale   =       1.2000000000000000 [-]
	 SCS Same-Spin Energy      =      -0.1601427105651986 [Eh]
	 SCS Opposite-Spin Energy  =      -1.8035574418889651 [Eh]
	 SCS Correlation Energy    =      -1.9637001524541637 [Eh]
	 SCS Total Energy          =    -460.6153377269610019 [Eh]
	-----------------------------------------------------------

  Dipole Moment: [D]
     X:    -0.4581      Y:     1.0636      Z:     0.0032     Total:     1.1580

*** Psi4 exiting successfully. Buy a developer a beer!
