                               Psi4 1.3.2 release

  ==> Input File <==

--------------------------------------------------------------------------
#psi4
#
memory 32 gb

molecule  {
0 1
  O        1.7627890     2.3683800    -0.1458810
  O        1.6754140    -2.4069960    -0.1279020
  C       -1.0215720    -0.0077180     0.3641480
  C       -2.5139530    -0.0194410     0.5634370
  C       -0.3230660    -1.2073880     0.2343750
  C       -0.3370590     1.2052280     0.2348720
  C       -3.2735700    -0.0197480    -0.7643280
  C        1.0345697     1.1863232    -0.0180902
  C        1.0480560    -1.1910380    -0.0190010
  C        1.7368580     0.0147850    -0.1457440
  H       -2.7927850    -0.9030380     1.1483340
  H       -2.8082890     0.8538600     1.1573130
  H       -0.8312370    -2.1635460     0.3309200
  H       -0.8950186     2.1358906     0.3381476
  H       -3.0230990     0.8672620    -1.3527740
  H       -4.3574070    -0.0294260    -0.6053230
  H       -3.0076490    -0.8981260    -1.3586750
  H        2.8074370     0.0467670    -0.3362510
  H        1.1590650     3.1223080    -0.0299710
  H        2.6215300    -2.2543830    -0.2976190
units angstrom
no_reorient  #important for SAPT in psi4, default
symmetry c1  #important for SAPT in psi4, default
}

set PROPERTIES_ORIGIN ["COM"]
properties('MP2/aug-cc-pvtz', properties = ['dipole'])
--------------------------------------------------------------------------

    Molecular point group: c1
  Charge       = 0
  Multiplicity = 1
  Basis Set: AUG-CC-PVTZ
    Blend: AUG-CC-PVTZ
  Basis Set: (AUG-CC-PVTZ AUX)
    Blend: AUG-CC-PVTZ-JKFIT

    Orbital Energies [Eh]
    ---------------------

    Doubly Occupied:

       1A    -20.594266     2A    -20.591082     3A    -11.309881
       4A    -11.308961     5A    -11.251360     6A    -11.232411
       7A    -11.223767     8A    -11.223325     9A    -11.220113
      10A    -11.216636    11A     -1.403689    12A     -1.393283
      13A     -1.152936    14A     -1.066585    15A     -1.001730
      16A     -0.990135    17A     -0.877131    18A     -0.836013
      19A     -0.807419    20A     -0.737832    21A     -0.688206
      22A     -0.672968    23A     -0.667268    24A     -0.611338
      25A     -0.600838    26A     -0.595250    27A     -0.585845
      28A     -0.572963    29A     -0.553055    30A     -0.550529
      31A     -0.526326    32A     -0.521109    33A     -0.488169
      34A     -0.482389    35A     -0.455343    36A     -0.328815
      37A     -0.312205

  @DF-RHF Final Energy:  -458.65919617329962

   => Energetics <=

    Nuclear Repulsion Energy =            507.6744979184318822
    One-Electron Energy =               -1631.3650512474953302
    Two-Electron Energy =                 665.0313571557638852
    Total Energy =                       -458.6591961732996197
  Basis Set: (AUG-CC-PVTZ AUX)
    Blend: AUG-CC-PVTZ-RI
    Molecular point group: c1

    Geometry (in Angstrom), charge = 0, multiplicity = 1:

       Center              X                  Y                   Z               Mass
    ------------   -----------------  -----------------  -----------------  -----------------
         O            1.762916454844     2.370567095848    -0.145903599744    15.994914619570
         O            1.675541454844    -2.404808904152    -0.127924599744    15.994914619570
         C           -1.021444545156    -0.005530904152     0.364125400256    12.000000000000
         C           -2.513825545156    -0.017253904152     0.563414400256    12.000000000000
         C           -0.322938545156    -1.205200904152     0.234352400256    12.000000000000
         C           -0.336931545156     1.207415095848     0.234849400256    12.000000000000
         C           -3.273442545156    -0.017560904152    -0.764350599744    12.000000000000
         C            1.034697154844     1.188510295848    -0.018112799744    12.000000000000
         C            1.048183454844    -1.188850904152    -0.019023599744    12.000000000000
         C            1.736985454844     0.016972095848    -0.145766599744    12.000000000000
         H           -2.792657545156    -0.900850904152     1.148311400256     1.007825032230
         H           -2.808161545156     0.856047095848     1.157290400256     1.007825032230
         H           -0.831109545156    -2.161358904152     0.330897400256     1.007825032230
         H           -0.894891145156     2.138077695848     0.338125000256     1.007825032230
         H           -3.022971545156     0.869449095848    -1.352796599744     1.007825032230
         H           -4.357279545156    -0.027238904152    -0.605345599744     1.007825032230
         H           -3.007521545156    -0.895938904152    -1.358697599744     1.007825032230
         H            2.807564454844     0.048954095848    -0.336273599744     1.007825032230
         H            1.159192454844     3.124495095848    -0.029993599744     1.007825032230
         H            2.621657454844    -2.252195904152    -0.297641599744     1.007825032230

  Basis Set: AUG-CC-PVTZ
    Blend: AUG-CC-PVTZ
  Basis Set: (AUG-CC-PVTZ AUX)
    Blend: AUG-CC-PVTZ-JKFIT
	 Reference Energy          =    -458.6591961732996197 [Eh]
	 Singles Energy            =      -0.0000000000000000 [Eh]
	 Same-Spin Energy          =      -0.4817542585160350 [Eh]
	 Opposite-Spin Energy      =      -1.5053747570087703 [Eh]
	 Correlation Energy        =      -1.9871290155248054 [Eh]
	 Total Energy              =    -460.6463251888244486 [Eh]

	 ================> DF-SCS-MP2 Energies <==================
	-----------------------------------------------------------
	 SCS Same-Spin Scale       =       0.3333333333333333 [-]
	 SCS Opposite-Spin Scale   =       1.2000000000000000 [-]
	 SCS Same-Spin Energy      =      -0.1605847528386783 [Eh]
	 SCS Opposite-Spin Energy  =      -1.8064497084105242 [Eh]
	 SCS Correlation Energy    =      -1.9670344612492026 [Eh]
	 SCS Total Energy          =    -460.6262306345488469 [Eh]
	-----------------------------------------------------------

  Dipole Moment: [D]
     X:    -0.5590      Y:     1.0820      Z:     0.0176     Total:     1.2180

*** Psi4 exiting successfully. Buy a developer a beer!
