                               Psi4 1.3.2 release

  ==> Input File <==

--------------------------------------------------------------------------
#psi4
#
memory 32 gb

molecule  {
0 1
  O        1.7627890     2.3683800    -0.1458810
  O        1.6754140    -2.4069960    -0.1279020
  C       -1.0215720    -0.0077180     0.3641480
  C       -2.5139530    -0.0194410     0.5634370
  C       -0.2823432    -1.1818626     0.2267252
  C       -0.2958644     1.1801777     0.2271784
  C       -3.2735700    -0.0197480    -0.7643280
  C        1.0346870     1.2106680    -0.0181020
  C        1.0480560    -1.1910380    -0.0190010
  C        1.7368580     0.0147850    -0.1457440
  H       -2.7927850    -0.9030380     1.1483340
  H       -2.8082890     0.8538600     1.1573130
  H       -0.8312370    -2.1635460     0.3309200
  H       -0.8789600     2.1456520     0.3351900
  H       -3.0230990     0.8672620    -1.3527740
  H       -4.3574070    -0.0294260    -0.6053230
  H       -3.0076490    -0.8981260    -1.3586750
  H        2.8074370     0.0467670    -0.3362510
  H        1.1590650     3.1223080    -0.0299710
  H        2.6215300    -2.2543830    -0.2976190
units angstrom
no_reorient  #important for SAPT in psi4, default
symmetry c1  #important for SAPT in psi4, default
}

set PROPERTIES_ORIGIN ["COM"]
properties('MP2/aug-cc-pvtz', properties = ['dipole'])
--------------------------------------------------------------------------

    Molecular point group: c1
  Charge       = 0
  Multiplicity = 1
  Basis Set: AUG-CC-PVTZ
    Blend: AUG-CC-PVTZ
  Basis Set: (AUG-CC-PVTZ AUX)
    Blend: AUG-CC-PVTZ-JKFIT

    Orbital Energies [Eh]
    ---------------------

    Doubly Occupied:

       1A    -20.593843     2A    -20.591287     3A    -11.303311
       4A    -11.301654     5A    -11.252266     6A    -11.235751
       7A    -11.223419     8A    -11.223387     9A    -11.221483
      10A    -11.216176    11A     -1.404076    12A     -1.400359
      13A     -1.157830    14A     -1.065835    15A     -1.009465
      16A     -0.988483    17A     -0.880592    18A     -0.831122
      19A     -0.812882    20A     -0.742456    21A     -0.686150
      22A     -0.677163    23A     -0.658267    24A     -0.614442
      25A     -0.603116    26A     -0.596384    27A     -0.585260
      28A     -0.576426    29A     -0.551174    30A     -0.549178
      31A     -0.524079    32A     -0.506931    33A     -0.491013
      34A     -0.486994    35A     -0.458568    36A     -0.323090
      37A     -0.318957

  @DF-RHF Final Energy:  -458.65341023853347

   => Energetics <=

    Nuclear Repulsion Energy =            508.9170226466363260
    One-Electron Energy =               -1633.8151235079189973
    Two-Electron Energy =                 666.2446906227492036
    Total Energy =                       -458.6534102385335245
  Basis Set: (AUG-CC-PVTZ AUX)
    Blend: AUG-CC-PVTZ-RI
    Molecular point group: c1

    Geometry (in Angstrom), charge = 0, multiplicity = 1:

       Center              X                  Y                   Z               Mass
    ------------   -----------------  -----------------  -----------------  -----------------
         O            1.755669300670     2.368338654747    -0.144547434410    15.994914619570
         O            1.668294300670    -2.407037345253    -0.126568434410    15.994914619570
         C           -1.028691699330    -0.007759345253     0.365481565590    12.000000000000
         C           -2.521072699330    -0.019482345253     0.564770565590    12.000000000000
         C           -0.289462899330    -1.181903945253     0.228058765590    12.000000000000
         C           -0.302984099330     1.180136354747     0.228511965590    12.000000000000
         C           -3.280689699330    -0.019789345253    -0.762994434410    12.000000000000
         C            1.027567300670     1.210626654747    -0.016768434410    12.000000000000
         C            1.040936300670    -1.191079345253    -0.017667434410    12.000000000000
         C            1.729738300670     0.014743654747    -0.144410434410    12.000000000000
         H           -2.799904699330    -0.903079345253     1.149667565590     1.007825032230
         H           -2.815408699330     0.853818654747     1.158646565590     1.007825032230
         H           -0.838356699330    -2.163587345253     0.332253565590     1.007825032230
         H           -0.886079699330     2.145610654747     0.336523565590     1.007825032230
         H           -3.030218699330     0.867220654747    -1.351440434410     1.007825032230
         H           -4.364526699330    -0.029467345253    -0.603989434410     1.007825032230
         H           -3.014768699330    -0.898167345253    -1.357341434410     1.007825032230
         H            2.800317300670     0.046725654747    -0.334917434410     1.007825032230
         H            1.151945300670     3.122266654747    -0.028637434410     1.007825032230
         H            2.614410300670    -2.254424345253    -0.296285434410     1.007825032230

  Basis Set: AUG-CC-PVTZ
    Blend: AUG-CC-PVTZ
  Basis Set: (AUG-CC-PVTZ AUX)
    Blend: AUG-CC-PVTZ-JKFIT
	 Reference Energy          =    -458.6534102385334677 [Eh]
	 Singles Energy            =      -0.0000000000000000 [Eh]
	 Same-Spin Energy          =      -0.4822764720902856 [Eh]
	 Opposite-Spin Energy      =      -1.5056280280289154 [Eh]
	 Correlation Energy        =      -1.9879045001192011 [Eh]
	 Total Energy              =    -460.6413147386526816 [Eh]

	 ================> DF-SCS-MP2 Energies <==================
	-----------------------------------------------------------
	 SCS Same-Spin Scale       =       0.3333333333333333 [-]
	 SCS Opposite-Spin Scale   =       1.2000000000000000 [-]
	 SCS Same-Spin Energy      =      -0.1607588240300952 [Eh]
	 SCS Opposite-Spin Energy  =      -1.8067536336346983 [Eh]
	 SCS Correlation Energy    =      -1.9675124576647935 [Eh]
	 SCS Total Energy          =    -460.6209226961982495 [Eh]
	-----------------------------------------------------------

  Dipole Moment: [D]
     X:    -0.6253      Y:     1.2164      Z:     0.0195     Total:     1.3679

*** Psi4 exiting successfully. Buy a developer a beer!
