                               Psi4 1.3.2 release

  ==> Input File <==

--------------------------------------------------------------------------
#psi4
#
memory 32 gb

molecule  {
0 1
  O        1.7627890     2.3683800    -0.1458810
  O        1.6754140    -2.4069960    -0.1279020
  C       -1.0215720    -0.0077180     0.3641480
  C       -2.5139530    -0.0194410     0.5634370
  C       -0.3230660    -1.2073880     0.2343750
  C       -0.3370590     1.2052280     0.2348720
  C       -3.2735700    -0.0197480    -0.7643280
  C        1.0446429     1.2042615    -0.0199784
  C        1.0480560    -1.1910380    -0.0190010
  C        1.7368580     0.0147850    -0.1457440
  H       -2.7927850    -0.9030380     1.1483340
  H       -2.8082890     0.8538600     1.1573130
  H       -0.8312370    -2.1635460     0.3309200
  H       -0.8789600     2.1456520     0.3351900
  H       -3.0230990     0.8672620    -1.3527740
  H       -4.3574070    -0.0294260    -0.6053230
  H       -3.0076490    -0.8981260    -1.3586750
  H        2.8074370     0.0467670    -0.3362510
  H        1.1655634     3.1276437    -0.0311405
  H        2.6215300    -2.2543830    -0.2976190
units angstrom
no_reorient  #important for SAPT in psi4, default
symmetry c1  #important for SAPT in psi4, default
}

set PROPERTIES_ORIGIN ["COM"]
properties('MP2/aug-cc-pvtz', properties = ['dipole'])
--------------------------------------------------------------------------

    Molecular point group: c1
  Charge       = 0
  Multiplicity = 1
  Basis Set: AUG-CC-PVTZ
    Blend: AUG-CC-PVTZ
  Basis Set: (AUG-CC-PVTZ AUX)
    Blend: AUG-CC-PVTZ-JKFIT

    Orbital Energies [Eh]
    ---------------------

    Doubly Occupied:

       1A    -20.595082     2A    -20.593619     3A    -11.310615
       4A    -11.309148     5A    -11.250989     6A    -11.231865
       7A    -11.223413     8A    -11.223256     9A    -11.219555
      10A    -11.215637    11A     -1.404840    12A     -1.401860
      13A     -1.150280    14A     -1.064869    15A     -1.000185
      16A     -0.988447    17A     -0.876085    18A     -0.837654
      19A     -0.807865    20A     -0.739258    21A     -0.688134
      22A     -0.676484    23A     -0.666018    24A     -0.611443
      25A     -0.602137    26A     -0.595294    27A     -0.587094
      28A     -0.576319    29A     -0.552717    30A     -0.548527
      31A     -0.524261    32A     -0.521120    33A     -0.487585
      34A     -0.481606    35A     -0.453829    36A     -0.327266
      37A     -0.310036

  @DF-RHF Final Energy:  -458.66008656400567

   => Energetics <=

    Nuclear Repulsion Energy =            507.4888403616027404
    One-Electron Energy =               -1630.9890663330534153
    Two-Electron Energy =                 664.8401394074448945
    Total Energy =                       -458.6600865640057236
  Basis Set: (AUG-CC-PVTZ AUX)
    Blend: AUG-CC-PVTZ-RI
    Molecular point group: c1

    Geometry (in Angstrom), charge = 0, multiplicity = 1:

       Center              X                  Y                   Z               Mass
    ------------   -----------------  -----------------  -----------------  -----------------
         O            1.761876301973     2.368897811854    -0.145709363721    15.994914619570
         O            1.674501301973    -2.406478188146    -0.127730363721    15.994914619570
         C           -1.022484698027    -0.007200188146     0.364319636279    12.000000000000
         C           -2.514865698027    -0.018923188146     0.563608636279    12.000000000000
         C           -0.323978698027    -1.206870188146     0.234546636279    12.000000000000
         C           -0.337971698027     1.205745811854     0.235043636279    12.000000000000
         C           -3.274482698027    -0.019230188146    -0.764156363721    12.000000000000
         C            1.043730201973     1.204779311854    -0.019806763721    12.000000000000
         C            1.047143301973    -1.190520188146    -0.018829363721    12.000000000000
         C            1.735945301973     0.015302811854    -0.145572363721    12.000000000000
         H           -2.793697698027    -0.902520188146     1.148505636279     1.007825032230
         H           -2.809201698027     0.854377811854     1.157484636279     1.007825032230
         H           -0.832149698027    -2.163028188146     0.331091636279     1.007825032230
         H           -0.879872698027     2.146169811854     0.335361636279     1.007825032230
         H           -3.024011698027     0.867779811854    -1.352602363721     1.007825032230
         H           -4.358319698027    -0.028908188146    -0.605151363721     1.007825032230
         H           -3.008561698027    -0.897608188146    -1.358503363721     1.007825032230
         H            2.806524301973     0.047284811854    -0.336079363721     1.007825032230
         H            1.164650701973     3.128161511854    -0.030968863721     1.007825032230
         H            2.620617301973    -2.253865188146    -0.297447363721     1.007825032230

  Basis Set: AUG-CC-PVTZ
    Blend: AUG-CC-PVTZ
  Basis Set: (AUG-CC-PVTZ AUX)
    Blend: AUG-CC-PVTZ-JKFIT
	 Reference Energy          =    -458.6600865640056668 [Eh]
	 Singles Energy            =      -0.0000000000000000 [Eh]
	 Same-Spin Energy          =      -0.4816915863813854 [Eh]
	 Opposite-Spin Energy      =      -1.5050989660985383 [Eh]
	 Correlation Energy        =      -1.9867905524799236 [Eh]
	 Total Energy              =    -460.6468771164855980 [Eh]

	 ================> DF-SCS-MP2 Energies <==================
	-----------------------------------------------------------
	 SCS Same-Spin Scale       =       0.3333333333333333 [-]
	 SCS Opposite-Spin Scale   =       1.2000000000000000 [-]
	 SCS Same-Spin Energy      =      -0.1605638621271285 [Eh]
	 SCS Opposite-Spin Energy  =      -1.8061187593182459 [Eh]
	 SCS Correlation Energy    =      -1.9666826214453743 [Eh]
	 SCS Total Energy          =    -460.6267691854510531 [Eh]
	-----------------------------------------------------------

  Dipole Moment: [D]
     X:    -0.4784      Y:     1.2247      Z:     0.0062     Total:     1.3149

*** Psi4 exiting successfully. Buy a developer a beer!
