                               Psi4 1.3.2 release

  ==> Input File <==

--------------------------------------------------------------------------
#psi4
#
memory 32 gb

molecule  {
0 1
  O        1.7627890     2.3683800    -0.1458810
  O        1.6754140    -2.4069960    -0.1279020
  C       -1.0215720    -0.0077180     0.3641480
  C       -2.5139530    -0.0194410     0.5634370
  C       -0.3230660    -1.2073880     0.2343750
  C       -0.3370590     1.2052280     0.2348720
  C       -3.2735700    -0.0197480    -0.7643280
  C        1.0762141     1.2348463    -0.0254409
  C        1.0480560    -1.1910380    -0.0190010
  C        1.7368580     0.0147850    -0.1457440
  H       -2.7927850    -0.9030380     1.1483340
  H       -2.8082890     0.8538600     1.1573130
  H       -0.8312370    -2.1635460     0.3309200
  H       -0.8789600     2.1456520     0.3351900
  H       -3.0230990     0.8672620    -1.3527740
  H       -4.3574070    -0.0294260    -0.6053230
  H       -3.0076490    -0.8981260    -1.3586750
  H        2.8057004     0.0846970    -0.3358579
  H        1.1590650     3.1223080    -0.0299710
  H        2.6215300    -2.2543830    -0.2976190
units angstrom
no_reorient  #important for SAPT in psi4, default
symmetry c1  #important for SAPT in psi4, default
}

set PROPERTIES_ORIGIN ["COM"]
properties('MP2/aug-cc-pvtz', properties = ['dipole'])
--------------------------------------------------------------------------

    Molecular point group: c1
  Charge       = 0
  Multiplicity = 1
  Basis Set: AUG-CC-PVTZ
    Blend: AUG-CC-PVTZ
  Basis Set: (AUG-CC-PVTZ AUX)
    Blend: AUG-CC-PVTZ-JKFIT

    Orbital Energies [Eh]
    ---------------------

    Doubly Occupied:

       1A    -20.603910     2A    -20.592561     3A    -11.314469
       4A    -11.308780     5A    -11.249535     6A    -11.230758
       7A    -11.223615     8A    -11.222119     9A    -11.218449
      10A    -11.213164    11A     -1.428140    12A     -1.401485
      13A     -1.145048    14A     -1.062458    15A     -0.996362
      16A     -0.985136    17A     -0.873549    18A     -0.843104
      19A     -0.807734    20A     -0.743040    21A     -0.691807
      22A     -0.680105    23A     -0.664950    24A     -0.613511
      25A     -0.608690    26A     -0.596358    27A     -0.588364
      28A     -0.580812    29A     -0.552753    30A     -0.543812
      31A     -0.521698    32A     -0.518285    33A     -0.486437
      34A     -0.478137    35A     -0.450585    36A     -0.325697
      37A     -0.304157

  @DF-RHF Final Energy:  -458.65724650135832

   => Energetics <=

    Nuclear Repulsion Energy =            507.2095808670195538
    One-Electron Energy =               -1630.3945047101403816
    Two-Electron Energy =                 664.5276773417626828
    Total Energy =                       -458.6572465013582587
  Basis Set: (AUG-CC-PVTZ AUX)
    Blend: AUG-CC-PVTZ-RI
    Molecular point group: c1

    Geometry (in Angstrom), charge = 0, multiplicity = 1:

       Center              X                  Y                   Z               Mass
    ------------   -----------------  -----------------  -----------------  -----------------
         O            1.759192445125     2.366001654012    -0.145246004103    15.994914619570
         O            1.671817445125    -2.409374345988    -0.127267004103    15.994914619570
         C           -1.025168554875    -0.010096345988     0.364782995897    12.000000000000
         C           -2.517549554875    -0.021819345988     0.564071995897    12.000000000000
         C           -0.326662554875    -1.209766345988     0.235009995897    12.000000000000
         C           -0.340655554875     1.202849654012     0.235506995897    12.000000000000
         C           -3.277166554875    -0.022126345988    -0.763693004103    12.000000000000
         C            1.072617545125     1.232467954012    -0.024805904103    12.000000000000
         C            1.044459445125    -1.193416345988    -0.018366004103    12.000000000000
         C            1.733261445125     0.012406654012    -0.145109004103    12.000000000000
         H           -2.796381554875    -0.905416345988     1.148968995897     1.007825032230
         H           -2.811885554875     0.851481654012     1.157947995897     1.007825032230
         H           -0.834833554875    -2.165924345988     0.331554995897     1.007825032230
         H           -0.882556554875     2.143273654012     0.335824995897     1.007825032230
         H           -3.026695554875     0.864883654012    -1.352139004103     1.007825032230
         H           -4.361003554875    -0.031804345988    -0.604688004103     1.007825032230
         H           -3.011245554875    -0.900504345988    -1.358040004103     1.007825032230
         H            2.802103845125     0.082318654012    -0.335222904103     1.007825032230
         H            1.155468445125     3.119929654012    -0.029336004103     1.007825032230
         H            2.617933445125    -2.256761345988    -0.296984004103     1.007825032230

  Basis Set: AUG-CC-PVTZ
    Blend: AUG-CC-PVTZ
  Basis Set: (AUG-CC-PVTZ AUX)
    Blend: AUG-CC-PVTZ-JKFIT
	 Reference Energy          =    -458.6572465013583155 [Eh]
	 Singles Energy            =      -0.0000000000000000 [Eh]
	 Same-Spin Energy          =      -0.4817210997259386 [Eh]
	 Opposite-Spin Energy      =      -1.5048079666358685 [Eh]
	 Correlation Energy        =      -1.9865290663618071 [Eh]
	 Total Energy              =    -460.6437755677201267 [Eh]

	 ================> DF-SCS-MP2 Energies <==================
	-----------------------------------------------------------
	 SCS Same-Spin Scale       =       0.3333333333333333 [-]
	 SCS Opposite-Spin Scale   =       1.2000000000000000 [-]
	 SCS Same-Spin Energy      =      -0.1605736999086462 [Eh]
	 SCS Opposite-Spin Energy  =      -1.8057695599630421 [Eh]
	 SCS Correlation Energy    =      -1.9663432598716883 [Eh]
	 SCS Total Energy          =    -460.6235897612299937 [Eh]
	-----------------------------------------------------------

  Dipole Moment: [D]
     X:    -0.3199      Y:     1.4955      Z:    -0.0171     Total:     1.5294

*** Psi4 exiting successfully. Buy a developer a beer!
