                               Psi4 1.4a3.dev225

  ==> Input File <==

--------------------------------------------------------------------------
#psi4
#
memory 32 gb

molecule  {
0 1
  O       -1.8116000     2.3801270     0.1363720
  O       -1.7799440    -2.3994320     0.1189850
  C        0.9489570    -0.0306590    -0.3689570
  C        2.4429910    -0.0568610    -0.5708560
  C        0.2354480    -1.2220220    -0.2373930
  C        0.2798030     1.1938580    -0.2383990
  C        3.1984060    -0.0265600     0.7613490
  C       -1.0921630     1.2139390     0.0079710
  C       -1.1396310    -1.1871160     0.0102260
  C       -1.8132500     0.0254130     0.1385790
  H        2.7055191    -0.9172902    -1.1046123
  H        2.7446220     0.7994920    -1.1857830
  H        0.7258350    -2.1872220    -0.3369480
  H        0.8309290     2.1284970    -0.3452230
  H        2.9508560     0.8787730     1.3230630
  H        4.2811760    -0.0477390     0.6027570
  H        2.9230980    -0.8883860     1.3756490
  H       -2.8837580     0.0741080     0.3259950
  H       -1.1979550     3.1274200     0.0245130
  H       -2.7238770    -2.2320380     0.2881370
units angstrom
no_reorient  #important for SAPT in psi4, default
symmetry c1  #important for SAPT in psi4, default
}

set PROPERTIES_ORIGIN ["COM"]
properties('MP2/aug-cc-pvtz', properties = ['dipole'])
--------------------------------------------------------------------------

    Molecular point group: c1
  Charge       = 0
  Multiplicity = 1
  Basis Set: AUG-CC-PVTZ
    Blend: AUG-CC-PVTZ
  Basis Set: (AUG-CC-PVTZ AUX)
    Blend: AUG-CC-PVTZ-JKFIT

    Orbital Energies [Eh]
    ---------------------

    Doubly Occupied:

       1A    -20.595549     2A    -20.593336     3A    -11.310978
       4A    -11.309222     5A    -11.251952     6A    -11.226442
       7A    -11.224437     8A    -11.223048     9A    -11.219463
      10A    -11.216845    11A     -1.404144    12A     -1.400781
      13A     -1.149817    14A     -1.065000    15A     -1.000894
      16A     -0.988255    17A     -0.877629    18A     -0.835947
      19A     -0.809754    20A     -0.740672    21A     -0.686975
      22A     -0.674179    23A     -0.665535    24A     -0.614808
      25A     -0.602568    26A     -0.595170    27A     -0.587653
      28A     -0.575707    29A     -0.553233    30A     -0.548223
      31A     -0.523403    32A     -0.522417    33A     -0.491673
      34A     -0.482872    35A     -0.453690    36A     -0.325851
      37A     -0.311455

  @DF-RHF Final Energy:  -458.65883175088601

   => Energetics <=

    Nuclear Repulsion Energy =            507.3317401030948304
    One-Electron Energy =               -1630.6619892750522922
    Two-Electron Energy =                 664.6714174210712827
    Total Energy =                       -458.6588317508860655
  Basis Set: (AUG-CC-PVTZ AUX)
    Blend: AUG-CC-PVTZ-RI
    Molecular point group: c1

    Geometry (in Angstrom), charge = 0, multiplicity = 1:

       Center              X                  Y                   Z               Mass
    ------------   -----------------  -----------------  -----------------  -----------------
         O           -1.737127876911     2.384816764783     0.142964601262    15.994914619570
         O           -1.705471876911    -2.394742235217     0.125577601262    15.994914619570
         C            1.023429123089    -0.025969235217    -0.362364398738    12.000000000000
         C            2.517463123089    -0.052171235217    -0.564263398738    12.000000000000
         C            0.309920123089    -1.217332235217    -0.230800398738    12.000000000000
         C            0.354275123089     1.198547764783    -0.231806398738    12.000000000000
         C            3.272878123089    -0.021870235217     0.767941601262    12.000000000000
         C           -1.017690876911     1.218628764783     0.014563601262    12.000000000000
         C           -1.065158876911    -1.182426235217     0.016818601262    12.000000000000
         C           -1.738777876911     0.030102764783     0.145171601262    12.000000000000
         H            2.779991223089    -0.912600435217    -1.098019698738     1.007825032230
         H            2.819094123089     0.804181764783    -1.179190398738     1.007825032230
         H            0.800307123089    -2.182532235217    -0.330355398738     1.007825032230
         H            0.905401123089     2.133186764783    -0.338630398738     1.007825032230
         H            3.025328123089     0.883462764783     1.329655601262     1.007825032230
         H            4.355648123089    -0.043049235217     0.609349601262     1.007825032230
         H            2.997570123089    -0.883696235217     1.382241601262     1.007825032230
         H           -2.809285876911     0.078797764783     0.332587601262     1.007825032230
         H           -1.123482876911     3.132109764783     0.031105601262     1.007825032230
         H           -2.649404876911    -2.227348235217     0.294729601262     1.007825032230

  Basis Set: AUG-CC-PVTZ
    Blend: AUG-CC-PVTZ
  Basis Set: (AUG-CC-PVTZ AUX)
    Blend: AUG-CC-PVTZ-JKFIT
	 Reference Energy          =    -458.6588317508860086 [Eh]
	 Singles Energy            =      -0.0000000000000000 [Eh]
	 Same-Spin Energy          =      -0.4816996388730291 [Eh]
	 Opposite-Spin Energy      =      -1.5051515168415128 [Eh]
	 Correlation Energy        =      -1.9868511557145419 [Eh]
	 Total Energy              =    -460.6456829066005412 [Eh]

	 ================> DF-SCS-MP2 Energies <==================
	-----------------------------------------------------------
	 SCS Same-Spin Scale       =       0.3333333333333333 [-]
	 SCS Opposite-Spin Scale   =       1.2000000000000000 [-]
	 SCS Same-Spin Energy      =      -0.1605665462910097 [Eh]
	 SCS Opposite-Spin Energy  =      -1.8061818202098152 [Eh]
	 SCS Correlation Energy    =      -1.9667483665008250 [Eh]
	 SCS Total Energy          =    -460.6255801173868463 [Eh]
	-----------------------------------------------------------

  Dipole Moment: [D]
     X:     0.5431      Y:     1.2052      Z:    -0.0368     Total:     1.3224

*** Psi4 exiting successfully. Buy a developer a beer!
