                               Psi4 1.4a3.dev225

  ==> Input File <==

--------------------------------------------------------------------------
#psi4
#
memory 32 gb

molecule  {
0 1
  O       -1.8116000     2.3801270     0.1363720
  O       -1.7799440    -2.3994320     0.1189850
  C        0.9489570    -0.0306590    -0.3689570
  C        2.4429910    -0.0568610    -0.5708560
  C        0.2354480    -1.2220220    -0.2373930
  C        0.2798030     1.1938580    -0.2383990
  C        3.1984060    -0.0265600     0.7613490
  C       -1.0921630     1.2139390     0.0079710
  C       -1.1396310    -1.1871160     0.0102260
  C       -1.8132500     0.0254130     0.1385790
  H        2.7180680    -0.9584190    -1.1301260
  H        2.7446220     0.7994920    -1.1857830
  H        0.7258350    -2.1872220    -0.3369480
  H        0.8309290     2.1284970    -0.3452230
  H        2.9508560     0.8787730     1.3230630
  H        4.2811760    -0.0477390     0.6027570
  H        2.9230980    -0.8883860     1.3756490
  H       -2.8640774     0.0732128     0.3225495
  H       -1.1979550     3.1274200     0.0245130
  H       -2.7238770    -2.2320380     0.2881370
units angstrom
no_reorient  #important for SAPT in psi4, default
symmetry c1  #important for SAPT in psi4, default
}

set PROPERTIES_ORIGIN ["COM"]
properties('MP2/aug-cc-pvtz', properties = ['dipole'])
--------------------------------------------------------------------------

    Molecular point group: c1
  Charge       = 0
  Multiplicity = 1
  Basis Set: AUG-CC-PVTZ
    Blend: AUG-CC-PVTZ
  Basis Set: (AUG-CC-PVTZ AUX)
    Blend: AUG-CC-PVTZ-JKFIT

    Orbital Energies [Eh]
    ---------------------

    Doubly Occupied:

       1A    -20.595676     2A    -20.593453     3A    -11.310958
       4A    -11.309095     5A    -11.252288     6A    -11.232577
       7A    -11.223248     8A    -11.222249     9A    -11.219857
      10A    -11.216742    11A     -1.404276    12A     -1.400889
      13A     -1.149704    14A     -1.063773    15A     -1.000907
      16A     -0.988323    17A     -0.876810    18A     -0.836019
      19A     -0.807843    20A     -0.739297    21A     -0.688119
      22A     -0.675433    23A     -0.665926    24A     -0.611758
      25A     -0.602211    26A     -0.595670    27A     -0.587851
      28A     -0.575810    29A     -0.553705    30A     -0.549166
      31A     -0.523533    32A     -0.521558    33A     -0.488302
      34A     -0.482831    35A     -0.453662    36A     -0.325889
      37A     -0.311442

  @DF-RHF Final Energy:  -458.65979894410737

   => Energetics <=

    Nuclear Repulsion Energy =            507.1961523864349033
    One-Electron Energy =               -1630.3982033714546560
    Two-Electron Energy =                 664.5422520409123308
    Total Energy =                       -458.6597989441073651
  Basis Set: (AUG-CC-PVTZ AUX)
    Blend: AUG-CC-PVTZ-RI
    Molecular point group: c1

    Geometry (in Angstrom), charge = 0, multiplicity = 1:

       Center              X                  Y                   Z               Mass
    ------------   -----------------  -----------------  -----------------  -----------------
         O           -1.737363135466     2.385123518084     0.143175988331    15.994914619570
         O           -1.705707135466    -2.394435481916     0.125788988331    15.994914619570
         C            1.023193864534    -0.025662481916    -0.362153011669    12.000000000000
         C            2.517227864534    -0.051864481916    -0.564052011669    12.000000000000
         C            0.309684864534    -1.217025481916    -0.230589011669    12.000000000000
         C            0.354039864534     1.198854518084    -0.231595011669    12.000000000000
         C            3.272642864534    -0.021563481916     0.768152988331    12.000000000000
         C           -1.017926135466     1.218935518084     0.014774988331    12.000000000000
         C           -1.065394135466    -1.182119481916     0.017029988331    12.000000000000
         C           -1.739013135466     0.030409518084     0.145382988331    12.000000000000
         H            2.792304864534    -0.953422481916    -1.123322011669     1.007825032230
         H            2.818858864534     0.804488518084    -1.178979011669     1.007825032230
         H            0.800071864534    -2.182225481916    -0.330144011669     1.007825032230
         H            0.905165864534     2.133493518084    -0.338419011669     1.007825032230
         H            3.025092864534     0.883769518084     1.329866988331     1.007825032230
         H            4.355412864534    -0.042742481916     0.609560988331     1.007825032230
         H            2.997334864534    -0.883389481916     1.382452988331     1.007825032230
         H           -2.789840535466     0.078209318084     0.329353488331     1.007825032230
         H           -1.123718135466     3.132416518084     0.031316988331     1.007825032230
         H           -2.649640135466    -2.227041481916     0.294940988331     1.007825032230

  Basis Set: AUG-CC-PVTZ
    Blend: AUG-CC-PVTZ
  Basis Set: (AUG-CC-PVTZ AUX)
    Blend: AUG-CC-PVTZ-JKFIT
	 Reference Energy          =    -458.6597989441073651 [Eh]
	 Singles Energy            =      -0.0000000000000000 [Eh]
	 Same-Spin Energy          =      -0.4816894378852709 [Eh]
	 Opposite-Spin Energy      =      -1.5053641750123361 [Eh]
	 Correlation Energy        =      -1.9870536128976068 [Eh]
	 Total Energy              =    -460.6468525570049906 [Eh]

	 ================> DF-SCS-MP2 Energies <==================
	-----------------------------------------------------------
	 SCS Same-Spin Scale       =       0.3333333333333333 [-]
	 SCS Opposite-Spin Scale   =       1.2000000000000000 [-]
	 SCS Same-Spin Energy      =      -0.1605631459617569 [Eh]
	 SCS Opposite-Spin Energy  =      -1.8064370100148033 [Eh]
	 SCS Correlation Energy    =      -1.9670001559765602 [Eh]
	 SCS Total Energy          =    -460.6267991000839288 [Eh]
	-----------------------------------------------------------

  Dipole Moment: [D]
     X:     0.5248      Y:     1.2205      Z:    -0.0170     Total:     1.3286

*** Psi4 exiting successfully. Buy a developer a beer!
