                               Psi4 1.3.2 release

  ==> Input File <==

--------------------------------------------------------------------------
#psi4
#
memory 32 gb

molecule  {
0 1
  O        1.7627890     2.3683800    -0.1458810
  O        1.6754140    -2.4069960    -0.1279020
  C       -1.0215720    -0.0077180     0.3641480
  C       -2.5139530    -0.0194410     0.5634370
  C       -0.3230660    -1.2073880     0.2343750
  C       -0.3370590     1.2052280     0.2348720
  C       -3.2735700    -0.0197480    -0.7643280
  C        1.0346870     1.2106680    -0.0181020
  C        1.0452993    -1.1180867    -0.0186942
  C        1.7368580     0.0147850    -0.1457440
  H       -2.7927850    -0.9030380     1.1483340
  H       -2.8082890     0.8538600     1.1573130
  H       -0.8797628    -2.1351647     0.3398069
  H       -0.8789600     2.1456520     0.3351900
  H       -3.0230990     0.8672620    -1.3527740
  H       -4.3574070    -0.0294260    -0.6053230
  H       -3.0076490    -0.8981260    -1.3586750
  H        2.8074370     0.0467670    -0.3362510
  H        1.1590650     3.1223080    -0.0299710
  H        2.6215300    -2.2543830    -0.2976190
units angstrom
no_reorient  #important for SAPT in psi4, default
symmetry c1  #important for SAPT in psi4, default
}

set PROPERTIES_ORIGIN ["COM"]
properties('MP2/aug-cc-pvtz', properties = ['dipole'])
--------------------------------------------------------------------------

    Molecular point group: c1
  Charge       = 0
  Multiplicity = 1
  Basis Set: AUG-CC-PVTZ
    Blend: AUG-CC-PVTZ
  Basis Set: (AUG-CC-PVTZ AUX)
    Blend: AUG-CC-PVTZ-JKFIT

    Orbital Energies [Eh]
    ---------------------

    Doubly Occupied:

       1A    -20.598384     2A    -20.581530     3A    -11.313684
       4A    -11.303971     5A    -11.251098     6A    -11.233019
       7A    -11.225168     8A    -11.223103     9A    -11.220832
      10A    -11.218838    11A     -1.407639    12A     -1.370933
      13A     -1.158507    14A     -1.071878    15A     -1.001519
      16A     -0.994744    17A     -0.877115    18A     -0.843380
      19A     -0.800607    20A     -0.735242    21A     -0.692976
      22A     -0.672845    23A     -0.653341    24A     -0.612173
      25A     -0.603080    26A     -0.596550    27A     -0.582232
      28A     -0.564568    29A     -0.559268    30A     -0.548792
      31A     -0.527095    32A     -0.522113    33A     -0.488257
      34A     -0.483438    35A     -0.458162    36A     -0.336344
      37A     -0.313136

  @DF-RHF Final Energy:  -458.65188634525674

   => Energetics <=

    Nuclear Repulsion Energy =            508.0300146947629401
    One-Electron Energy =               -1632.0726812478440024
    Two-Electron Energy =                 665.3907802078242639
    Total Energy =                       -458.6518863452567984
  Basis Set: (AUG-CC-PVTZ AUX)
    Blend: AUG-CC-PVTZ-RI
    Molecular point group: c1

    Geometry (in Angstrom), charge = 0, multiplicity = 1:

       Center              X                  Y                   Z               Mass
    ------------   -----------------  -----------------  -----------------  -----------------
         O            1.763382848358     2.361832315357    -0.145972520070    15.994914619570
         O            1.676007848358    -2.413543684643    -0.127993520070    15.994914619570
         C           -1.020978151642    -0.014265684643     0.364056479930    12.000000000000
         C           -2.513359151642    -0.025988684643     0.563345479930    12.000000000000
         C           -0.322472151642    -1.213935684643     0.234283479930    12.000000000000
         C           -0.336465151642     1.198680315357     0.234780479930    12.000000000000
         C           -3.272976151642    -0.026295684643    -0.764419520070    12.000000000000
         C            1.035280848358     1.204120315357    -0.018193520070    12.000000000000
         C            1.045893148358    -1.124634384643    -0.018785720070    12.000000000000
         C            1.737451848358     0.008237315357    -0.145835520070    12.000000000000
         H           -2.792191151642    -0.909585684643     1.148242479930     1.007825032230
         H           -2.807695151642     0.847312315357     1.157221479930     1.007825032230
         H           -0.879168951642    -2.141712384643     0.339715379930     1.007825032230
         H           -0.878366151642     2.139104315357     0.335098479930     1.007825032230
         H           -3.022505151642     0.860714315357    -1.352865520070     1.007825032230
         H           -4.356813151642    -0.035973684643    -0.605414520070     1.007825032230
         H           -3.007055151642    -0.904673684643    -1.358766520070     1.007825032230
         H            2.808030848358     0.040219315357    -0.336342520070     1.007825032230
         H            1.159658848358     3.115760315357    -0.030062520070     1.007825032230
         H            2.622123848358    -2.260930684643    -0.297710520070     1.007825032230

  Basis Set: AUG-CC-PVTZ
    Blend: AUG-CC-PVTZ
  Basis Set: (AUG-CC-PVTZ AUX)
    Blend: AUG-CC-PVTZ-JKFIT
	 Reference Energy          =    -458.6518863452567416 [Eh]
	 Singles Energy            =      -0.0000000000000000 [Eh]
	 Same-Spin Energy          =      -0.4820036926631317 [Eh]
	 Opposite-Spin Energy      =      -1.5064458804572634 [Eh]
	 Correlation Energy        =      -1.9884495731203951 [Eh]
	 Total Energy              =    -460.6403359183771613 [Eh]

	 ================> DF-SCS-MP2 Energies <==================
	-----------------------------------------------------------
	 SCS Same-Spin Scale       =       0.3333333333333333 [-]
	 SCS Opposite-Spin Scale   =       1.2000000000000000 [-]
	 SCS Same-Spin Energy      =      -0.1606678975543772 [Eh]
	 SCS Opposite-Spin Energy  =      -1.8077350565487160 [Eh]
	 SCS Correlation Energy    =      -1.9684029541030932 [Eh]
	 SCS Total Energy          =    -460.6202892993598539 [Eh]
	-----------------------------------------------------------

  Dipole Moment: [D]
     X:    -0.7057      Y:     1.6309      Z:     0.0380     Total:     1.7774

*** Psi4 exiting successfully. Buy a developer a beer!
