                               Psi4 1.4a3.dev225

  ==> Input File <==

--------------------------------------------------------------------------
#psi4
#
memory 32 gb

molecule  {
0 1
  O       -1.8116000     2.3801270     0.1363720
  O       -1.7799440    -2.3994320     0.1189850
  C        0.9489570    -0.0306590    -0.3689570
  C        2.4429910    -0.0568610    -0.5708560
  C        0.2354480    -1.2220220    -0.2373930
  C        0.2798030     1.1938580    -0.2383990
  C        3.1984060    -0.0265600     0.7613490
  C       -1.0921630     1.2139390     0.0079710
  C       -1.1396310    -1.1871160     0.0102260
  C       -1.8132500     0.0254130     0.1385790
  H        2.7180680    -0.9584190    -1.1301260
  H        2.7446220     0.7994920    -1.1857830
  H        0.7258350    -2.1872220    -0.3369480
  H        0.8309290     2.1284970    -0.3452230
  H        2.9508560     0.8787730     1.3230630
  H        4.2811760    -0.0477390     0.6027570
  H        2.9230980    -0.8883860     1.3756490
  H       -2.8837580     0.0741080     0.3259950
  H       -1.1979550     3.1274200     0.0245130
  H       -2.6753941    -2.2406358     0.2794489
units angstrom
no_reorient  #important for SAPT in psi4, default
symmetry c1  #important for SAPT in psi4, default
}

set PROPERTIES_ORIGIN ["COM"]
properties('MP2/aug-cc-pvtz', properties = ['dipole'])
--------------------------------------------------------------------------

    Molecular point group: c1
  Charge       = 0
  Multiplicity = 1
  Basis Set: AUG-CC-PVTZ
    Blend: AUG-CC-PVTZ
  Basis Set: (AUG-CC-PVTZ AUX)
    Blend: AUG-CC-PVTZ-JKFIT

    Orbital Energies [Eh]
    ---------------------

    Doubly Occupied:

       1A    -20.595879     2A    -20.589082     3A    -11.311439
       4A    -11.309720     5A    -11.252547     6A    -11.232802
       7A    -11.225028     8A    -11.223761     9A    -11.220050
      10A    -11.217173    11A     -1.413231    12A     -1.403627
      13A     -1.150642    14A     -1.064157    15A     -1.002951
      16A     -0.988102    17A     -0.877382    18A     -0.837504
      19A     -0.811718    20A     -0.742783    21A     -0.687849
      22A     -0.677644    23A     -0.666920    24A     -0.612016
      25A     -0.602642    26A     -0.595820    27A     -0.588831
      28A     -0.576924    29A     -0.554958    30A     -0.548919
      31A     -0.524117    32A     -0.521952    33A     -0.488567
      34A     -0.483023    35A     -0.454321    36A     -0.326348
      37A     -0.311986

  @DF-RHF Final Energy:  -458.66039897218582

   => Energetics <=

    Nuclear Repulsion Energy =            507.3994249208345764
    One-Electron Energy =               -1630.7348127829607165
    Two-Electron Energy =                 664.6749888899402094
    Total Energy =                       -458.6603989721858170
  Basis Set: (AUG-CC-PVTZ AUX)
    Blend: AUG-CC-PVTZ-RI
    Molecular point group: c1

    Geometry (in Angstrom), charge = 0, multiplicity = 1:

       Center              X                  Y                   Z               Mass
    ------------   -----------------  -----------------  -----------------  -----------------
         O           -1.737573377247     2.385179743050     0.143214256579    15.994914619570
         O           -1.705917377247    -2.394379256950     0.125827256579    15.994914619570
         C            1.022983622753    -0.025606256950    -0.362114743421    12.000000000000
         C            2.517017622753    -0.051808256950    -0.564013743421    12.000000000000
         C            0.309474622753    -1.216969256950    -0.230550743421    12.000000000000
         C            0.353829622753     1.198910743050    -0.231556743421    12.000000000000
         C            3.272432622753    -0.021507256950     0.768191256579    12.000000000000
         C           -1.018136377247     1.218991743050     0.014813256579    12.000000000000
         C           -1.065604377247    -1.182063256950     0.017068256579    12.000000000000
         C           -1.739223377247     0.030465743050     0.145421256579    12.000000000000
         H            2.792094622753    -0.953366256950    -1.123283743421     1.007825032230
         H            2.818648622753     0.804544743050    -1.178940743421     1.007825032230
         H            0.799861622753    -2.182169256950    -0.330105743421     1.007825032230
         H            0.904955622753     2.133549743050    -0.338380743421     1.007825032230
         H            3.024882622753     0.883825743050     1.329905256579     1.007825032230
         H            4.355202622753    -0.042686256950     0.609599256579     1.007825032230
         H            2.997124622753    -0.883333256950     1.382491256579     1.007825032230
         H           -2.809731377247     0.079160743050     0.332837256579     1.007825032230
         H           -1.123928377247     3.132472743050     0.031355256579     1.007825032230
         H           -2.601367477247    -2.235583056950     0.286291156579     1.007825032230

  Basis Set: AUG-CC-PVTZ
    Blend: AUG-CC-PVTZ
  Basis Set: (AUG-CC-PVTZ AUX)
    Blend: AUG-CC-PVTZ-JKFIT
	 Reference Energy          =    -458.6603989721858170 [Eh]
	 Singles Energy            =      -0.0000000000000000 [Eh]
	 Same-Spin Energy          =      -0.4811094021244402 [Eh]
	 Opposite-Spin Energy      =      -1.5039617156025555 [Eh]
	 Correlation Energy        =      -1.9850711177269957 [Eh]
	 Total Energy              =    -460.6454700899128056 [Eh]

	 ================> DF-SCS-MP2 Energies <==================
	-----------------------------------------------------------
	 SCS Same-Spin Scale       =       0.3333333333333333 [-]
	 SCS Opposite-Spin Scale   =       1.2000000000000000 [-]
	 SCS Same-Spin Energy      =      -0.1603698007081467 [Eh]
	 SCS Opposite-Spin Energy  =      -1.8047540587230666 [Eh]
	 SCS Correlation Energy    =      -1.9651238594312133 [Eh]
	 SCS Total Energy          =    -460.6255228316170474 [Eh]
	-----------------------------------------------------------

  Dipole Moment: [D]
     X:     0.5836      Y:     1.2393      Z:    -0.0269     Total:     1.3701

*** Psi4 exiting successfully. Buy a developer a beer!
