                               Psi4 1.3.2 release

  ==> Input File <==

--------------------------------------------------------------------------
#psi4
#
memory 32 gb

molecule  {
0 1
  O        1.7627890     2.3683800    -0.1458810
  O        1.6754140    -2.4069960    -0.1279020
  C       -1.0215720    -0.0077180     0.3641480
  C       -2.5139453    -0.0063075     0.5638337
  C       -0.3126868    -1.2011532     0.2331753
  C       -0.3370590     1.2052280     0.2348720
  C       -3.2735700    -0.0197480    -0.7643280
  C        1.0346870     1.2106680    -0.0181020
  C        1.0480560    -1.1910380    -0.0190010
  C        1.7368580     0.0147850    -0.1457440
  H       -2.7927850    -0.9030380     1.1483340
  H       -2.8082890     0.8538600     1.1573130
  H       -0.8312370    -2.1635460     0.3309200
  H       -0.8789600     2.1456520     0.3351900
  H       -3.0230990     0.8672620    -1.3527740
  H       -4.3574070    -0.0294260    -0.6053230
  H       -3.0076490    -0.8981260    -1.3586750
  H        2.8074370     0.0467670    -0.3362510
  H        1.1590650     3.1223080    -0.0299710
  H        2.6215300    -2.2543830    -0.2976190
units angstrom
no_reorient  #important for SAPT in psi4, default
symmetry c1  #important for SAPT in psi4, default
}

set PROPERTIES_ORIGIN ["COM"]
properties('MP2/aug-cc-pvtz', properties = ['dipole'])
--------------------------------------------------------------------------

    Molecular point group: c1
  Charge       = 0
  Multiplicity = 1
  Basis Set: AUG-CC-PVTZ
    Blend: AUG-CC-PVTZ
  Basis Set: (AUG-CC-PVTZ AUX)
    Blend: AUG-CC-PVTZ-JKFIT

    Orbital Energies [Eh]
    ---------------------

    Doubly Occupied:

       1A    -20.595438     2A    -20.593044     3A    -11.310080
       4A    -11.307395     5A    -11.251519     6A    -11.232574
       7A    -11.223867     8A    -11.222784     9A    -11.219999
      10A    -11.215879    11A     -1.405180    12A     -1.401682
      13A     -1.151274    14A     -1.064203    15A     -1.002349
      16A     -0.988058    17A     -0.877026    18A     -0.836126
      19A     -0.808845    20A     -0.739440    21A     -0.687286
      22A     -0.675640    23A     -0.665980    24A     -0.611346
      25A     -0.602517    26A     -0.596345    27A     -0.586411
      28A     -0.576461    29A     -0.552895    30A     -0.549246
      31A     -0.523728    32A     -0.519176    33A     -0.489546
      34A     -0.482031    35A     -0.454441    36A     -0.325563
      37A     -0.312223

  @DF-RHF Final Energy:  -458.65980085101853

   => Energetics <=

    Nuclear Repulsion Energy =            507.6749442792304876
    One-Electron Energy =               -1631.3542956847588812
    Two-Electron Energy =                 665.0195505545099195
    Total Energy =                       -458.6598008510185309
  Basis Set: (AUG-CC-PVTZ AUX)
    Blend: AUG-CC-PVTZ-RI
    Molecular point group: c1

    Geometry (in Angstrom), charge = 0, multiplicity = 1:

       Center              X                  Y                   Z               Mass
    ------------   -----------------  -----------------  -----------------  -----------------
         O            1.761886277126     2.366696577877    -0.145811193568    15.994914619570
         O            1.674511277126    -2.408679422123    -0.127832193568    15.994914619570
         C           -1.022474722874    -0.009401422123     0.364217806432    12.000000000000
         C           -2.514848022874    -0.007990922123     0.563903506432    12.000000000000
         C           -0.313589522874    -1.202836622123     0.233245106432    12.000000000000
         C           -0.337961722874     1.203544577877     0.234941806432    12.000000000000
         C           -3.274472722874    -0.021431422123    -0.764258193568    12.000000000000
         C            1.033784277126     1.208984577877    -0.018032193568    12.000000000000
         C            1.047153277126    -1.192721422123    -0.018931193568    12.000000000000
         C            1.735955277126     0.013101577877    -0.145674193568    12.000000000000
         H           -2.793687722874    -0.904721422123     1.148403806432     1.007825032230
         H           -2.809191722874     0.852176577877     1.157382806432     1.007825032230
         H           -0.832139722874    -2.165229422123     0.330989806432     1.007825032230
         H           -0.879862722874     2.143968577877     0.335259806432     1.007825032230
         H           -3.024001722874     0.865578577877    -1.352704193568     1.007825032230
         H           -4.358309722874    -0.031109422123    -0.605253193568     1.007825032230
         H           -3.008551722874    -0.899809422123    -1.358605193568     1.007825032230
         H            2.806534277126     0.045083577877    -0.336181193568     1.007825032230
         H            1.158162277126     3.120624577877    -0.029901193568     1.007825032230
         H            2.620627277126    -2.256066422123    -0.297549193568     1.007825032230

  Basis Set: AUG-CC-PVTZ
    Blend: AUG-CC-PVTZ
  Basis Set: (AUG-CC-PVTZ AUX)
    Blend: AUG-CC-PVTZ-JKFIT
	 Reference Energy          =    -458.6598008510185309 [Eh]
	 Singles Energy            =      -0.0000000000000000 [Eh]
	 Same-Spin Energy          =      -0.4817938970585098 [Eh]
	 Opposite-Spin Energy      =      -1.5052359912856779 [Eh]
	 Correlation Energy        =      -1.9870298883441877 [Eh]
	 Total Energy              =    -460.6468307393627128 [Eh]

	 ================> DF-SCS-MP2 Energies <==================
	-----------------------------------------------------------
	 SCS Same-Spin Scale       =       0.3333333333333333 [-]
	 SCS Opposite-Spin Scale   =       1.2000000000000000 [-]
	 SCS Same-Spin Energy      =      -0.1605979656861699 [Eh]
	 SCS Opposite-Spin Energy  =      -1.8062831895428133 [Eh]
	 SCS Correlation Energy    =      -1.9668811552289833 [Eh]
	 SCS Total Energy          =    -460.6266820062475063 [Eh]
	-----------------------------------------------------------

  Dipole Moment: [D]
     X:    -0.5146      Y:     1.2391      Z:     0.0105     Total:     1.3418

*** Psi4 exiting successfully. Buy a developer a beer!
