                               Psi4 1.3.2 release

  ==> Input File <==

--------------------------------------------------------------------------
#psi4
#
memory 32 gb

molecule  {
0 1
  O        1.7627890     2.3683800    -0.1458810
  O        1.6754140    -2.4069960    -0.1279020
  C       -1.0215720    -0.0077180     0.3641480
  C       -2.5140365     0.0068249     0.5626245
  C       -0.3230660    -1.2073880     0.2343750
  C       -0.3582065     1.2171772     0.2373161
  C       -3.2735700    -0.0197480    -0.7643280
  C        1.0346870     1.2106680    -0.0181020
  C        1.0480560    -1.1910380    -0.0190010
  C        1.7368580     0.0147850    -0.1457440
  H       -2.7927850    -0.9030380     1.1483340
  H       -2.8082890     0.8538600     1.1573130
  H       -0.8312370    -2.1635460     0.3309200
  H       -0.8789600     2.1456520     0.3351900
  H       -3.0230990     0.8672620    -1.3527740
  H       -4.3574070    -0.0294260    -0.6053230
  H       -3.0076490    -0.8981260    -1.3586750
  H        2.8074370     0.0467670    -0.3362510
  H        1.1590650     3.1223080    -0.0299710
  H        2.6215300    -2.2543830    -0.2976190
units angstrom
no_reorient  #important for SAPT in psi4, default
symmetry c1  #important for SAPT in psi4, default
}

set PROPERTIES_ORIGIN ["COM"]
properties('MP2/aug-cc-pvtz', properties = ['dipole'])
--------------------------------------------------------------------------

    Molecular point group: c1
  Charge       = 0
  Multiplicity = 1
  Basis Set: AUG-CC-PVTZ
    Blend: AUG-CC-PVTZ
  Basis Set: (AUG-CC-PVTZ AUX)
    Blend: AUG-CC-PVTZ-JKFIT

    Orbital Energies [Eh]
    ---------------------

    Doubly Occupied:

       1A    -20.596204     2A    -20.593905     3A    -11.313260
       4A    -11.309662     5A    -11.251391     6A    -11.231336
       7A    -11.224223     8A    -11.222643     9A    -11.219327
      10A    -11.215808    11A     -1.405715    12A     -1.402349
      13A     -1.148822    14A     -1.063774    15A     -0.999720
      16A     -0.987969    17A     -0.875507    18A     -0.838377
      19A     -0.807479    20A     -0.737693    21A     -0.688948
      22A     -0.675532    23A     -0.668748    24A     -0.609721
      25A     -0.602664    26A     -0.596834    27A     -0.586735
      28A     -0.576582    29A     -0.554254    30A     -0.549246
      31A     -0.526730    32A     -0.520958    33A     -0.489547
      34A     -0.477318    35A     -0.452742    36A     -0.326806
      37A     -0.309461

  @DF-RHF Final Energy:  -458.65849910518364

   => Energetics <=

    Nuclear Repulsion Energy =            507.1762126208640780
    One-Electron Energy =               -1630.3534405618597702
    Two-Electron Energy =                 664.5187288358119986
    Total Energy =                       -458.6584991051836369
  Basis Set: (AUG-CC-PVTZ AUX)
    Blend: AUG-CC-PVTZ-RI
    Molecular point group: c1

    Geometry (in Angstrom), charge = 0, multiplicity = 1:

       Center              X                  Y                   Z               Mass
    ------------   -----------------  -----------------  -----------------  -----------------
         O            1.764634304050     2.365058533799    -0.146022793527    15.994914619570
         O            1.677259304050    -2.410317466201    -0.128043793527    15.994914619570
         C           -1.019726695950    -0.011039466201     0.364006206473    12.000000000000
         C           -2.512191195950     0.003503433799     0.562482706473    12.000000000000
         C           -0.321220695950    -1.210709466201     0.234233206473    12.000000000000
         C           -0.356361195950     1.213855733799     0.237174306473    12.000000000000
         C           -3.271724695950    -0.023069466201    -0.764469793527    12.000000000000
         C            1.036532304050     1.207346533799    -0.018243793527    12.000000000000
         C            1.049901304050    -1.194359466201    -0.019142793527    12.000000000000
         C            1.738703304050     0.011463533799    -0.145885793527    12.000000000000
         H           -2.790939695950    -0.906359466201     1.148192206473     1.007825032230
         H           -2.806443695950     0.850538533799     1.157171206473     1.007825032230
         H           -0.829391695950    -2.166867466201     0.330778206473     1.007825032230
         H           -0.877114695950     2.142330533799     0.335048206473     1.007825032230
         H           -3.021253695950     0.863940533799    -1.352915793527     1.007825032230
         H           -4.355561695950    -0.032747466201    -0.605464793527     1.007825032230
         H           -3.005803695950    -0.901447466201    -1.358816793527     1.007825032230
         H            2.809282304050     0.043445533799    -0.336392793527     1.007825032230
         H            1.160910304050     3.118986533799    -0.030112793527     1.007825032230
         H            2.623375304050    -2.257704466201    -0.297760793527     1.007825032230

  Basis Set: AUG-CC-PVTZ
    Blend: AUG-CC-PVTZ
  Basis Set: (AUG-CC-PVTZ AUX)
    Blend: AUG-CC-PVTZ-JKFIT
	 Reference Energy          =    -458.6584991051836369 [Eh]
	 Singles Energy            =      -0.0000000000000000 [Eh]
	 Same-Spin Energy          =      -0.4816806164314821 [Eh]
	 Opposite-Spin Energy      =      -1.5053015647249124 [Eh]
	 Correlation Energy        =      -1.9869821811563946 [Eh]
	 Total Energy              =    -460.6454812863400434 [Eh]

	 ================> DF-SCS-MP2 Energies <==================
	-----------------------------------------------------------
	 SCS Same-Spin Scale       =       0.3333333333333333 [-]
	 SCS Opposite-Spin Scale   =       1.2000000000000000 [-]
	 SCS Same-Spin Energy      =      -0.1605602054771607 [Eh]
	 SCS Opposite-Spin Energy  =      -1.8063618776698949 [Eh]
	 SCS Correlation Energy    =      -1.9669220831470555 [Eh]
	 SCS Total Energy          =    -460.6254211883306766 [Eh]
	-----------------------------------------------------------

  Dipole Moment: [D]
     X:    -0.4621      Y:     1.2574      Z:     0.0059     Total:     1.3396

*** Psi4 exiting successfully. Buy a developer a beer!
