                               Psi4 1.3.2 release

  ==> Input File <==

--------------------------------------------------------------------------
#psi4
#
memory 32 gb

molecule  {
0 1
  O        1.7627890     2.3683800    -0.1458810
  O        1.6754140    -2.4069960    -0.1279020
  C       -1.0215720    -0.0077180     0.3641480
  C       -2.5139530    -0.0194410     0.5634370
  C       -0.3230660    -1.2073880     0.2343750
  C       -0.3370590     1.2052280     0.2348720
  C       -3.2735700    -0.0197480    -0.7643280
  C        1.0346870     1.2106680    -0.0181020
  C        1.0480560    -1.1910380    -0.0190010
  C        1.6864382     0.1006561    -0.1365786
  H       -2.7927850    -0.9030380     1.1483340
  H       -2.8082890     0.8538600     1.1573130
  H       -0.8312370    -2.1635460     0.3309200
  H       -0.8789600     2.1456520     0.3351900
  H       -3.0230990     0.8672620    -1.3527740
  H       -4.3574070    -0.0294260    -0.6053230
  H       -3.0076490    -0.8981260    -1.3586750
  H        2.8074370     0.0467670    -0.3362510
  H        1.1590650     3.1223080    -0.0299710
  H        2.6215300    -2.2543830    -0.2976190
units angstrom
no_reorient  #important for SAPT in psi4, default
symmetry c1  #important for SAPT in psi4, default
}

set PROPERTIES_ORIGIN ["COM"]
properties('MP2/aug-cc-pvtz', properties = ['dipole'])
--------------------------------------------------------------------------

    Molecular point group: c1
  Charge       = 0
  Multiplicity = 1
  Basis Set: AUG-CC-PVTZ
    Blend: AUG-CC-PVTZ
  Basis Set: (AUG-CC-PVTZ AUX)
    Blend: AUG-CC-PVTZ-JKFIT

    Orbital Energies [Eh]
    ---------------------

    Doubly Occupied:

       1A    -20.600813     2A    -20.590514     3A    -11.315280
       4A    -11.294811     5A    -11.250124     6A    -11.231597
       7A    -11.223496     8A    -11.221970     9A    -11.219305
      10A    -11.216272    11A     -1.406967    12A     -1.401786
      13A     -1.155321    14A     -1.068781    15A     -1.006300
      16A     -0.986142    17A     -0.876909    18A     -0.835804
      19A     -0.806661    20A     -0.740976    21A     -0.693765
      22A     -0.671913    23A     -0.662314    24A     -0.611070
      25A     -0.603378    26A     -0.593691    27A     -0.590574
      28A     -0.578006    29A     -0.554382    30A     -0.543011
      31A     -0.527840    32A     -0.514699    33A     -0.487380
      34A     -0.478016    35A     -0.456959    36A     -0.332966
      37A     -0.308849

  @DF-RHF Final Energy:  -458.64505722066434

   => Energetics <=

    Nuclear Repulsion Energy =            508.5208988258930844
    One-Electron Energy =               -1633.0146217969754616
    Two-Electron Energy =                 665.8486657504181494
    Total Energy =                       -458.6450572206642846
  Basis Set: (AUG-CC-PVTZ AUX)
    Blend: AUG-CC-PVTZ-RI
    Molecular point group: c1

    Geometry (in Angstrom), charge = 0, multiplicity = 1:

       Center              X                  Y                   Z               Mass
    ------------   -----------------  -----------------  -----------------  -----------------
         O            1.767171209040     2.360916577151    -0.146677583543    15.994914619570
         O            1.679796209040    -2.414459422849    -0.128698583543    15.994914619570
         C           -1.017189790960    -0.015181422849     0.363351416457    12.000000000000
         C           -2.509570790960    -0.026904422849     0.562640416457    12.000000000000
         C           -0.318683790960    -1.214851422849     0.233578416457    12.000000000000
         C           -0.332676790960     1.197764577151     0.234075416457    12.000000000000
         C           -3.269187790960    -0.027211422849    -0.765124583543    12.000000000000
         C            1.039069209040     1.203204577151    -0.018898583543    12.000000000000
         C            1.052438209040    -1.198501422849    -0.019797583543    12.000000000000
         C            1.690820409040     0.093192677151    -0.137375183543    12.000000000000
         H           -2.788402790960    -0.910501422849     1.147537416457     1.007825032230
         H           -2.803906790960     0.846396577151     1.156516416457     1.007825032230
         H           -0.826854790960    -2.171009422849     0.330123416457     1.007825032230
         H           -0.874577790960     2.138188577151     0.334393416457     1.007825032230
         H           -3.018716790960     0.859798577151    -1.353570583543     1.007825032230
         H           -4.353024790960    -0.036889422849    -0.606119583543     1.007825032230
         H           -3.003266790960    -0.905589422849    -1.359471583543     1.007825032230
         H            2.811819209040     0.039303577151    -0.337047583543     1.007825032230
         H            1.163447209040     3.114844577151    -0.030767583543     1.007825032230
         H            2.625912209040    -2.261846422849    -0.298415583543     1.007825032230

  Basis Set: AUG-CC-PVTZ
    Blend: AUG-CC-PVTZ
  Basis Set: (AUG-CC-PVTZ AUX)
    Blend: AUG-CC-PVTZ-JKFIT
	 Reference Energy          =    -458.6450572206643415 [Eh]
	 Singles Energy            =      -0.0000000000000000 [Eh]
	 Same-Spin Energy          =      -0.4820533652018573 [Eh]
	 Opposite-Spin Energy      =      -1.5059745151926485 [Eh]
	 Correlation Energy        =      -1.9880278803945057 [Eh]
	 Total Energy              =    -460.6330851010588390 [Eh]

	 ================> DF-SCS-MP2 Energies <==================
	-----------------------------------------------------------
	 SCS Same-Spin Scale       =       0.3333333333333333 [-]
	 SCS Opposite-Spin Scale   =       1.2000000000000000 [-]
	 SCS Same-Spin Energy      =      -0.1606844550672858 [Eh]
	 SCS Opposite-Spin Energy  =      -1.8071694182311782 [Eh]
	 SCS Correlation Energy    =      -1.9678538732984638 [Eh]
	 SCS Total Energy          =    -460.6129110939627935 [Eh]
	-----------------------------------------------------------

  Dipole Moment: [D]
     X:    -0.4856      Y:     1.0115      Z:     0.0090     Total:     1.1220

*** Psi4 exiting successfully. Buy a developer a beer!
