                               Psi4 1.3.2 release

  ==> Input File <==

--------------------------------------------------------------------------
#psi4
#
memory 32 gb

molecule  {
0 1
  O        1.7627890     2.3683800    -0.1458810
  O        1.6754140    -2.4069960    -0.1279020
  C       -1.0340493    -0.0075012     0.2863141
  C       -2.5139530    -0.0194410     0.5634370
  C       -0.3230660    -1.2073880     0.2343750
  C       -0.3370590     1.2052280     0.2348720
  C       -3.2030416    -0.0190811    -0.8022624
  C        1.0346870     1.2106680    -0.0181020
  C        1.0480560    -1.1910380    -0.0190010
  C        1.7368580     0.0147850    -0.1457440
  H       -2.7927850    -0.9030380     1.1483340
  H       -2.8082890     0.8538600     1.1573130
  H       -0.8312370    -2.1635460     0.3309200
  H       -0.8789600     2.1456520     0.3351900
  H       -3.0230990     0.8672620    -1.3527740
  H       -4.3574070    -0.0294260    -0.6053230
  H       -3.0076490    -0.8981260    -1.3586750
  H        2.8074370     0.0467670    -0.3362510
  H        1.1590650     3.1223080    -0.0299710
  H        2.6215300    -2.2543830    -0.2976190
units angstrom
no_reorient  #important for SAPT in psi4, default
symmetry c1  #important for SAPT in psi4, default
}

set PROPERTIES_ORIGIN ["COM"]
properties('MP2/aug-cc-pvtz', properties = ['dipole'])
--------------------------------------------------------------------------

    Molecular point group: c1
  Charge       = 0
  Multiplicity = 1
  Basis Set: AUG-CC-PVTZ
    Blend: AUG-CC-PVTZ
  Basis Set: (AUG-CC-PVTZ AUX)
    Blend: AUG-CC-PVTZ-JKFIT

    Orbital Energies [Eh]
    ---------------------

    Doubly Occupied:

       1A    -20.595558     2A    -20.593141     3A    -11.310323
       4A    -11.308561     5A    -11.251333     6A    -11.233203
       7A    -11.223186     8A    -11.222405     9A    -11.220318
      10A    -11.215571    11A     -1.405219    12A     -1.401673
      13A     -1.150678    14A     -1.065981    15A     -1.001049
      16A     -0.987148    17A     -0.875288    18A     -0.836404
      19A     -0.809159    20A     -0.740414    21A     -0.687532
      22A     -0.675179    23A     -0.666715    24A     -0.615230
      25A     -0.603099    26A     -0.596466    27A     -0.587365
      28A     -0.576299    29A     -0.555416    30A     -0.544241
      31A     -0.524090    32A     -0.520978    33A     -0.498372
      34A     -0.473699    35A     -0.449551    36A     -0.324597
      37A     -0.311047

  @DF-RHF Final Energy:  -458.65087998876515

   => Energetics <=

    Nuclear Repulsion Energy =            508.2518795346956608
    One-Electron Energy =               -1632.4925454202100354
    Two-Electron Energy =                 665.5897858967491629
    Total Energy =                       -458.6508799887651548
  Basis Set: (AUG-CC-PVTZ AUX)
    Blend: AUG-CC-PVTZ-RI
    Molecular point group: c1

    Geometry (in Angstrom), charge = 0, multiplicity = 1:

       Center              X                  Y                   Z               Mass
    ------------   -----------------  -----------------  -----------------  -----------------
         O            1.757743607786     2.368303141832    -0.135819140340    15.994914619570
         O            1.670368607786    -2.407072858168    -0.117840140340    15.994914619570
         C           -1.039094692214    -0.007578058168     0.296375959660    12.000000000000
         C           -2.518998392214    -0.019517858168     0.573498859660    12.000000000000
         C           -0.328111392214    -1.207464858168     0.244436859660    12.000000000000
         C           -0.342104392214     1.205151141832     0.244933859660    12.000000000000
         C           -3.208086992214    -0.019157958168    -0.792200540340    12.000000000000
         C            1.029641607786     1.210591141832    -0.008040140340    12.000000000000
         C            1.043010607786    -1.191114858168    -0.008939140340    12.000000000000
         C            1.731812607786     0.014708141832    -0.135682140340    12.000000000000
         H           -2.797830392214    -0.903114858168     1.158395859660     1.007825032230
         H           -2.813334392214     0.853783141832     1.167374859660     1.007825032230
         H           -0.836282392214    -2.163622858168     0.340981859660     1.007825032230
         H           -0.884005392214     2.145575141832     0.345251859660     1.007825032230
         H           -3.028144392214     0.867185141832    -1.342712140340     1.007825032230
         H           -4.362452392214    -0.029502858168    -0.595261140340     1.007825032230
         H           -3.012694392214    -0.898202858168    -1.348613140340     1.007825032230
         H            2.802391607786     0.046690141832    -0.326189140340     1.007825032230
         H            1.154019607786     3.122231141832    -0.019909140340     1.007825032230
         H            2.616484607786    -2.254459858168    -0.287557140340     1.007825032230

  Basis Set: AUG-CC-PVTZ
    Blend: AUG-CC-PVTZ
  Basis Set: (AUG-CC-PVTZ AUX)
    Blend: AUG-CC-PVTZ-JKFIT
	 Reference Energy          =    -458.6508799887651548 [Eh]
	 Singles Energy            =      -0.0000000000000000 [Eh]
	 Same-Spin Energy          =      -0.4820409182643463 [Eh]
	 Opposite-Spin Energy      =      -1.5059538682918663 [Eh]
	 Correlation Energy        =      -1.9879947865562126 [Eh]
	 Total Energy              =    -460.6388747753213693 [Eh]

	 ================> DF-SCS-MP2 Energies <==================
	-----------------------------------------------------------
	 SCS Same-Spin Scale       =       0.3333333333333333 [-]
	 SCS Opposite-Spin Scale   =       1.2000000000000000 [-]
	 SCS Same-Spin Energy      =      -0.1606803060881154 [Eh]
	 SCS Opposite-Spin Energy  =      -1.8071446419502395 [Eh]
	 SCS Correlation Energy    =      -1.9678249480383549 [Eh]
	 SCS Total Energy          =    -460.6187049368035105 [Eh]
	-----------------------------------------------------------

  Dipole Moment: [D]
     X:    -0.4877      Y:     1.2219      Z:     0.0558     Total:     1.3168

*** Psi4 exiting successfully. Buy a developer a beer!
