                               Psi4 1.3.2 release

  ==> Input File <==

--------------------------------------------------------------------------
#psi4
#
memory 32 gb

molecule  {
0 1
  O        1.7627890     2.3683800    -0.1458810
  O        1.6754140    -2.4069960    -0.1279020
  C       -1.0215720    -0.0077180     0.3641480
  C       -2.5139530    -0.0194410     0.5634370
  C       -0.3230660    -1.2073880     0.2343750
  C       -0.3370590     1.2052280     0.2348720
  C       -3.2735700    -0.0197480    -0.7643280
  C        1.0346870     1.2106680    -0.0181020
  C        1.0466355    -1.1423865    -0.0188736
  C        1.7368580     0.0147850    -0.1457440
  H       -2.7927850    -0.9030380     1.1483340
  H       -2.8082890     0.8538600     1.1573130
  H       -0.8637506    -2.1449117     0.3368755
  H       -0.8789600     2.1456520     0.3351900
  H       -3.0230990     0.8672620    -1.3527740
  H       -4.3574070    -0.0294260    -0.6053230
  H       -3.0076490    -0.8981260    -1.3586750
  H        2.8074370     0.0467670    -0.3362510
  H        1.1590650     3.1223080    -0.0299710
  H        2.6215300    -2.2543830    -0.2976190
units angstrom
no_reorient  #important for SAPT in psi4, default
symmetry c1  #important for SAPT in psi4, default
}

set PROPERTIES_ORIGIN ["COM"]
properties('MP2/aug-cc-pvtz', properties = ['dipole'])
--------------------------------------------------------------------------

    Molecular point group: c1
  Charge       = 0
  Multiplicity = 1
  Basis Set: AUG-CC-PVTZ
    Blend: AUG-CC-PVTZ
  Basis Set: (AUG-CC-PVTZ AUX)
    Blend: AUG-CC-PVTZ-JKFIT

    Orbital Energies [Eh]
    ---------------------

    Doubly Occupied:

       1A    -20.597490     2A    -20.585452     3A    -11.312612
       4A    -11.305465     5A    -11.251166     6A    -11.232715
       7A    -11.224399     8A    -11.223453     9A    -11.220467
      10A    -11.217858    11A     -1.406723    12A     -1.380986
      13A     -1.155634    14A     -1.069154    15A     -1.001353
      16A     -0.992593    17A     -0.876878    18A     -0.841046
      19A     -0.802963    20A     -0.736545    21A     -0.690907
      22A     -0.673581    23A     -0.657664    24A     -0.612068
      25A     -0.602466    26A     -0.595731    27A     -0.583748
      28A     -0.568154    29A     -0.557563    30A     -0.549302
      31A     -0.525785    32A     -0.522828    33A     -0.488030
      34A     -0.483622    35A     -0.456812    36A     -0.332731
      37A     -0.312660

  @DF-RHF Final Energy:  -458.65632274681900

   => Energetics <=

    Nuclear Repulsion Energy =            507.8405559294982368
    One-Electron Energy =               -1631.6965484185161586
    Two-Electron Energy =                 665.1996697421988074
    Total Energy =                       -458.6563227468190007
  Basis Set: (AUG-CC-PVTZ AUX)
    Blend: AUG-CC-PVTZ-RI
    Molecular point group: c1

    Geometry (in Angstrom), charge = 0, multiplicity = 1:

       Center              X                  Y                   Z               Mass
    ------------   -----------------  -----------------  -----------------  -----------------
         O            1.763149833630     2.364015447559    -0.145935530070    15.994914619570
         O            1.675774833630    -2.411360552441    -0.127956530070    15.994914619570
         C           -1.021211166370    -0.012082552441     0.364093469930    12.000000000000
         C           -2.513592166370    -0.023805552441     0.563382469930    12.000000000000
         C           -0.322705166370    -1.211752552441     0.234320469930    12.000000000000
         C           -0.336698166370     1.200863447559     0.234817469930    12.000000000000
         C           -3.273209166370    -0.024112552441    -0.764382530070    12.000000000000
         C            1.035047833630     1.206303447559    -0.018156530070    12.000000000000
         C            1.046996333630    -1.146751052441    -0.018928130070    12.000000000000
         C            1.737218833630     0.010420447559    -0.145798530070    12.000000000000
         H           -2.792424166370    -0.907402552441     1.148279469930     1.007825032230
         H           -2.807928166370     0.849495447559     1.157258469930     1.007825032230
         H           -0.863389766370    -2.149276252441     0.336820969930     1.007825032230
         H           -0.878599166370     2.141287447559     0.335135469930     1.007825032230
         H           -3.022738166370     0.862897447559    -1.352828530070     1.007825032230
         H           -4.357046166370    -0.033790552441    -0.605377530070     1.007825032230
         H           -3.007288166370    -0.902490552441    -1.358729530070     1.007825032230
         H            2.807797833630     0.042402447559    -0.336305530070     1.007825032230
         H            1.159425833630     3.117943447559    -0.030025530070     1.007825032230
         H            2.621890833630    -2.258747552441    -0.297673530070     1.007825032230

  Basis Set: AUG-CC-PVTZ
    Blend: AUG-CC-PVTZ
  Basis Set: (AUG-CC-PVTZ AUX)
    Blend: AUG-CC-PVTZ-JKFIT
	 Reference Energy          =    -458.6563227468190007 [Eh]
	 Singles Energy            =      -0.0000000000000000 [Eh]
	 Same-Spin Energy          =      -0.4818815170900865 [Eh]
	 Opposite-Spin Energy      =      -1.5059439030343278 [Eh]
	 Correlation Energy        =      -1.9878254201244143 [Eh]
	 Total Energy              =    -460.6441481669434097 [Eh]

	 ================> DF-SCS-MP2 Energies <==================
	-----------------------------------------------------------
	 SCS Same-Spin Scale       =       0.3333333333333333 [-]
	 SCS Opposite-Spin Scale   =       1.2000000000000000 [-]
	 SCS Same-Spin Energy      =      -0.1606271723633622 [Eh]
	 SCS Opposite-Spin Energy  =      -1.8071326836411932 [Eh]
	 SCS Correlation Energy    =      -1.9677598560045553 [Eh]
	 SCS Total Energy          =    -460.6240826028235347 [Eh]
	-----------------------------------------------------------

  Dipole Moment: [D]
     X:    -0.6385      Y:     1.4955      Z:     0.0288     Total:     1.6263

*** Psi4 exiting successfully. Buy a developer a beer!
