                               Psi4 1.3.2 release

  ==> Input File <==

--------------------------------------------------------------------------
#psi4
#
memory 32 gb

molecule  {
0 1
  O        1.7627890     2.3683800    -0.1458810
  O        1.6754140    -2.4069960    -0.1279020
  C       -1.0215720    -0.0077180     0.3641480
  C       -2.5139530    -0.0194410     0.5634370
  C       -0.3230660    -1.2073880     0.2343750
  C       -0.3370590     1.2052280     0.2348720
  C       -3.2735700    -0.0197480    -0.7643280
  C        1.0149423     1.2237449    -0.0143785
  C        1.0480560    -1.1910380    -0.0190010
  C        1.7368580     0.0147850    -0.1457440
  H       -2.7927850    -0.9030380     1.1483340
  H       -2.8082890     0.8538600     1.1573130
  H       -0.8312370    -2.1635460     0.3309200
  H       -0.8789600     2.1456520     0.3351900
  H       -3.0230990     0.8672620    -1.3527740
  H       -4.3574070    -0.0294260    -0.6053230
  H       -3.0076490    -0.8981260    -1.3586750
  H        2.8074370     0.0467670    -0.3362510
  H        1.1462067     3.1114647    -0.0276586
  H        2.6215300    -2.2543830    -0.2976190
units angstrom
no_reorient  #important for SAPT in psi4, default
symmetry c1  #important for SAPT in psi4, default
}

set PROPERTIES_ORIGIN ["COM"]
properties('MP2/aug-cc-pvtz', properties = ['dipole'])
--------------------------------------------------------------------------

    Molecular point group: c1
  Charge       = 0
  Multiplicity = 1
  Basis Set: AUG-CC-PVTZ
    Blend: AUG-CC-PVTZ
  Basis Set: (AUG-CC-PVTZ AUX)
    Blend: AUG-CC-PVTZ-JKFIT

    Orbital Energies [Eh]
    ---------------------

    Doubly Occupied:

       1A    -20.596907     2A    -20.592712     3A    -11.310196
       4A    -11.308043     5A    -11.252122     6A    -11.232581
       7A    -11.225000     8A    -11.221650     9A    -11.220079
      10A    -11.216593    11A     -1.406762    12A     -1.401593
      13A     -1.150826    14A     -1.062420    15A     -1.004386
      16A     -0.986503    17A     -0.877726    18A     -0.834685
      19A     -0.808769    20A     -0.740924    21A     -0.687258
      22A     -0.672594    23A     -0.665707    24A     -0.613095
      25A     -0.602837    26A     -0.595247    27A     -0.588395
      28A     -0.576769    29A     -0.553236    30A     -0.549826
      31A     -0.523237    32A     -0.519821    33A     -0.488206
      34A     -0.484695    35A     -0.454293    36A     -0.323698
      37A     -0.313679

  @DF-RHF Final Energy:  -458.65914399960786

   => Energetics <=

    Nuclear Repulsion Energy =            507.5401167755697429
    One-Electron Energy =               -1631.0723802388758941
    Two-Electron Energy =                 664.8731194636983446
    Total Energy =                       -458.6591439996078634
  Basis Set: (AUG-CC-PVTZ AUX)
    Blend: AUG-CC-PVTZ-RI
    Molecular point group: c1

    Geometry (in Angstrom), charge = 0, multiplicity = 1:

       Center              X                  Y                   Z               Mass
    ------------   -----------------  -----------------  -----------------  -----------------
         O            1.764598983190     2.367322536820    -0.146221487495    15.994914619570
         O            1.677223983190    -2.408053463180    -0.128242487495    15.994914619570
         C           -1.019762016810    -0.008775463180     0.363807512505    12.000000000000
         C           -2.512143016810    -0.020498463180     0.563096512505    12.000000000000
         C           -0.321256016810    -1.208445463180     0.234034512505    12.000000000000
         C           -0.335249016810     1.204170536820     0.234531512505    12.000000000000
         C           -3.271760016810    -0.020805463180    -0.764668487495    12.000000000000
         C            1.016752283190     1.222687436820    -0.014718987495    12.000000000000
         C            1.049865983190    -1.192095463180    -0.019341487495    12.000000000000
         C            1.738667983190     0.013727536820    -0.146084487495    12.000000000000
         H           -2.790975016810    -0.904095463180     1.147993512505     1.007825032230
         H           -2.806479016810     0.852802536820     1.156972512505     1.007825032230
         H           -0.829427016810    -2.164603463180     0.330579512505     1.007825032230
         H           -0.877150016810     2.144594536820     0.334849512505     1.007825032230
         H           -3.021289016810     0.866204536820    -1.353114487495     1.007825032230
         H           -4.355597016810    -0.030483463180    -0.605663487495     1.007825032230
         H           -3.005839016810    -0.899183463180    -1.359015487495     1.007825032230
         H            2.809246983190     0.045709536820    -0.336591487495     1.007825032230
         H            1.148016683190     3.110407236820    -0.027999087495     1.007825032230
         H            2.623339983190    -2.255440463180    -0.297959487495     1.007825032230

  Basis Set: AUG-CC-PVTZ
    Blend: AUG-CC-PVTZ
  Basis Set: (AUG-CC-PVTZ AUX)
    Blend: AUG-CC-PVTZ-JKFIT
	 Reference Energy          =    -458.6591439996078634 [Eh]
	 Singles Energy            =      -0.0000000000000000 [Eh]
	 Same-Spin Energy          =      -0.4817960337381501 [Eh]
	 Opposite-Spin Energy      =      -1.5054859997806895 [Eh]
	 Correlation Energy        =      -1.9872820335188397 [Eh]
	 Total Energy              =    -460.6464260331267155 [Eh]

	 ================> DF-SCS-MP2 Energies <==================
	-----------------------------------------------------------
	 SCS Same-Spin Scale       =       0.3333333333333333 [-]
	 SCS Opposite-Spin Scale   =       1.2000000000000000 [-]
	 SCS Same-Spin Energy      =      -0.1605986779127167 [Eh]
	 SCS Opposite-Spin Energy  =      -1.8065831997368273 [Eh]
	 SCS Correlation Energy    =      -1.9671818776495440 [Eh]
	 SCS Total Energy          =    -460.6263258772573863 [Eh]
	-----------------------------------------------------------

  Dipole Moment: [D]
     X:    -0.5368      Y:     1.2143      Z:     0.0158     Total:     1.3278

*** Psi4 exiting successfully. Buy a developer a beer!
