                               Psi4 1.4a3.dev225

  ==> Input File <==

--------------------------------------------------------------------------
#psi4
#
memory 32 gb

molecule  {
0 1
  O       -1.8116000     2.3801270     0.1363720
  O       -1.7799440    -2.3994320     0.1189850
  C        0.9489570    -0.0306590    -0.3689570
  C        2.4429910    -0.0568610    -0.5708560
  C        0.2252178    -1.2391037    -0.2355066
  C        0.2798030     1.1938580    -0.2383990
  C        3.1984060    -0.0265600     0.7613490
  C       -1.0921630     1.2139390     0.0079710
  C       -1.1396310    -1.1871160     0.0102260
  C       -1.8132500     0.0254130     0.1385790
  H        2.7180680    -0.9584190    -1.1301260
  H        2.7446220     0.7994920    -1.1857830
  H        0.7258350    -2.1872220    -0.3369480
  H        0.8309290     2.1284970    -0.3452230
  H        2.9508560     0.8787730     1.3230630
  H        4.2811760    -0.0477390     0.6027570
  H        2.9230980    -0.8883860     1.3756490
  H       -2.8837580     0.0741080     0.3259950
  H       -1.1979550     3.1274200     0.0245130
  H       -2.7238770    -2.2320380     0.2881370
units angstrom
no_reorient  #important for SAPT in psi4, default
symmetry c1  #important for SAPT in psi4, default
}

set PROPERTIES_ORIGIN ["COM"]
properties('MP2/aug-cc-pvtz', properties = ['dipole'])
--------------------------------------------------------------------------

    Molecular point group: c1
  Charge       = 0
  Multiplicity = 1
  Basis Set: AUG-CC-PVTZ
    Blend: AUG-CC-PVTZ
  Basis Set: (AUG-CC-PVTZ AUX)
    Blend: AUG-CC-PVTZ-JKFIT

    Orbital Energies [Eh]
    ---------------------

    Doubly Occupied:

       1A    -20.596010     2A    -20.591952     3A    -11.311541
       4A    -11.307642     5A    -11.255044     6A    -11.233078
       7A    -11.224377     8A    -11.224091     9A    -11.220203
      10A    -11.216517    11A     -1.404398    12A     -1.400195
      13A     -1.148338    14A     -1.063425    15A     -1.002312
      16A     -0.987003    17A     -0.876906    18A     -0.835506
      19A     -0.806864    20A     -0.739166    21A     -0.687617
      22A     -0.674731    23A     -0.664823    24A     -0.611758
      25A     -0.601980    26A     -0.595158    27A     -0.587902
      28A     -0.575583    29A     -0.552924    30A     -0.548411
      31A     -0.523477    32A     -0.522627    33A     -0.488028
      34A     -0.484009    35A     -0.452883    36A     -0.324723
      37A     -0.312088

  @DF-RHF Final Energy:  -458.65908054236422

   => Energetics <=

    Nuclear Repulsion Energy =            506.9082639200798894
    One-Electron Energy =               -1629.8281088876960894
    Two-Electron Energy =                 664.2607644252519776
    Total Energy =                       -458.6590805423642223
  Basis Set: (AUG-CC-PVTZ AUX)
    Blend: AUG-CC-PVTZ-RI
    Molecular point group: c1

    Geometry (in Angstrom), charge = 0, multiplicity = 1:

       Center              X                  Y                   Z               Mass
    ------------   -----------------  -----------------  -----------------  -----------------
         O           -1.736330333375     2.386601616394     0.142986884077    15.994914619570
         O           -1.704674333375    -2.392957383606     0.125599884077    15.994914619570
         C            1.024226666625    -0.024184383606    -0.362342115923    12.000000000000
         C            2.518260666625    -0.050386383606    -0.564241115923    12.000000000000
         C            0.300487466625    -1.232629083606    -0.228891715923    12.000000000000
         C            0.355072666625     1.200332616394    -0.231784115923    12.000000000000
         C            3.273675666625    -0.020085383606     0.767963884077    12.000000000000
         C           -1.016893333375     1.220413616394     0.014585884077    12.000000000000
         C           -1.064361333375    -1.180641383606     0.016840884077    12.000000000000
         C           -1.737980333375     0.031887616394     0.145193884077    12.000000000000
         H            2.793337666625    -0.951944383606    -1.123511115923     1.007825032230
         H            2.819891666625     0.805966616394    -1.179168115923     1.007825032230
         H            0.801104666625    -2.180747383606    -0.330333115923     1.007825032230
         H            0.906198666625     2.134971616394    -0.338608115923     1.007825032230
         H            3.026125666625     0.885247616394     1.329677884077     1.007825032230
         H            4.356445666625    -0.041264383606     0.609371884077     1.007825032230
         H            2.998367666625    -0.881911383606     1.382263884077     1.007825032230
         H           -2.808488333375     0.080582616394     0.332609884077     1.007825032230
         H           -1.122685333375     3.133894616394     0.031127884077     1.007825032230
         H           -2.648607333375    -2.225563383606     0.294751884077     1.007825032230

  Basis Set: AUG-CC-PVTZ
    Blend: AUG-CC-PVTZ
  Basis Set: (AUG-CC-PVTZ AUX)
    Blend: AUG-CC-PVTZ-JKFIT
	 Reference Energy          =    -458.6590805423642223 [Eh]
	 Singles Energy            =      -0.0000000000000000 [Eh]
	 Same-Spin Energy          =      -0.4817349426581097 [Eh]
	 Opposite-Spin Energy      =      -1.5055246429816955 [Eh]
	 Correlation Energy        =      -1.9872595856398052 [Eh]
	 Total Energy              =    -460.6463401280040557 [Eh]

	 ================> DF-SCS-MP2 Energies <==================
	-----------------------------------------------------------
	 SCS Same-Spin Scale       =       0.3333333333333333 [-]
	 SCS Opposite-Spin Scale   =       1.2000000000000000 [-]
	 SCS Same-Spin Energy      =      -0.1605783142193699 [Eh]
	 SCS Opposite-Spin Energy  =      -1.8066295715780345 [Eh]
	 SCS Correlation Energy    =      -1.9672078857974045 [Eh]
	 SCS Total Energy          =    -460.6262884281616152 [Eh]
	-----------------------------------------------------------

  Dipole Moment: [D]
     X:     0.5504      Y:     1.2501      Z:    -0.0206     Total:     1.3660

*** Psi4 exiting successfully. Buy a developer a beer!
