                               Psi4 1.3.2 release

  ==> Input File <==

--------------------------------------------------------------------------
#psi4
#
memory 32 gb

molecule  {
0 1
  O        1.7627890     2.3683800    -0.1458810
  O        1.6754140    -2.4069960    -0.1279020
  C       -1.0215720    -0.0077180     0.3641480
  C       -2.5139530    -0.0194410     0.5634370
  C       -0.3216736    -1.2560397     0.2340956
  C       -0.3370590     1.2052280     0.2348720
  C       -3.2735700    -0.0197480    -0.7643280
  C        1.0346870     1.2106680    -0.0181020
  C        1.0480560    -1.1910380    -0.0190010
  C        1.7778184    -0.0103920    -0.1533249
  H       -2.7927850    -0.9030380     1.1483340
  H       -2.8082890     0.8538600     1.1573130
  H       -0.8312370    -2.1635460     0.3309200
  H       -0.8789600     2.1456520     0.3351900
  H       -3.0230990     0.8672620    -1.3527740
  H       -4.3574070    -0.0294260    -0.6053230
  H       -3.0076490    -0.8981260    -1.3586750
  H        2.8074370     0.0467670    -0.3362510
  H        1.1590650     3.1223080    -0.0299710
  H        2.6215300    -2.2543830    -0.2976190
units angstrom
no_reorient  #important for SAPT in psi4, default
symmetry c1  #important for SAPT in psi4, default
}

set PROPERTIES_ORIGIN ["COM"]
properties('MP2/aug-cc-pvtz', properties = ['dipole'])
--------------------------------------------------------------------------

    Molecular point group: c1
  Charge       = 0
  Multiplicity = 1
  Basis Set: AUG-CC-PVTZ
    Blend: AUG-CC-PVTZ
  Basis Set: (AUG-CC-PVTZ AUX)
    Blend: AUG-CC-PVTZ-JKFIT

    Orbital Energies [Eh]
    ---------------------

    Doubly Occupied:

       1A    -20.597971     2A    -20.588009     3A    -11.317703
       4A    -11.308458     5A    -11.258367     6A    -11.232777
       7A    -11.224265     8A    -11.223851     9A    -11.220435
      10A    -11.215700    11A     -1.406652    12A     -1.399425
      13A     -1.143045    14A     -1.061145    15A     -1.000952
      16A     -0.986168    17A     -0.878488    18A     -0.835011
      19A     -0.805953    20A     -0.739759    21A     -0.693520
      22A     -0.675140    23A     -0.664059    24A     -0.612043
      25A     -0.601672    26A     -0.595021    27A     -0.592340
      28A     -0.575273    29A     -0.556178    30A     -0.547450
      31A     -0.526293    32A     -0.520950    33A     -0.487764
      34A     -0.483622    35A     -0.449065    36A     -0.323545
      37A     -0.308992

  @DF-RHF Final Energy:  -458.65341343809854

   => Energetics <=

    Nuclear Repulsion Energy =            506.0566723516524235
    One-Electron Energy =               -1628.1060538858121163
    Two-Electron Energy =                 663.3959680960612104
    Total Energy =                       -458.6534134380984824
  Basis Set: (AUG-CC-PVTZ AUX)
    Blend: AUG-CC-PVTZ-RI
    Molecular point group: c1

    Geometry (in Angstrom), charge = 0, multiplicity = 1:

       Center              X                  Y                   Z               Mass
    ------------   -----------------  -----------------  -----------------  -----------------
         O            1.759108004254     2.374796668814    -0.145197817904    15.994914619570
         O            1.671733004254    -2.400579331186    -0.127218817904    15.994914619570
         C           -1.025252995746    -0.001301331186     0.364831182096    12.000000000000
         C           -2.517633995746    -0.013024331186     0.564120182096    12.000000000000
         C           -0.325354595746    -1.249623031186     0.234778782096    12.000000000000
         C           -0.340739995746     1.211644668814     0.235555182096    12.000000000000
         C           -3.277250995746    -0.013331331186    -0.763644817904    12.000000000000
         C            1.031006004254     1.217084668814    -0.017418817904    12.000000000000
         C            1.044375004254    -1.184621331186    -0.018317817904    12.000000000000
         C            1.774137404254    -0.003975331186    -0.152641717904    12.000000000000
         H           -2.796465995746    -0.896621331186     1.149017182096     1.007825032230
         H           -2.811969995746     0.860276668814     1.157996182096     1.007825032230
         H           -0.834917995746    -2.157129331186     0.331603182096     1.007825032230
         H           -0.882640995746     2.152068668814     0.335873182096     1.007825032230
         H           -3.026779995746     0.873678668814    -1.352090817904     1.007825032230
         H           -4.361087995746    -0.023009331186    -0.604639817904     1.007825032230
         H           -3.011329995746    -0.891709331186    -1.357991817904     1.007825032230
         H            2.803756004254     0.053183668814    -0.335567817904     1.007825032230
         H            1.155384004254     3.128724668814    -0.029287817904     1.007825032230
         H            2.617849004254    -2.247966331186    -0.296935817904     1.007825032230

  Basis Set: AUG-CC-PVTZ
    Blend: AUG-CC-PVTZ
  Basis Set: (AUG-CC-PVTZ AUX)
    Blend: AUG-CC-PVTZ-JKFIT
	 Reference Energy          =    -458.6534134380985392 [Eh]
	 Singles Energy            =      -0.0000000000000000 [Eh]
	 Same-Spin Energy          =      -0.4814638620670866 [Eh]
	 Opposite-Spin Energy      =      -1.5054698433885223 [Eh]
	 Correlation Energy        =      -1.9869337054556089 [Eh]
	 Total Energy              =    -460.6403471435541519 [Eh]

	 ================> DF-SCS-MP2 Energies <==================
	-----------------------------------------------------------
	 SCS Same-Spin Scale       =       0.3333333333333333 [-]
	 SCS Opposite-Spin Scale   =       1.2000000000000000 [-]
	 SCS Same-Spin Energy      =      -0.1604879540223622 [Eh]
	 SCS Opposite-Spin Energy  =      -1.8065638120662266 [Eh]
	 SCS Correlation Energy    =      -1.9670517660885889 [Eh]
	 SCS Total Energy          =    -460.6204652041871555 [Eh]
	-----------------------------------------------------------

  Dipole Moment: [D]
     X:    -0.5297      Y:     1.3219      Z:     0.0141     Total:     1.4241

*** Psi4 exiting successfully. Buy a developer a beer!
