                               Psi4 1.3.2 release

  ==> Input File <==

--------------------------------------------------------------------------
#psi4
#
memory 32 gb

molecule  {
0 1
  O        1.7627890     2.3683800    -0.1458810
  O        1.6754140    -2.4069960    -0.1279020
  C       -1.0215720    -0.0077180     0.3641480
  C       -2.5139530    -0.0194410     0.5634370
  C       -0.3230660    -1.2073880     0.2343750
  C       -0.3370568     1.2174006     0.2348528
  C       -3.2735700    -0.0197480    -0.7643280
  C        1.0346870     1.2106680    -0.0181020
  C        1.0480560    -1.1910380    -0.0190010
  C        1.7470924     0.0210584    -0.1476410
  H       -2.7927850    -0.9030380     1.1483340
  H       -2.8082890     0.8538600     1.1573130
  H       -0.8312370    -2.1635460     0.3309200
  H       -0.8789600     2.1456520     0.3351900
  H       -3.0230990     0.8672620    -1.3527740
  H       -4.3574070    -0.0294260    -0.6053230
  H       -3.0076490    -0.8981260    -1.3586750
  H        2.8074370     0.0467670    -0.3362510
  H        1.1590650     3.1223080    -0.0299710
  H        2.6215300    -2.2543830    -0.2976190
units angstrom
no_reorient  #important for SAPT in psi4, default
symmetry c1  #important for SAPT in psi4, default
}

set PROPERTIES_ORIGIN ["COM"]
properties('MP2/aug-cc-pvtz', properties = ['dipole'])
--------------------------------------------------------------------------

    Molecular point group: c1
  Charge       = 0
  Multiplicity = 1
  Basis Set: AUG-CC-PVTZ
    Blend: AUG-CC-PVTZ
  Basis Set: (AUG-CC-PVTZ AUX)
    Blend: AUG-CC-PVTZ-JKFIT

    Orbital Energies [Eh]
    ---------------------

    Doubly Occupied:

       1A    -20.594408     2A    -20.593863     3A    -11.310645
       4A    -11.310415     5A    -11.253109     6A    -11.232229
       7A    -11.223867     8A    -11.222469     9A    -11.219882
      10A    -11.216225    11A     -1.404945    12A     -1.402013
      13A     -1.148443    14A     -1.063286    15A     -1.001292
      16A     -0.987428    17A     -0.877378    18A     -0.835713
      19A     -0.807909    20A     -0.738657    21A     -0.688267
      22A     -0.674704    23A     -0.667826    24A     -0.611672
      25A     -0.602169    26A     -0.595514    27A     -0.588048
      28A     -0.576242    29A     -0.552900    30A     -0.549722
      31A     -0.525091    32A     -0.520745    33A     -0.487949
      34A     -0.482710    35A     -0.452652    36A     -0.324554
      37A     -0.311504

  @DF-RHF Final Energy:  -458.65981349788063

   => Energetics <=

    Nuclear Repulsion Energy =            507.1382037041370836
    One-Electron Energy =               -1630.2831405973442997
    Two-Electron Energy =                 664.4851233953264682
    Total Energy =                       -458.6598134978806911
  Basis Set: (AUG-CC-PVTZ AUX)
    Blend: AUG-CC-PVTZ-RI
    Molecular point group: c1

    Geometry (in Angstrom), charge = 0, multiplicity = 1:

       Center              X                  Y                   Z               Mass
    ------------   -----------------  -----------------  -----------------  -----------------
         O            1.761899340247     2.366776738331    -0.145714441299    15.994914619570
         O            1.674524340247    -2.408599261669    -0.127735441299    15.994914619570
         C           -1.022461659753    -0.009321261669     0.364314558701    12.000000000000
         C           -2.514842659753    -0.021044261669     0.563603558701    12.000000000000
         C           -0.323955659753    -1.208991261669     0.234541558701    12.000000000000
         C           -0.337946459753     1.215797338331     0.235019358701    12.000000000000
         C           -3.274459659753    -0.021351261669    -0.764161441299    12.000000000000
         C            1.033797340247     1.209064738331    -0.017935441299    12.000000000000
         C            1.047166340247    -1.192641261669    -0.018834441299    12.000000000000
         C            1.746202740247     0.019455138331    -0.147474441299    12.000000000000
         H           -2.793674659753    -0.904641261669     1.148500558701     1.007825032230
         H           -2.809178659753     0.852256738331     1.157479558701     1.007825032230
         H           -0.832126659753    -2.165149261669     0.331086558701     1.007825032230
         H           -0.879849659753     2.144048738331     0.335356558701     1.007825032230
         H           -3.023988659753     0.865658738331    -1.352607441299     1.007825032230
         H           -4.358296659753    -0.031029261669    -0.605156441299     1.007825032230
         H           -3.008538659753    -0.899729261669    -1.358508441299     1.007825032230
         H            2.806547340247     0.045163738331    -0.336084441299     1.007825032230
         H            1.158175340247     3.120704738331    -0.029804441299     1.007825032230
         H            2.620640340247    -2.255986261669    -0.297452441299     1.007825032230

  Basis Set: AUG-CC-PVTZ
    Blend: AUG-CC-PVTZ
  Basis Set: (AUG-CC-PVTZ AUX)
    Blend: AUG-CC-PVTZ-JKFIT
	 Reference Energy          =    -458.6598134978806343 [Eh]
	 Singles Energy            =      -0.0000000000000000 [Eh]
	 Same-Spin Energy          =      -0.4816187569829207 [Eh]
	 Opposite-Spin Energy      =      -1.5051773684945045 [Eh]
	 Correlation Energy        =      -1.9867961254774251 [Eh]
	 Total Energy              =    -460.6466096233580743 [Eh]

	 ================> DF-SCS-MP2 Energies <==================
	-----------------------------------------------------------
	 SCS Same-Spin Scale       =       0.3333333333333333 [-]
	 SCS Opposite-Spin Scale   =       1.2000000000000000 [-]
	 SCS Same-Spin Energy      =      -0.1605395856609735 [Eh]
	 SCS Opposite-Spin Energy  =      -1.8062128421934052 [Eh]
	 SCS Correlation Energy    =      -1.9667524278543786 [Eh]
	 SCS Total Energy          =    -460.6265659257350080 [Eh]
	-----------------------------------------------------------

  Dipole Moment: [D]
     X:    -0.5013      Y:     1.1944      Z:     0.0098     Total:     1.2953

*** Psi4 exiting successfully. Buy a developer a beer!
