                               Psi4 1.3.2 release

  ==> Input File <==

--------------------------------------------------------------------------
#psi4
#
memory 32 gb

molecule  {
0 1
  O       -1.3945310     1.8555980     0.0000210
  O        2.9082060     0.2751580    -0.0000600
  N       -1.0895640    -0.4406340     0.0001970
  N        0.7349370     0.9985730     0.0002800
  C       -0.6489740     0.8800530    -0.0003070
  C       -0.2041810    -1.5011250     0.0000420
  C       -2.5282030    -0.6963170    -0.0000730
  C        1.1391180    -1.3434170     0.0000740
  C        1.7104040    -0.0052910    -0.0002190
  H       -0.6762750    -2.4793460     0.0001770
  H       -2.8113470    -1.2573270     0.8936330
  H       -2.8107340    -1.2584070    -0.8933430
  H       -3.0286960     0.2691590    -0.0008180
  H        1.0742821     1.9581155     0.1003170
  H        1.8167570    -2.1872720    -0.0000870
units angstrom
no_reorient  #important for SAPT in psi4, default
symmetry c1  #important for SAPT in psi4, default
}

set PROPERTIES_ORIGIN ["COM"]
properties('MP2/aug-cc-pvtz', properties = ['dipole'])
--------------------------------------------------------------------------

    Molecular point group: c1
  Charge       = 0
  Multiplicity = 1
  Basis Set: AUG-CC-PVTZ
    Blend: AUG-CC-PVTZ
  Basis Set: (AUG-CC-PVTZ AUX)
    Blend: AUG-CC-PVTZ-JKFIT

    Orbital Energies [Eh]
    ---------------------

    Doubly Occupied:

       1A    -20.545515     2A    -20.538848     3A    -15.644463
       4A    -15.626794     5A    -11.418483     6A    -11.379789
       7A    -11.337138     8A    -11.289981     9A    -11.256136
      10A     -1.428286    11A     -1.388101    12A     -1.312323
      13A     -1.245190    14A     -1.091103    15A     -0.989595
      16A     -0.930338    17A     -0.872289    18A     -0.771475
      19A     -0.751726    20A     -0.699816    21A     -0.685052
      22A     -0.657679    23A     -0.644196    24A     -0.615291
      25A     -0.609945    26A     -0.601780    27A     -0.571712
      28A     -0.554191    29A     -0.499392    30A     -0.479962
      31A     -0.446143    32A     -0.433045    33A     -0.360629

  @DF-RHF Final Energy:  -451.66001853609220

   => Energetics <=

    Nuclear Repulsion Energy =            441.1509869384532294
    One-Electron Energy =               -1490.2692017226552252
    Two-Electron Energy =                 597.4581962481097435
    Total Energy =                       -451.6600185360921387
  Basis Set: (AUG-CC-PVTZ AUX)
    Blend: AUG-CC-PVTZ-RI
    Molecular point group: c1

    Geometry (in Angstrom), charge = 0, multiplicity = 1:

       Center              X                  Y                   Z               Mass
    ------------   -----------------  -----------------  -----------------  -----------------
         O           -1.445123504339     1.816665976121    -0.000779681348    15.994914619570
         O            2.857613495661     0.236225976121    -0.000860681348    15.994914619570
         N           -1.140156504339    -0.479566023879    -0.000603681348    14.003074004430
         N            0.684344495661     0.959640976121    -0.000520681348    14.003074004430
         C           -0.699566504339     0.841120976121    -0.001107681348    12.000000000000
         C           -0.254773504339    -1.540057023879    -0.000758681348    12.000000000000
         C           -2.578795504339    -0.735249023879    -0.000873681348    12.000000000000
         C            1.088525495661    -1.382349023879    -0.000726681348    12.000000000000
         C            1.659811495661    -0.044223023879    -0.001019681348    12.000000000000
         H           -0.726867504339    -2.518278023879    -0.000623681348     1.007825032230
         H           -2.861939504339    -1.296259023879     0.892832318652     1.007825032230
         H           -2.861326504339    -1.297339023879    -0.894143681348     1.007825032230
         H           -3.079288504339     0.230226976121    -0.001618681348     1.007825032230
         H            1.023689595661     1.919183476121     0.099516318652     1.007825032230
         H            1.766164495661    -2.226204023879    -0.000887681348     1.007825032230

  Basis Set: AUG-CC-PVTZ
    Blend: AUG-CC-PVTZ
  Basis Set: (AUG-CC-PVTZ AUX)
    Blend: AUG-CC-PVTZ-JKFIT
	 Reference Energy          =    -451.6600185360921955 [Eh]
	 Singles Energy            =      -0.0000000000000000 [Eh]
	 Same-Spin Energy          =      -0.4580982889386736 [Eh]
	 Opposite-Spin Energy      =      -1.3849177981864216 [Eh]
	 Correlation Energy        =      -1.8430160871250951 [Eh]
	 Total Energy              =    -453.5030346232172747 [Eh]

	 ================> DF-SCS-MP2 Energies <==================
	-----------------------------------------------------------
	 SCS Same-Spin Scale       =       0.3333333333333333 [-]
	 SCS Opposite-Spin Scale   =       1.2000000000000000 [-]
	 SCS Same-Spin Energy      =      -0.1526994296462245 [Eh]
	 SCS Opposite-Spin Energy  =      -1.6619013578237058 [Eh]
	 SCS Correlation Energy    =      -1.8146007874699304 [Eh]
	 SCS Total Energy          =    -453.4746193235621377 [Eh]
	-----------------------------------------------------------

  Dipole Moment: [D]
     X:    -3.2358      Y:    -3.5420      Z:     0.1293     Total:     4.7993

*** Psi4 exiting successfully. Buy a developer a beer!
