                               Psi4 1.3.2 release

  ==> Input File <==

--------------------------------------------------------------------------
#psi4
#
memory 32 gb

molecule  {
0 1
  O       -1.3945310     1.8555980     0.0000210
  O        2.9082060     0.2751580    -0.0000600
  N       -1.0895640    -0.4406340     0.0001970
  N        0.7349370     0.9985730     0.0002800
  C       -0.6489740     0.8800530    -0.0003070
  C       -0.2041810    -1.5011250     0.0000420
  C       -2.5282030    -0.6963170    -0.0000730
  C        1.1391180    -1.3434170     0.0000740
  C        1.7104040    -0.0052910    -0.0002190
  H       -0.6762750    -2.4793460     0.0001770
  H       -2.8113470    -1.2573270     0.8936330
  H       -2.8107340    -1.2584070    -0.8933430
  H       -3.0286960     0.2691590    -0.0008180
  H        1.0742900     1.9581318     0.0503170
  H        1.8167570    -2.1872720    -0.0000870
units angstrom
no_reorient  #important for SAPT in psi4, default
symmetry c1  #important for SAPT in psi4, default
}

set PROPERTIES_ORIGIN ["COM"]
properties('MP2/aug-cc-pvtz', properties = ['dipole'])
--------------------------------------------------------------------------

    Molecular point group: c1
  Charge       = 0
  Multiplicity = 1
  Basis Set: AUG-CC-PVTZ
    Blend: AUG-CC-PVTZ
  Basis Set: (AUG-CC-PVTZ AUX)
    Blend: AUG-CC-PVTZ-JKFIT

    Orbital Energies [Eh]
    ---------------------

    Doubly Occupied:

       1A    -20.545500     2A    -20.538822     3A    -15.644479
       4A    -15.626630     5A    -11.418524     6A    -11.379834
       7A    -11.337138     8A    -11.289993     9A    -11.256153
      10A     -1.428345    11A     -1.388124    12A     -1.312334
      13A     -1.245531    14A     -1.091157    15A     -0.989644
      16A     -0.930604    17A     -0.872341    18A     -0.771855
      19A     -0.752123    20A     -0.699874    21A     -0.685182
      22A     -0.657799    23A     -0.644213    24A     -0.615033
      25A     -0.610122    26A     -0.602141    27A     -0.571825
      28A     -0.554211    29A     -0.499426    30A     -0.479974
      31A     -0.446137    32A     -0.433059    33A     -0.360644

  @DF-RHF Final Energy:  -451.66041723544436

   => Energetics <=

    Nuclear Repulsion Energy =            441.1700211795507585
    One-Electron Energy =               -1490.3033331665189962
    Two-Electron Energy =                 597.4728947515238815
    Total Energy =                       -451.6604172354443563
  Basis Set: (AUG-CC-PVTZ AUX)
    Blend: AUG-CC-PVTZ-RI
    Molecular point group: c1

    Geometry (in Angstrom), charge = 0, multiplicity = 1:

       Center              X                  Y                   Z               Mass
    ------------   -----------------  -----------------  -----------------  -----------------
         O           -1.445123567506     1.816665845788    -0.000379886987    15.994914619570
         O            2.857613432494     0.236225845788    -0.000460886987    15.994914619570
         N           -1.140156567506    -0.479566154212    -0.000203886987    14.003074004430
         N            0.684344432494     0.959640845788    -0.000120886987    14.003074004430
         C           -0.699566567506     0.841120845788    -0.000707886987    12.000000000000
         C           -0.254773567506    -1.540057154212    -0.000358886987    12.000000000000
         C           -2.578795567506    -0.735249154212    -0.000473886987    12.000000000000
         C            1.088525432494    -1.382349154212    -0.000326886987    12.000000000000
         C            1.659811432494    -0.044223154212    -0.000619886987    12.000000000000
         H           -0.726867567506    -2.518278154212    -0.000223886987     1.007825032230
         H           -2.861939567506    -1.296259154212     0.893232113013     1.007825032230
         H           -2.861326567506    -1.297339154212    -0.893743886987     1.007825032230
         H           -3.079288567506     0.230226845788    -0.001218886987     1.007825032230
         H            1.023697432494     1.919199645788     0.049916113013     1.007825032230
         H            1.766164432494    -2.226204154212    -0.000487886987     1.007825032230

  Basis Set: AUG-CC-PVTZ
    Blend: AUG-CC-PVTZ
  Basis Set: (AUG-CC-PVTZ AUX)
    Blend: AUG-CC-PVTZ-JKFIT
	 Reference Energy          =    -451.6604172354443563 [Eh]
	 Singles Energy            =      -0.0000000000000000 [Eh]
	 Same-Spin Energy          =      -0.4580639239155956 [Eh]
	 Opposite-Spin Energy      =      -1.3848422989387732 [Eh]
	 Correlation Energy        =      -1.8429062228543689 [Eh]
	 Total Energy              =    -453.5033234582987234 [Eh]

	 ================> DF-SCS-MP2 Energies <==================
	-----------------------------------------------------------
	 SCS Same-Spin Scale       =       0.3333333333333333 [-]
	 SCS Opposite-Spin Scale   =       1.2000000000000000 [-]
	 SCS Same-Spin Energy      =      -0.1526879746385318 [Eh]
	 SCS Opposite-Spin Energy  =      -1.6618107587265278 [Eh]
	 SCS Correlation Energy    =      -1.8144987333650597 [Eh]
	 SCS Total Energy          =    -453.4749159688093982 [Eh]
	-----------------------------------------------------------

  Dipole Moment: [D]
     X:    -3.2356      Y:    -3.5407      Z:     0.0643     Total:     4.7968

*** Psi4 exiting successfully. Buy a developer a beer!
