                               Psi4 1.3.2 release

  ==> Input File <==

--------------------------------------------------------------------------
#psi4
#
memory 32 gb

molecule  {
0 1
  O       -1.3945310     1.8555980     0.0000210
  O        2.9082060     0.2751580    -0.0000600
  N       -1.0895640    -0.4406340     0.0001970
  N        0.7349370     0.9985730     0.0002800
  C       -0.6489740     0.8800530    -0.0003070
  C       -0.2041810    -1.5011250     0.0000420
  C       -2.5282030    -0.6963170    -0.0000730
  C        1.1391585    -1.3434364     0.3000740
  C        1.7104040    -0.0052910    -0.0002190
  H       -0.6762750    -2.4793460     0.0001770
  H       -2.8113470    -1.2573270     0.8936330
  H       -2.8107340    -1.2584070    -0.8933430
  H       -3.0286960     0.2691590    -0.0008180
  H        1.0742980     1.9581480     0.0003170
  H        1.8167570    -2.1872720    -0.0000870
units angstrom
no_reorient  #important for SAPT in psi4, default
symmetry c1  #important for SAPT in psi4, default
}

set PROPERTIES_ORIGIN ["COM"]
properties('MP2/aug-cc-pvtz', properties = ['dipole'])
--------------------------------------------------------------------------

    Molecular point group: c1
  Charge       = 0
  Multiplicity = 1
  Basis Set: AUG-CC-PVTZ
    Blend: AUG-CC-PVTZ
  Basis Set: (AUG-CC-PVTZ AUX)
    Blend: AUG-CC-PVTZ-JKFIT

    Orbital Energies [Eh]
    ---------------------

    Doubly Occupied:

       1A    -20.548517     2A    -20.539199     3A    -15.648579
       4A    -15.626668     5A    -11.420873     6A    -11.381388
       7A    -11.346562     8A    -11.292026     9A    -11.262030
      10A     -1.430332    11A     -1.387815    12A     -1.314745
      13A     -1.246338    14A     -1.083504    15A     -0.991087
      16A     -0.928849    17A     -0.870660    18A     -0.767932
      19A     -0.745837    20A     -0.701351    21A     -0.686291
      22A     -0.657391    23A     -0.643678    24A     -0.617929
      25A     -0.600919    26A     -0.597884    27A     -0.566556
      28A     -0.552064    29A     -0.497850    30A     -0.480532
      31A     -0.443841    32A     -0.433411    33A     -0.361576

  @DF-RHF Final Energy:  -451.63768585018022

   => Energetics <=

    Nuclear Repulsion Energy =            440.1442437518706470
    One-Electron Energy =               -1488.2154337880817820
    Two-Electron Energy =                 596.4335041860309730
    Total Energy =                       -451.6376858501802189
  Basis Set: (AUG-CC-PVTZ AUX)
    Blend: AUG-CC-PVTZ-RI
    Molecular point group: c1

    Geometry (in Angstrom), charge = 0, multiplicity = 1:

       Center              X                  Y                   Z               Mass
    ------------   -----------------  -----------------  -----------------  -----------------
         O           -1.445127487302     1.816667563244    -0.028541790399    15.994914619570
         O            2.857609512698     0.236227563244    -0.028622790399    15.994914619570
         N           -1.140160487302    -0.479564436756    -0.028365790399    14.003074004430
         N            0.684340512698     0.959642563244    -0.028282790399    14.003074004430
         C           -0.699570487302     0.841122563244    -0.028869790399    12.000000000000
         C           -0.254777487302    -1.540055436756    -0.028520790399    12.000000000000
         C           -2.578799487302    -0.735247436756    -0.028635790399    12.000000000000
         C            1.088562012698    -1.382366836756     0.271511209601    12.000000000000
         C            1.659807512698    -0.044221436756    -0.028781790399    12.000000000000
         H           -0.726871487302    -2.518276436756    -0.028385790399     1.007825032230
         H           -2.861943487302    -1.296257436756     0.865070209601     1.007825032230
         H           -2.861330487302    -1.297337436756    -0.921905790399     1.007825032230
         H           -3.079292487302     0.230228563244    -0.029380790399     1.007825032230
         H            1.023701512698     1.919217563244    -0.028245790399     1.007825032230
         H            1.766160512698    -2.226202436756    -0.028649790399     1.007825032230

  Basis Set: AUG-CC-PVTZ
    Blend: AUG-CC-PVTZ
  Basis Set: (AUG-CC-PVTZ AUX)
    Blend: AUG-CC-PVTZ-JKFIT
	 Reference Energy          =    -451.6376858501802189 [Eh]
	 Singles Energy            =      -0.0000000000000000 [Eh]
	 Same-Spin Energy          =      -0.4591087147623883 [Eh]
	 Opposite-Spin Energy      =      -1.3878205446398360 [Eh]
	 Correlation Energy        =      -1.8469292594022244 [Eh]
	 Total Energy              =    -453.4846151095824212 [Eh]

	 ================> DF-SCS-MP2 Energies <==================
	-----------------------------------------------------------
	 SCS Same-Spin Scale       =       0.3333333333333333 [-]
	 SCS Opposite-Spin Scale   =       1.2000000000000000 [-]
	 SCS Same-Spin Energy      =      -0.1530362382541294 [Eh]
	 SCS Opposite-Spin Energy  =      -1.6653846535678032 [Eh]
	 SCS Correlation Energy    =      -1.8184208918219327 [Eh]
	 SCS Total Energy          =    -453.4561067420021345 [Eh]
	-----------------------------------------------------------

  Dipole Moment: [D]
     X:    -3.3628      Y:    -3.3629      Z:    -0.2721     Total:     4.7635

*** Psi4 exiting successfully. Buy a developer a beer!
