                               Psi4 1.3.2 release

  ==> Input File <==

--------------------------------------------------------------------------
#psi4
#
memory 32 gb

molecule  {
0 1
  O       -1.3945310     1.8555980     0.0000210
  O        2.9082060     0.2751580    -0.0000600
  N       -1.0895640    -0.4406340     0.0001970
  N        0.7349370     0.9985730     0.0002800
  C       -0.6489740     0.8800530    -0.0003070
  C       -0.2041810    -1.5011250     0.0000420
  C       -2.5282030    -0.6963170    -0.0000730
  C        1.1391180    -1.3434170     0.0000740
  C        1.7104040    -0.0052910    -0.0002190
  H       -0.6762750    -2.4793460     0.0001770
  H       -2.8113470    -1.2573270     0.8936330
  H       -2.8107340    -1.2584070    -0.8933430
  H       -3.0286960     0.2691590    -0.0008180
  H        1.0742980     1.9581480     0.0003170
  H        1.8167356    -2.1872882    -0.2500870
units angstrom
no_reorient  #important for SAPT in psi4, default
symmetry c1  #important for SAPT in psi4, default
}

set PROPERTIES_ORIGIN ["COM"]
properties('MP2/aug-cc-pvtz', properties = ['dipole'])
--------------------------------------------------------------------------

    Molecular point group: c1
  Charge       = 0
  Multiplicity = 1
  Basis Set: AUG-CC-PVTZ
    Blend: AUG-CC-PVTZ
  Basis Set: (AUG-CC-PVTZ AUX)
    Blend: AUG-CC-PVTZ-JKFIT

    Orbital Energies [Eh]
    ---------------------

    Doubly Occupied:

       1A    -20.545925     2A    -20.538785     3A    -15.645064
       4A    -15.626705     5A    -11.418895     6A    -11.379770
       7A    -11.337873     8A    -11.290291     9A    -11.258232
      10A     -1.428695    11A     -1.388099    12A     -1.312771
      13A     -1.245826    14A     -1.090657    15A     -0.989853
      16A     -0.930644    17A     -0.871746    18A     -0.771636
      19A     -0.750428    20A     -0.700183    21A     -0.685690
      22A     -0.657041    23A     -0.644015    24A     -0.615946
      25A     -0.605871    26A     -0.602332    27A     -0.570754
      28A     -0.553241    29A     -0.499169    30A     -0.480250
      31A     -0.446087    32A     -0.433110    33A     -0.360534

  @DF-RHF Final Energy:  -451.65671699487496

   => Energetics <=

    Nuclear Repulsion Energy =            441.0634910857510249
    One-Electron Energy =               -1490.0881880378831283
    Two-Electron Energy =                 597.3679799572572620
    Total Energy =                       -451.6567169948749552
  Basis Set: (AUG-CC-PVTZ AUX)
    Blend: AUG-CC-PVTZ-RI
    Molecular point group: c1

    Geometry (in Angstrom), charge = 0, multiplicity = 1:

       Center              X                  Y                   Z               Mass
    ------------   -----------------  -----------------  -----------------  -----------------
         O           -1.445123460361     1.816665845788     0.002018879178    15.994914619570
         O            2.857613539639     0.236225845788     0.001937879178    15.994914619570
         N           -1.140156460361    -0.479566154212     0.002194879178    14.003074004430
         N            0.684344539639     0.959640845788     0.002277879178    14.003074004430
         C           -0.699566460361     0.841120845788     0.001690879178    12.000000000000
         C           -0.254773460361    -1.540057154212     0.002039879178    12.000000000000
         C           -2.578795460361    -0.735249154212     0.001924879178    12.000000000000
         C            1.088525539639    -1.382349154212     0.002071879178    12.000000000000
         C            1.659811539639    -0.044223154212     0.001778879178    12.000000000000
         H           -0.726867460361    -2.518278154212     0.002174879178     1.007825032230
         H           -2.861939460361    -1.296259154212     0.895630879178     1.007825032230
         H           -2.861326460361    -1.297339154212    -0.891345120822     1.007825032230
         H           -3.079288460361     0.230226845788     0.001179879178     1.007825032230
         H            1.023705539639     1.919215845788     0.002314879178     1.007825032230
         H            1.766143139639    -2.226220354212    -0.248089120822     1.007825032230

  Basis Set: AUG-CC-PVTZ
    Blend: AUG-CC-PVTZ
  Basis Set: (AUG-CC-PVTZ AUX)
    Blend: AUG-CC-PVTZ-JKFIT
	 Reference Energy          =    -451.6567169948749552 [Eh]
	 Singles Energy            =      -0.0000000000000000 [Eh]
	 Same-Spin Energy          =      -0.4582209381483882 [Eh]
	 Opposite-Spin Energy      =      -1.3851726681983612 [Eh]
	 Correlation Energy        =      -1.8433936063467493 [Eh]
	 Total Energy              =    -453.5001106012217065 [Eh]

	 ================> DF-SCS-MP2 Energies <==================
	-----------------------------------------------------------
	 SCS Same-Spin Scale       =       0.3333333333333333 [-]
	 SCS Opposite-Spin Scale   =       1.2000000000000000 [-]
	 SCS Same-Spin Energy      =      -0.1527403127161294 [Eh]
	 SCS Opposite-Spin Energy  =      -1.6622072018380334 [Eh]
	 SCS Correlation Energy    =      -1.8149475145541627 [Eh]
	 SCS Total Energy          =    -453.4716645094291039 [Eh]
	-----------------------------------------------------------

  Dipole Moment: [D]
     X:    -3.2664      Y:    -3.5040      Z:    -0.1806     Total:     4.7938

*** Psi4 exiting successfully. Buy a developer a beer!
