                               Psi4 1.3.2 release

  ==> Input File <==

--------------------------------------------------------------------------
#psi4
#
memory 32 gb

molecule  {
0 1
  O       -1.3945310     1.8555980     0.0000210
  O        2.9082060     0.2751580    -0.0000600
  N       -1.0895640    -0.4406340     0.0001970
  N        0.7349082     0.9985922     0.3002800
  C       -0.6489740     0.8800530    -0.0003070
  C       -0.2041810    -1.5011250     0.0000420
  C       -2.5282030    -0.6963170    -0.0000730
  C        1.1391180    -1.3434170     0.0000740
  C        1.7104040    -0.0052910    -0.0002190
  H       -0.6762750    -2.4793460     0.0001770
  H       -2.8113470    -1.2573270     0.8936330
  H       -2.8107340    -1.2584070    -0.8933430
  H       -3.0286960     0.2691590    -0.0008180
  H        1.0742980     1.9581480     0.0003170
  H        1.8167570    -2.1872720    -0.0000870
units angstrom
no_reorient  #important for SAPT in psi4, default
symmetry c1  #important for SAPT in psi4, default
}

set PROPERTIES_ORIGIN ["COM"]
properties('MP2/aug-cc-pvtz', properties = ['dipole'])
--------------------------------------------------------------------------

    Molecular point group: c1
  Charge       = 0
  Multiplicity = 1
  Basis Set: AUG-CC-PVTZ
    Blend: AUG-CC-PVTZ
  Basis Set: (AUG-CC-PVTZ AUX)
    Blend: AUG-CC-PVTZ-JKFIT

    Orbital Energies [Eh]
    ---------------------

    Doubly Occupied:

       1A    -20.550440     2A    -20.544870     3A    -15.644408
       4A    -15.627882     5A    -11.419097     6A    -11.380868
       7A    -11.337928     8A    -11.290294     9A    -11.256455
      10A     -1.426631    11A     -1.389706    12A     -1.312217
      13A     -1.232806    14A     -1.090511    15A     -0.987260
      16A     -0.927289    17A     -0.857524    18A     -0.762615
      19A     -0.741755    20A     -0.697183    21A     -0.685307
      22A     -0.653811    23A     -0.645395    24A     -0.612517
      25A     -0.608792    26A     -0.600467    27A     -0.570161
      28A     -0.552809    29A     -0.500257    30A     -0.483870
      31A     -0.447700    32A     -0.436235    33A     -0.360834

  @DF-RHF Final Energy:  -451.64380407417570

   => Energetics <=

    Nuclear Repulsion Energy =            439.8413170461723212
    One-Electron Energy =               -1487.6984623128787462
    Two-Electron Energy =                 596.2133411925308337
    Total Energy =                       -451.6438040741757050
  Basis Set: (AUG-CC-PVTZ AUX)
    Blend: AUG-CC-PVTZ-RI
    Molecular point group: c1

    Geometry (in Angstrom), charge = 0, multiplicity = 1:

       Center              X                  Y                   Z               Mass
    ------------   -----------------  -----------------  -----------------  -----------------
         O           -1.445120431861     1.816663583179    -0.033309389927    15.994914619570
         O            2.857616568139     0.236223583179    -0.033390389927    15.994914619570
         N           -1.140153431861    -0.479568416821    -0.033133389927    14.003074004430
         N            0.684318768139     0.959657783179     0.266949610073    14.003074004430
         C           -0.699563431861     0.841118583179    -0.033637389927    12.000000000000
         C           -0.254770431861    -1.540059416821    -0.033288389927    12.000000000000
         C           -2.578792431861    -0.735251416821    -0.033403389927    12.000000000000
         C            1.088528568139    -1.382351416821    -0.033256389927    12.000000000000
         C            1.659814568139    -0.044225416821    -0.033549389927    12.000000000000
         H           -0.726864431861    -2.518280416821    -0.033153389927     1.007825032230
         H           -2.861936431861    -1.296261416821     0.860302610073     1.007825032230
         H           -2.861323431861    -1.297341416821    -0.926673389927     1.007825032230
         H           -3.079285431861     0.230224583179    -0.034148389927     1.007825032230
         H            1.023708568139     1.919213583179    -0.033013389927     1.007825032230
         H            1.766167568139    -2.226206416821    -0.033417389927     1.007825032230

  Basis Set: AUG-CC-PVTZ
    Blend: AUG-CC-PVTZ
  Basis Set: (AUG-CC-PVTZ AUX)
    Blend: AUG-CC-PVTZ-JKFIT
	 Reference Energy          =    -451.6438040741757050 [Eh]
	 Singles Energy            =      -0.0000000000000000 [Eh]
	 Same-Spin Energy          =      -0.4588468570859322 [Eh]
	 Opposite-Spin Energy      =      -1.3878334018325464 [Eh]
	 Correlation Energy        =      -1.8466802589184788 [Eh]
	 Total Energy              =    -453.4904843330941731 [Eh]

	 ================> DF-SCS-MP2 Energies <==================
	-----------------------------------------------------------
	 SCS Same-Spin Scale       =       0.3333333333333333 [-]
	 SCS Opposite-Spin Scale   =       1.2000000000000000 [-]
	 SCS Same-Spin Energy      =      -0.1529489523619774 [Eh]
	 SCS Opposite-Spin Energy  =      -1.6654000821990558 [Eh]
	 SCS Correlation Energy    =      -1.8183490345610331 [Eh]
	 SCS Total Energy          =    -453.4621531087367430 [Eh]
	-----------------------------------------------------------

  Dipole Moment: [D]
     X:    -3.2246      Y:    -3.6106      Z:    -0.4109     Total:     4.8583

*** Psi4 exiting successfully. Buy a developer a beer!
