                               Psi4 1.3.2 release

  ==> Input File <==

--------------------------------------------------------------------------
#psi4
#
memory 32 gb

molecule  {
0 1
  O       -1.3945310     1.8555980     0.0000210
  O        2.9082060     0.2751580    -0.0000600
  N       -1.0895640    -0.4406340     0.0001970
  N        0.7349274     0.9985794     0.1002800
  C       -0.6489740     0.8800530    -0.0003070
  C       -0.2041810    -1.5011250     0.0000420
  C       -2.5282030    -0.6963170    -0.0000730
  C        1.1391180    -1.3434170     0.0000740
  C        1.7104040    -0.0052910    -0.0002190
  H       -0.6762750    -2.4793460     0.0001770
  H       -2.8113470    -1.2573270     0.8936330
  H       -2.8107340    -1.2584070    -0.8933430
  H       -3.0286960     0.2691590    -0.0008180
  H        1.0742980     1.9581480     0.0003170
  H        1.8167570    -2.1872720    -0.0000870
units angstrom
no_reorient  #important for SAPT in psi4, default
symmetry c1  #important for SAPT in psi4, default
}

set PROPERTIES_ORIGIN ["COM"]
properties('MP2/aug-cc-pvtz', properties = ['dipole'])
--------------------------------------------------------------------------

    Molecular point group: c1
  Charge       = 0
  Multiplicity = 1
  Basis Set: AUG-CC-PVTZ
    Blend: AUG-CC-PVTZ
  Basis Set: (AUG-CC-PVTZ AUX)
    Blend: AUG-CC-PVTZ-JKFIT

    Orbital Energies [Eh]
    ---------------------

    Doubly Occupied:

       1A    -20.546088     2A    -20.539542     3A    -15.644470
       4A    -15.626629     5A    -11.418606     6A    -11.379965
       7A    -11.337234     8A    -11.290030     9A    -11.256184
      10A     -1.428135    11A     -1.388317    12A     -1.312326
      13A     -1.244229    14A     -1.091093    15A     -0.989337
      16A     -0.930226    17A     -0.870548    18A     -0.770697
      19A     -0.751047    20A     -0.699667    21A     -0.685153
      22A     -0.657427    23A     -0.644390    24A     -0.614553
      25A     -0.610064    26A     -0.602157    27A     -0.571726
      28A     -0.554050    29A     -0.499503    30A     -0.480435
      31A     -0.446335    32A     -0.433510    33A     -0.360671

  @DF-RHF Final Energy:  -451.65884496506555

   => Energetics <=

    Nuclear Repulsion Energy =            441.0233193811233718
    One-Electron Energy =               -1490.0156401100875883
    Two-Electron Energy =                 597.3334757638986048
    Total Energy =                       -451.6588449650655548
  Basis Set: (AUG-CC-PVTZ AUX)
    Blend: AUG-CC-PVTZ-RI
    Molecular point group: c1

    Geometry (in Angstrom), charge = 0, multiplicity = 1:

       Center              X                  Y                   Z               Mass
    ------------   -----------------  -----------------  -----------------  -----------------
         O           -1.445122564936     1.816665005229    -0.011089858393    15.994914619570
         O            2.857614435064     0.236225005229    -0.011170858393    15.994914619570
         N           -1.140155564936    -0.479566994771    -0.010913858393    14.003074004430
         N            0.684335835064     0.959646405229     0.089169141607    14.003074004430
         C           -0.699565564936     0.841120005229    -0.011417858393    12.000000000000
         C           -0.254772564936    -1.540057994771    -0.011068858393    12.000000000000
         C           -2.578794564936    -0.735249994771    -0.011183858393    12.000000000000
         C            1.088526435064    -1.382349994771    -0.011036858393    12.000000000000
         C            1.659812435064    -0.044223994771    -0.011329858393    12.000000000000
         H           -0.726866564936    -2.518278994771    -0.010933858393     1.007825032230
         H           -2.861938564936    -1.296259994771     0.882522141607     1.007825032230
         H           -2.861325564936    -1.297339994771    -0.904453858393     1.007825032230
         H           -3.079287564936     0.230226005229    -0.011928858393     1.007825032230
         H            1.023706435064     1.919215005229    -0.010793858393     1.007825032230
         H            1.766165435064    -2.226204994771    -0.011197858393     1.007825032230

  Basis Set: AUG-CC-PVTZ
    Blend: AUG-CC-PVTZ
  Basis Set: (AUG-CC-PVTZ AUX)
    Blend: AUG-CC-PVTZ-JKFIT
	 Reference Energy          =    -451.6588449650655548 [Eh]
	 Singles Energy            =      -0.0000000000000000 [Eh]
	 Same-Spin Energy          =      -0.4581328235316231 [Eh]
	 Opposite-Spin Energy      =      -1.3850771088012037 [Eh]
	 Correlation Energy        =      -1.8432099323328268 [Eh]
	 Total Energy              =    -453.5020548973984091 [Eh]

	 ================> DF-SCS-MP2 Energies <==================
	-----------------------------------------------------------
	 SCS Same-Spin Scale       =       0.3333333333333333 [-]
	 SCS Opposite-Spin Scale   =       1.2000000000000000 [-]
	 SCS Same-Spin Energy      =      -0.1527109411772077 [Eh]
	 SCS Opposite-Spin Energy  =      -1.6620925305614445 [Eh]
	 SCS Correlation Energy    =      -1.8148034717386521 [Eh]
	 SCS Total Energy          =    -453.4736484368041829 [Eh]
	-----------------------------------------------------------

  Dipole Moment: [D]
     X:    -3.2338      Y:    -3.5483      Z:    -0.1331     Total:     4.8027

*** Psi4 exiting successfully. Buy a developer a beer!
