                               Psi4 1.3.2 release

  ==> Input File <==

--------------------------------------------------------------------------
#psi4
#
memory 32 gb

molecule  {
0 1
  O       -1.3945310     1.8555980     0.0000210
  O        2.9082060     0.2751580    -0.0000600
  N       -1.0895640    -0.4406340     0.0001970
  N        0.7349370     0.9985730     0.0002800
  C       -0.6489740     0.8800530    -0.0003070
  C       -0.2041810    -1.5011250     0.0000420
  C       -2.5282030    -0.6963170    -0.0000730
  C        1.1391180    -1.3434170     0.0000740
  C        1.7104040    -0.0052910    -0.0002190
  H       -0.6762750    -2.4793460     0.0001770
  H       -2.8113470    -1.2573270     0.8936330
  H       -2.8107340    -1.2584070    -0.8933430
  H       -3.0286960     0.2691590    -0.0008180
  H        1.0742741     1.9580993     0.1503170
  H        1.8167570    -2.1872720    -0.0000870
units angstrom
no_reorient  #important for SAPT in psi4, default
symmetry c1  #important for SAPT in psi4, default
}

set PROPERTIES_ORIGIN ["COM"]
properties('MP2/aug-cc-pvtz', properties = ['dipole'])
--------------------------------------------------------------------------

    Molecular point group: c1
  Charge       = 0
  Multiplicity = 1
  Basis Set: AUG-CC-PVTZ
    Blend: AUG-CC-PVTZ
  Basis Set: (AUG-CC-PVTZ AUX)
    Blend: AUG-CC-PVTZ-JKFIT

    Orbital Energies [Eh]
    ---------------------

    Doubly Occupied:

       1A    -20.545538     2A    -20.538889     3A    -15.644436
       4A    -15.627066     5A    -11.418415     6A    -11.379715
       7A    -11.337139     8A    -11.289961     9A    -11.256107
      10A     -1.428189    11A     -1.388062    12A     -1.312303
      13A     -1.244632    14A     -1.091016    15A     -0.989515
      16A     -0.929904    17A     -0.872202    18A     -0.770880
      19A     -0.751049    20A     -0.699709    21A     -0.684842
      22A     -0.657476    23A     -0.644167    24A     -0.615657
      25A     -0.609706    26A     -0.601187    27A     -0.571519
      28A     -0.554157    29A     -0.499336    30A     -0.479941
      31A     -0.446152    32A     -0.433020    33A     -0.360604

  @DF-RHF Final Energy:  -451.65931576331639

   => Energetics <=

    Nuclear Repulsion Energy =            441.1195486603180598
    One-Electron Energy =               -1490.2127420513593279
    Two-Electron Energy =                 597.4338776277248826
    Total Energy =                       -451.6593157633163855
  Basis Set: (AUG-CC-PVTZ AUX)
    Blend: AUG-CC-PVTZ-RI
    Molecular point group: c1

    Geometry (in Angstrom), charge = 0, multiplicity = 1:

       Center              X                  Y                   Z               Mass
    ------------   -----------------  -----------------  -----------------  -----------------
         O           -1.445123440372     1.816666105654    -0.001179475709    15.994914619570
         O            2.857613559628     0.236226105654    -0.001260475709    15.994914619570
         N           -1.140156440372    -0.479565894346    -0.001003475709    14.003074004430
         N            0.684344559628     0.959641105654    -0.000920475709    14.003074004430
         C           -0.699566440372     0.841121105654    -0.001507475709    12.000000000000
         C           -0.254773440372    -1.540056894346    -0.001158475709    12.000000000000
         C           -2.578795440372    -0.735248894346    -0.001273475709    12.000000000000
         C            1.088525559628    -1.382348894346    -0.001126475709    12.000000000000
         C            1.659811559628    -0.044222894346    -0.001419475709    12.000000000000
         H           -0.726867440372    -2.518277894346    -0.001023475709     1.007825032230
         H           -2.861939440372    -1.296258894346     0.892432524291     1.007825032230
         H           -2.861326440372    -1.297338894346    -0.894543475709     1.007825032230
         H           -3.079288440372     0.230227105654    -0.002018475709     1.007825032230
         H            1.023681659628     1.919167405654     0.149116524291     1.007825032230
         H            1.766164559628    -2.226203894346    -0.001287475709     1.007825032230

  Basis Set: AUG-CC-PVTZ
    Blend: AUG-CC-PVTZ
  Basis Set: (AUG-CC-PVTZ AUX)
    Blend: AUG-CC-PVTZ-JKFIT
	 Reference Energy          =    -451.6593157633163855 [Eh]
	 Singles Energy            =      -0.0000000000000000 [Eh]
	 Same-Spin Energy          =      -0.4581554164758922 [Eh]
	 Opposite-Spin Energy      =      -1.3850453588944429 [Eh]
	 Correlation Energy        =      -1.8432007753703350 [Eh]
	 Total Energy              =    -453.5025165386867343 [Eh]

	 ================> DF-SCS-MP2 Energies <==================
	-----------------------------------------------------------
	 SCS Same-Spin Scale       =       0.3333333333333333 [-]
	 SCS Opposite-Spin Scale   =       1.2000000000000000 [-]
	 SCS Same-Spin Energy      =      -0.1527184721586307 [Eh]
	 SCS Opposite-Spin Energy  =      -1.6620544306733314 [Eh]
	 SCS Correlation Energy    =      -1.8147729028319621 [Eh]
	 SCS Total Energy          =    -453.4740886661483614 [Eh]
	-----------------------------------------------------------

  Dipole Moment: [D]
     X:    -3.2362      Y:    -3.5442      Z:     0.1942     Total:     4.8033

*** Psi4 exiting successfully. Buy a developer a beer!
