                               Psi4 1.3.2 release

  ==> Input File <==

--------------------------------------------------------------------------
#psi4
#
memory 32 gb

molecule  {
0 1
  O       -1.3945310     1.8555980     0.0000210
  O        2.9082060     0.2751580    -0.0000600
  N       -1.0895640    -0.4406340     0.0001970
  N        0.7349370     0.9985730     0.0002800
  C       -0.6489740     0.8800530    -0.0003070
  C       -0.2041810    -1.5011250     0.0000420
  C       -2.5282030    -0.6963170    -0.0000730
  C        1.1391180    -1.3434170     0.0000740
  C        1.7104040    -0.0052910    -0.0002190
  H       -0.6762917    -2.4793465    -0.2998230
  H       -2.8113470    -1.2573270     0.8936330
  H       -2.8107340    -1.2584070    -0.8933430
  H       -3.0286960     0.2691590    -0.0008180
  H        1.0742980     1.9581480     0.0003170
  H        1.8167570    -2.1872720    -0.0000870
units angstrom
no_reorient  #important for SAPT in psi4, default
symmetry c1  #important for SAPT in psi4, default
}

set PROPERTIES_ORIGIN ["COM"]
properties('MP2/aug-cc-pvtz', properties = ['dipole'])
--------------------------------------------------------------------------

    Molecular point group: c1
  Charge       = 0
  Multiplicity = 1
  Basis Set: AUG-CC-PVTZ
    Blend: AUG-CC-PVTZ
  Basis Set: (AUG-CC-PVTZ AUX)
    Blend: AUG-CC-PVTZ-JKFIT

    Orbital Energies [Eh]
    ---------------------

    Doubly Occupied:

       1A    -20.545440     2A    -20.539543     3A    -15.644071
       4A    -15.626897     5A    -11.418538     6A    -11.380495
       7A    -11.340351     8A    -11.289564     9A    -11.257578
      10A     -1.428384    11A     -1.388675    12A     -1.312022
      13A     -1.245780    14A     -1.090887    15A     -0.989363
      16A     -0.927524    17A     -0.872465    18A     -0.771820
      19A     -0.752286    20A     -0.696003    21A     -0.681300
      22A     -0.657301    23A     -0.643477    24A     -0.614951
      25A     -0.609816    26A     -0.600563    27A     -0.571604
      28A     -0.554443    29A     -0.499250    30A     -0.478163
      31A     -0.446528    32A     -0.433325    33A     -0.360862

  @DF-RHF Final Energy:  -451.65402965650048

   => Energetics <=

    Nuclear Repulsion Energy =            441.0114699494397428
    One-Electron Energy =               -1489.9924538422437763
    Two-Electron Energy =                 597.3269542363035498
    Total Energy =                       -451.6540296565004837
  Basis Set: (AUG-CC-PVTZ AUX)
    Blend: AUG-CC-PVTZ-RI
    Molecular point group: c1

    Geometry (in Angstrom), charge = 0, multiplicity = 1:

       Center              X                  Y                   Z               Mass
    ------------   -----------------  -----------------  -----------------  -----------------
         O           -1.445123497942     1.816665720252     0.002418673539    15.994914619570
         O            2.857613502058     0.236225720252     0.002337673539    15.994914619570
         N           -1.140156497942    -0.479566279748     0.002594673539    14.003074004430
         N            0.684344502058     0.959640720252     0.002677673539    14.003074004430
         C           -0.699566497942     0.841120720252     0.002090673539    12.000000000000
         C           -0.254773497942    -1.540057279748     0.002439673539    12.000000000000
         C           -2.578795497942    -0.735249279748     0.002324673539    12.000000000000
         C            1.088525502058    -1.382349279748     0.002471673539    12.000000000000
         C            1.659811502058    -0.044223279748     0.002178673539    12.000000000000
         H           -0.726884197942    -2.518278779748    -0.297425326461     1.007825032230
         H           -2.861939497942    -1.296259279748     0.896030673539     1.007825032230
         H           -2.861326497942    -1.297339279748    -0.890945326461     1.007825032230
         H           -3.079288497942     0.230226720252     0.001579673539     1.007825032230
         H            1.023705502058     1.919215720252     0.002714673539     1.007825032230
         H            1.766164502058    -2.226204279748     0.002310673539     1.007825032230

  Basis Set: AUG-CC-PVTZ
    Blend: AUG-CC-PVTZ
  Basis Set: (AUG-CC-PVTZ AUX)
    Blend: AUG-CC-PVTZ-JKFIT
	 Reference Energy          =    -451.6540296565004837 [Eh]
	 Singles Energy            =      -0.0000000000000000 [Eh]
	 Same-Spin Energy          =      -0.4584654877835884 [Eh]
	 Opposite-Spin Energy      =      -1.3857365949995515 [Eh]
	 Correlation Energy        =      -1.8442020827831400 [Eh]
	 Total Energy              =    -453.4982317392835967 [Eh]

	 ================> DF-SCS-MP2 Energies <==================
	-----------------------------------------------------------
	 SCS Same-Spin Scale       =       0.3333333333333333 [-]
	 SCS Opposite-Spin Scale   =       1.2000000000000000 [-]
	 SCS Same-Spin Energy      =      -0.1528218292611961 [Eh]
	 SCS Opposite-Spin Energy  =      -1.6628839139994618 [Eh]
	 SCS Correlation Energy    =      -1.8157057432606578 [Eh]
	 SCS Total Energy          =    -453.4697353997611344 [Eh]
	-----------------------------------------------------------

  Dipole Moment: [D]
     X:    -3.1786      Y:    -3.4990      Z:    -0.1800     Total:     4.7306

*** Psi4 exiting successfully. Buy a developer a beer!
