                               Psi4 1.3.2 release

  ==> Input File <==

--------------------------------------------------------------------------
#psi4
#
memory 32 gb

molecule  {
0 1
  O       -1.3945310     1.8555980     0.0000210
  O        2.9082060     0.2751580    -0.0000600
  N       -1.0895640    -0.4406340     0.0001970
  N        0.7349370     0.9985730     0.0002800
  C       -0.6489740     0.8800530    -0.0003070
  C       -0.2041810    -1.5011250     0.0000420
  C       -2.5282030    -0.6963170    -0.0000730
  C        1.1391382    -1.3434267     0.1500740
  C        1.7104040    -0.0052910    -0.0002190
  H       -0.6762750    -2.4793460     0.0001770
  H       -2.8113470    -1.2573270     0.8936330
  H       -2.8107340    -1.2584070    -0.8933430
  H       -3.0286960     0.2691590    -0.0008180
  H        1.0742980     1.9581480     0.0003170
  H        1.8167570    -2.1872720    -0.0000870
units angstrom
no_reorient  #important for SAPT in psi4, default
symmetry c1  #important for SAPT in psi4, default
}

set PROPERTIES_ORIGIN ["COM"]
properties('MP2/aug-cc-pvtz', properties = ['dipole'])
--------------------------------------------------------------------------

    Molecular point group: c1
  Charge       = 0
  Multiplicity = 1
  Basis Set: AUG-CC-PVTZ
    Blend: AUG-CC-PVTZ
  Basis Set: (AUG-CC-PVTZ AUX)
    Blend: AUG-CC-PVTZ-JKFIT

    Orbital Energies [Eh]
    ---------------------

    Doubly Occupied:

       1A    -20.546250     2A    -20.538885     3A    -15.645503
       4A    -15.626586     5A    -11.419121     6A    -11.380265
       7A    -11.339581     8A    -11.290506     9A    -11.257663
      10A     -1.428845    11A     -1.388040    12A     -1.312932
      13A     -1.245813    14A     -1.089237    15A     -0.990013
      16A     -0.930188    17A     -0.871887    18A     -0.770841
      19A     -0.750455    20A     -0.700302    21A     -0.685500
      22A     -0.657533    23A     -0.643998    24A     -0.616177
      25A     -0.607152    26A     -0.601084    27A     -0.570918
      28A     -0.553745    29A     -0.498993    30A     -0.480101
      31A     -0.445599    32A     -0.433154    33A     -0.360830

  @DF-RHF Final Energy:  -451.65496335988166

   => Energetics <=

    Nuclear Repulsion Energy =            440.9123041079502059
    One-Electron Energy =               -1489.7791358064055203
    Two-Electron Energy =                 597.2118683385737086
    Total Energy =                       -451.6549633598816627
  Basis Set: (AUG-CC-PVTZ AUX)
    Blend: AUG-CC-PVTZ-RI
    Molecular point group: c1

    Geometry (in Angstrom), charge = 0, multiplicity = 1:

       Center              X                  Y                   Z               Mass
    ------------   -----------------  -----------------  -----------------  -----------------
         O           -1.445125554628     1.816666639749    -0.014260941513    15.994914619570
         O            2.857611445372     0.236226639749    -0.014341941513    15.994914619570
         N           -1.140158554628    -0.479565360251    -0.014084941513    14.003074004430
         N            0.684342445372     0.959641639749    -0.014001941513    14.003074004430
         C           -0.699568554628     0.841121639749    -0.014588941513    12.000000000000
         C           -0.254775554628    -1.540056360251    -0.014239941513    12.000000000000
         C           -2.578797554628    -0.735248360251    -0.014354941513    12.000000000000
         C            1.088543645372    -1.382358060251     0.135792058487    12.000000000000
         C            1.659809445372    -0.044222360251    -0.014500941513    12.000000000000
         H           -0.726869554628    -2.518277360251    -0.014104941513     1.007825032230
         H           -2.861941554628    -1.296258360251     0.879351058487     1.007825032230
         H           -2.861328554628    -1.297338360251    -0.907624941513     1.007825032230
         H           -3.079290554628     0.230227639749    -0.015099941513     1.007825032230
         H            1.023703445372     1.919216639749    -0.013964941513     1.007825032230
         H            1.766162445372    -2.226203360251    -0.014368941513     1.007825032230

  Basis Set: AUG-CC-PVTZ
    Blend: AUG-CC-PVTZ
  Basis Set: (AUG-CC-PVTZ AUX)
    Blend: AUG-CC-PVTZ-JKFIT
	 Reference Energy          =    -451.6549633598816627 [Eh]
	 Singles Energy            =      -0.0000000000000000 [Eh]
	 Same-Spin Energy          =      -0.4583163121174293 [Eh]
	 Opposite-Spin Energy      =      -1.3854669359972638 [Eh]
	 Correlation Energy        =      -1.8437832481146930 [Eh]
	 Total Energy              =    -453.4987466079963383 [Eh]

	 ================> DF-SCS-MP2 Energies <==================
	-----------------------------------------------------------
	 SCS Same-Spin Scale       =       0.3333333333333333 [-]
	 SCS Opposite-Spin Scale   =       1.2000000000000000 [-]
	 SCS Same-Spin Energy      =      -0.1527721040391431 [Eh]
	 SCS Opposite-Spin Energy  =      -1.6625603231967165 [Eh]
	 SCS Correlation Energy    =      -1.8153324272358597 [Eh]
	 SCS Total Energy          =    -453.4702957871175499 [Eh]
	-----------------------------------------------------------

  Dipole Moment: [D]
     X:    -3.2686      Y:    -3.4955      Z:    -0.1320     Total:     4.7874

*** Psi4 exiting successfully. Buy a developer a beer!
