                               Psi4 1.3.2 release

  ==> Input File <==

--------------------------------------------------------------------------
#psi4
#
memory 32 gb

molecule  {
0 1
  O       -1.3945310     1.8555980     0.0000210
  O        2.9082060     0.2751580    -0.0000600
  N       -1.0895640    -0.4406340     0.0001970
  N        0.7349370     0.9985730     0.0002800
  C       -0.6489740     0.8800530    -0.0003070
  C       -0.2041810    -1.5011250     0.0000420
  C       -2.5282030    -0.6963170    -0.0000730
  C        1.1391180    -1.3434170     0.0000740
  C        1.7104040    -0.0052910    -0.0002190
  H       -0.6762778    -2.4793461    -0.0498230
  H       -2.8113470    -1.2573270     0.8936330
  H       -2.8107340    -1.2584070    -0.8933430
  H       -3.0286960     0.2691590    -0.0008180
  H        1.0742980     1.9581480     0.0003170
  H        1.8167570    -2.1872720    -0.0000870
units angstrom
no_reorient  #important for SAPT in psi4, default
symmetry c1  #important for SAPT in psi4, default
}

set PROPERTIES_ORIGIN ["COM"]
properties('MP2/aug-cc-pvtz', properties = ['dipole'])
--------------------------------------------------------------------------

    Molecular point group: c1
  Charge       = 0
  Multiplicity = 1
  Basis Set: AUG-CC-PVTZ
    Blend: AUG-CC-PVTZ
  Basis Set: (AUG-CC-PVTZ AUX)
    Blend: AUG-CC-PVTZ-JKFIT

    Orbital Energies [Eh]
    ---------------------

    Doubly Occupied:

       1A    -20.545493     2A    -20.538834     3A    -15.644471
       4A    -15.626585     5A    -11.418537     6A    -11.379867
       7A    -11.337230     8A    -11.289985     9A    -11.256199
      10A     -1.428365    11A     -1.388147    12A     -1.312328
      13A     -1.245649    14A     -1.091165    15A     -0.989651
      16A     -0.930597    17A     -0.872361    18A     -0.771977
      19A     -0.752252    20A     -0.699755    21A     -0.685126
      22A     -0.657824    23A     -0.644199    24A     -0.614937
      25A     -0.610178    26A     -0.602224    27A     -0.571856
      28A     -0.554224    29A     -0.499430    30A     -0.479927
      31A     -0.446146    32A     -0.433072    33A     -0.360655

  @DF-RHF Final Energy:  -451.66038366558354

   => Energetics <=

    Nuclear Repulsion Energy =            441.1716097418650975
    One-Electron Energy =               -1490.3054961915818240
    Two-Electron Energy =                 597.4735027841331885
    Total Energy =                       -451.6603836655835948
  Basis Set: (AUG-CC-PVTZ AUX)
    Blend: AUG-CC-PVTZ-RI
    Molecular point group: c1

    Geometry (in Angstrom), charge = 0, multiplicity = 1:

       Center              X                  Y                   Z               Mass
    ------------   -----------------  -----------------  -----------------  -----------------
         O           -1.445123609085     1.816665717054     0.000419701735    15.994914619570
         O            2.857613390915     0.236225717054     0.000338701735    15.994914619570
         N           -1.140156609085    -0.479566282946     0.000595701735    14.003074004430
         N            0.684344390915     0.959640717054     0.000678701735    14.003074004430
         C           -0.699566609085     0.841120717054     0.000091701735    12.000000000000
         C           -0.254773609085    -1.540057282946     0.000440701735    12.000000000000
         C           -2.578795609085    -0.735249282946     0.000325701735    12.000000000000
         C            1.088525390915    -1.382349282946     0.000472701735    12.000000000000
         C            1.659811390915    -0.044223282946     0.000179701735    12.000000000000
         H           -0.726870409085    -2.518278382946    -0.049424298265     1.007825032230
         H           -2.861939609085    -1.296259282946     0.894031701735     1.007825032230
         H           -2.861326609085    -1.297339282946    -0.892944298265     1.007825032230
         H           -3.079288609085     0.230226717054    -0.000419298265     1.007825032230
         H            1.023705390915     1.919215717054     0.000715701735     1.007825032230
         H            1.766164390915    -2.226204282946     0.000311701735     1.007825032230

  Basis Set: AUG-CC-PVTZ
    Blend: AUG-CC-PVTZ
  Basis Set: (AUG-CC-PVTZ AUX)
    Blend: AUG-CC-PVTZ-JKFIT
	 Reference Energy          =    -451.6603836655835380 [Eh]
	 Singles Energy            =      -0.0000000000000000 [Eh]
	 Same-Spin Energy          =      -0.4580642786493510 [Eh]
	 Opposite-Spin Energy      =      -1.3848396104877070 [Eh]
	 Correlation Energy        =      -1.8429038891370579 [Eh]
	 Total Energy              =    -453.5032875547206004 [Eh]

	 ================> DF-SCS-MP2 Energies <==================
	-----------------------------------------------------------
	 SCS Same-Spin Scale       =       0.3333333333333333 [-]
	 SCS Opposite-Spin Scale   =       1.2000000000000000 [-]
	 SCS Same-Spin Energy      =      -0.1526880928831170 [Eh]
	 SCS Opposite-Spin Energy  =      -1.6618075325852484 [Eh]
	 SCS Correlation Energy    =      -1.8144956254683653 [Eh]
	 SCS Total Energy          =    -453.4748792910518773 [Eh]
	-----------------------------------------------------------

  Dipole Moment: [D]
     X:    -3.2339      Y:    -3.5391      Z:    -0.0312     Total:     4.7942

*** Psi4 exiting successfully. Buy a developer a beer!
