                               Psi4 1.3.2 release

  ==> Input File <==

--------------------------------------------------------------------------
#psi4
#
memory 32 gb

molecule  {
0 1
  O       -1.3945310     1.8555980     0.0000210
  O        2.9082060     0.2751580    -0.0000600
  N       -1.0895640    -0.4406340     0.0001970
  N        0.7349370     0.9985730     0.0002800
  C       -0.6489740     0.8800530    -0.0003070
  C       -0.2041810    -1.5011250     0.0000420
  C       -2.5282030    -0.6963170    -0.0000730
  C        1.1391247    -1.3434202     0.0500740
  C        1.7104040    -0.0052910    -0.0002190
  H       -0.6762750    -2.4793460     0.0001770
  H       -2.8113470    -1.2573270     0.8936330
  H       -2.8107340    -1.2584070    -0.8933430
  H       -3.0286960     0.2691590    -0.0008180
  H        1.0742980     1.9581480     0.0003170
  H        1.8167570    -2.1872720    -0.0000870
units angstrom
no_reorient  #important for SAPT in psi4, default
symmetry c1  #important for SAPT in psi4, default
}

set PROPERTIES_ORIGIN ["COM"]
properties('MP2/aug-cc-pvtz', properties = ['dipole'])
--------------------------------------------------------------------------

    Molecular point group: c1
  Charge       = 0
  Multiplicity = 1
  Basis Set: AUG-CC-PVTZ
    Blend: AUG-CC-PVTZ
  Basis Set: (AUG-CC-PVTZ AUX)
    Blend: AUG-CC-PVTZ-JKFIT

    Orbital Energies [Eh]
    ---------------------

    Doubly Occupied:

       1A    -20.545579     2A    -20.538821     3A    -15.644598
       4A    -15.626577     5A    -11.418603     6A    -11.379896
       7A    -11.337413     8A    -11.290054     9A    -11.256327
      10A     -1.428418    11A     -1.388121    12A     -1.312404
      13A     -1.245664    14A     -1.090957    15A     -0.989700
      16A     -0.930634    17A     -0.872305    18A     -0.771851
      19A     -0.752045    20A     -0.699939    21A     -0.685257
      22A     -0.657795    23A     -0.644190    24A     -0.615135
      25A     -0.609790    26A     -0.602126    27A     -0.571768
      28A     -0.554166    29A     -0.499386    30A     -0.479991
      31A     -0.446076    32A     -0.433075    33A     -0.360667

  @DF-RHF Final Energy:  -451.65992593896760

   => Energetics <=

    Nuclear Repulsion Energy =            441.1466502987602212
    One-Electron Energy =               -1490.2544962715462589
    Two-Electron Energy =                 597.4479200338183773
    Total Energy =                       -451.6599259389676035
  Basis Set: (AUG-CC-PVTZ AUX)
    Blend: AUG-CC-PVTZ-RI
    Molecular point group: c1

    Geometry (in Angstrom), charge = 0, multiplicity = 1:

       Center              X                  Y                   Z               Mass
    ------------   -----------------  -----------------  -----------------  -----------------
         O           -1.445124269351     1.816666020913    -0.004740375588    15.994914619570
         O            2.857612730649     0.236226020913    -0.004821375588    15.994914619570
         N           -1.140157269351    -0.479565979087    -0.004564375588    14.003074004430
         N            0.684343730649     0.959641020913    -0.004481375588    14.003074004430
         C           -0.699567269351     0.841121020913    -0.005068375588    12.000000000000
         C           -0.254774269351    -1.540056979087    -0.004719375588    12.000000000000
         C           -2.578796269351    -0.735248979087    -0.004834375588    12.000000000000
         C            1.088531430649    -1.382352179087     0.045312624412    12.000000000000
         C            1.659810730649    -0.044222979087    -0.004980375588    12.000000000000
         H           -0.726868269351    -2.518277979087    -0.004584375588     1.007825032230
         H           -2.861940269351    -1.296258979087     0.888871624412     1.007825032230
         H           -2.861327269351    -1.297338979087    -0.898104375588     1.007825032230
         H           -3.079289269351     0.230227020913    -0.005579375588     1.007825032230
         H            1.023704730649     1.919216020913    -0.004444375588     1.007825032230
         H            1.766163730649    -2.226203979087    -0.004848375588     1.007825032230

  Basis Set: AUG-CC-PVTZ
    Blend: AUG-CC-PVTZ
  Basis Set: (AUG-CC-PVTZ AUX)
    Blend: AUG-CC-PVTZ-JKFIT
	 Reference Energy          =    -451.6599259389676035 [Eh]
	 Singles Energy            =      -0.0000000000000000 [Eh]
	 Same-Spin Energy          =      -0.4580815867066368 [Eh]
	 Opposite-Spin Energy      =      -1.3848749834071865 [Eh]
	 Correlation Energy        =      -1.8429565701138233 [Eh]
	 Total Energy              =    -453.5028825090814166 [Eh]

	 ================> DF-SCS-MP2 Energies <==================
	-----------------------------------------------------------
	 SCS Same-Spin Scale       =       0.3333333333333333 [-]
	 SCS Opposite-Spin Scale   =       1.2000000000000000 [-]
	 SCS Same-Spin Energy      =      -0.1526938622355456 [Eh]
	 SCS Opposite-Spin Energy  =      -1.6618499800886237 [Eh]
	 SCS Correlation Energy    =      -1.8145438423241693 [Eh]
	 SCS Total Energy          =    -453.4744697812917593 [Eh]
	-----------------------------------------------------------

  Dipole Moment: [D]
     X:    -3.2392      Y:    -3.5353      Z:    -0.0441     Total:     4.7951

*** Psi4 exiting successfully. Buy a developer a beer!
