                               Psi4 1.3.2 release

  ==> Input File <==

--------------------------------------------------------------------------
#psi4
#
memory 32 gb

molecule  {
0 1
  O       -1.3945310     1.8555980     0.0000210
  O        2.9082060     0.2751580    -0.0000600
  N       -1.0895640    -0.4406340     0.0001970
  N        0.7349178     0.9985858     0.2002800
  C       -0.6489740     0.8800530    -0.0003070
  C       -0.2041810    -1.5011250     0.0000420
  C       -2.5282030    -0.6963170    -0.0000730
  C        1.1391180    -1.3434170     0.0000740
  C        1.7104040    -0.0052910    -0.0002190
  H       -0.6762750    -2.4793460     0.0001770
  H       -2.8113470    -1.2573270     0.8936330
  H       -2.8107340    -1.2584070    -0.8933430
  H       -3.0286960     0.2691590    -0.0008180
  H        1.0742980     1.9581480     0.0003170
  H        1.8167570    -2.1872720    -0.0000870
units angstrom
no_reorient  #important for SAPT in psi4, default
symmetry c1  #important for SAPT in psi4, default
}

set PROPERTIES_ORIGIN ["COM"]
properties('MP2/aug-cc-pvtz', properties = ['dipole'])
--------------------------------------------------------------------------

    Molecular point group: c1
  Charge       = 0
  Multiplicity = 1
  Basis Set: AUG-CC-PVTZ
    Blend: AUG-CC-PVTZ
  Basis Set: (AUG-CC-PVTZ AUX)
    Blend: AUG-CC-PVTZ-JKFIT

    Orbital Energies [Eh]
    ---------------------

    Doubly Occupied:

       1A    -20.547797     2A    -20.541636     3A    -15.644437
       4A    -15.626939     5A    -11.418802     6A    -11.380307
       7A    -11.337510     8A    -11.290129     9A    -11.256272
      10A     -1.427510    11A     -1.388856    12A     -1.312288
      13A     -1.239973    14A     -1.090862    15A     -0.988464
      16A     -0.928975    17A     -0.865378    18A     -0.767302
      19A     -0.747412    20A     -0.698864    21A     -0.685089
      22A     -0.656120    23A     -0.644850    24A     -0.613595
      25A     -0.609629    26A     -0.601694    27A     -0.571243
      28A     -0.553567    29A     -0.499739    30A     -0.481768
      31A     -0.446892    32A     -0.434706    33A     -0.360734

  @DF-RHF Final Energy:  -451.65350791600974

   => Energetics <=

    Nuclear Repulsion Energy =            440.5725700861586915
    One-Electron Energy =               -1489.1334757294121118
    Two-Electron Energy =                 596.9073977272436196
    Total Energy =                       -451.6535079160097439
  Basis Set: (AUG-CC-PVTZ AUX)
    Blend: AUG-CC-PVTZ-RI
    Molecular point group: c1

    Geometry (in Angstrom), charge = 0, multiplicity = 1:

       Center              X                  Y                   Z               Mass
    ------------   -----------------  -----------------  -----------------  -----------------
         O           -1.445121498398     1.816664294204    -0.022199624160    15.994914619570
         O            2.857615501602     0.236224294204    -0.022280624160    15.994914619570
         N           -1.140154498398    -0.479567705796    -0.022023624160    14.003074004430
         N            0.684327301602     0.959652094204     0.178059375840    14.003074004430
         C           -0.699564498398     0.841119294204    -0.022527624160    12.000000000000
         C           -0.254771498398    -1.540058705796    -0.022178624160    12.000000000000
         C           -2.578793498398    -0.735250705796    -0.022293624160    12.000000000000
         C            1.088527501602    -1.382350705796    -0.022146624160    12.000000000000
         C            1.659813501602    -0.044224705796    -0.022439624160    12.000000000000
         H           -0.726865498398    -2.518279705796    -0.022043624160     1.007825032230
         H           -2.861937498398    -1.296260705796     0.871412375840     1.007825032230
         H           -2.861324498398    -1.297340705796    -0.915563624160     1.007825032230
         H           -3.079286498398     0.230225294204    -0.023038624160     1.007825032230
         H            1.023707501602     1.919214294204    -0.021903624160     1.007825032230
         H            1.766166501602    -2.226205705796    -0.022307624160     1.007825032230

  Basis Set: AUG-CC-PVTZ
    Blend: AUG-CC-PVTZ
  Basis Set: (AUG-CC-PVTZ AUX)
    Blend: AUG-CC-PVTZ-JKFIT
	 Reference Energy          =    -451.6535079160097439 [Eh]
	 Singles Energy            =      -0.0000000000000000 [Eh]
	 Same-Spin Energy          =      -0.4583867250393527 [Eh]
	 Opposite-Spin Energy      =      -1.3860272613315110 [Eh]
	 Correlation Energy        =      -1.8444139863708637 [Eh]
	 Total Energy              =    -453.4979219023805967 [Eh]

	 ================> DF-SCS-MP2 Energies <==================
	-----------------------------------------------------------
	 SCS Same-Spin Scale       =       0.3333333333333333 [-]
	 SCS Opposite-Spin Scale   =       1.2000000000000000 [-]
	 SCS Same-Spin Energy      =      -0.1527955750131176 [Eh]
	 SCS Opposite-Spin Energy  =      -1.6632327135978131 [Eh]
	 SCS Correlation Energy    =      -1.8160282886109307 [Eh]
	 SCS Total Energy          =    -453.4695362046206810 [Eh]
	-----------------------------------------------------------

  Dipole Moment: [D]
     X:    -3.2297      Y:    -3.5719      Z:    -0.2694     Total:     4.8231

*** Psi4 exiting successfully. Buy a developer a beer!
