                               Psi4 1.3.2 release

  ==> Input File <==

--------------------------------------------------------------------------
#psi4
#
memory 32 gb

molecule  {
0 1
  O       -1.3945310     1.8555980     0.0000210
  O        2.9082060     0.2751580    -0.0000600
  N       -1.0895640    -0.4406340     0.0001970
  N        0.7349370     0.9985730     0.0002800
  C       -0.6489740     0.8800530    -0.0003070
  C       -0.2041810    -1.5011250     0.0000420
  C       -2.5282030    -0.6963170    -0.0000730
  C        1.1391180    -1.3434170     0.0000740
  C        1.7104040    -0.0052910    -0.0002190
  H       -0.6762750    -2.4793460     0.0001770
  H       -2.8113470    -1.2573270     0.8936330
  H       -2.8107340    -1.2584070    -0.8933430
  H       -3.0286960     0.2691590    -0.0008180
  H        1.0742662     1.9580831     0.2003170
  H        1.8167570    -2.1872720    -0.0000870
units angstrom
no_reorient  #important for SAPT in psi4, default
symmetry c1  #important for SAPT in psi4, default
}

set PROPERTIES_ORIGIN ["COM"]
properties('MP2/aug-cc-pvtz', properties = ['dipole'])
--------------------------------------------------------------------------

    Molecular point group: c1
  Charge       = 0
  Multiplicity = 1
  Basis Set: AUG-CC-PVTZ
    Blend: AUG-CC-PVTZ
  Basis Set: (AUG-CC-PVTZ AUX)
    Blend: AUG-CC-PVTZ-JKFIT

    Orbital Energies [Eh]
    ---------------------

    Doubly Occupied:

       1A    -20.545568     2A    -20.538944     3A    -15.644399
       4A    -15.627439     5A    -11.418322     6A    -11.379614
       7A    -11.337139     8A    -11.289932     9A    -11.256068
      10A     -1.428056    11A     -1.388008    12A     -1.312276
      13A     -1.243871    14A     -1.090897    15A     -0.989407
      16A     -0.929318    17A     -0.872084    18A     -0.770121
      19A     -0.750075    20A     -0.699545    21A     -0.684557
      22A     -0.657187    23A     -0.644121    24A     -0.616079
      25A     -0.609451    26A     -0.600377    27A     -0.571239
      28A     -0.554110    29A     -0.499260    30A     -0.479909
      31A     -0.446162    32A     -0.432986    33A     -0.360570

  @DF-RHF Final Energy:  -451.65825655059660

   => Energetics <=

    Nuclear Repulsion Energy =            441.0761908273557310
    One-Electron Energy =               -1490.1347109536093285
    Two-Electron Energy =                 597.4002635756569362
    Total Energy =                       -451.6582565505966613
  Basis Set: (AUG-CC-PVTZ AUX)
    Blend: AUG-CC-PVTZ-RI
    Molecular point group: c1

    Geometry (in Angstrom), charge = 0, multiplicity = 1:

       Center              X                  Y                   Z               Mass
    ------------   -----------------  -----------------  -----------------  -----------------
         O           -1.445123377204     1.816666235188    -0.001579270069    15.994914619570
         O            2.857613622796     0.236226235188    -0.001660270069    15.994914619570
         N           -1.140156377204    -0.479565764812    -0.001403270069    14.003074004430
         N            0.684344622796     0.959641235188    -0.001320270069    14.003074004430
         C           -0.699566377204     0.841121235188    -0.001907270069    12.000000000000
         C           -0.254773377204    -1.540056764812    -0.001558270069    12.000000000000
         C           -2.578795377204    -0.735248764812    -0.001673270069    12.000000000000
         C            1.088525622796    -1.382348764812    -0.001526270069    12.000000000000
         C            1.659811622796    -0.044222764812    -0.001819270069    12.000000000000
         H           -0.726867377204    -2.518277764812    -0.001423270069     1.007825032230
         H           -2.861939377204    -1.296258764812     0.892032729931     1.007825032230
         H           -2.861326377204    -1.297338764812    -0.894943270069     1.007825032230
         H           -3.079288377204     0.230227235188    -0.002418270069     1.007825032230
         H            1.023673822796     1.919151335188     0.198716729931     1.007825032230
         H            1.766164622796    -2.226203764812    -0.001687270069     1.007825032230

  Basis Set: AUG-CC-PVTZ
    Blend: AUG-CC-PVTZ
  Basis Set: (AUG-CC-PVTZ AUX)
    Blend: AUG-CC-PVTZ-JKFIT
	 Reference Energy          =    -451.6582565505966045 [Eh]
	 Singles Energy            =      -0.0000000000000000 [Eh]
	 Same-Spin Energy          =      -0.4582349183921151 [Eh]
	 Opposite-Spin Energy      =      -1.3852266231015347 [Eh]
	 Correlation Energy        =      -1.8434615414936497 [Eh]
	 Total Energy              =    -453.5017180920902433 [Eh]

	 ================> DF-SCS-MP2 Energies <==================
	-----------------------------------------------------------
	 SCS Same-Spin Scale       =       0.3333333333333333 [-]
	 SCS Opposite-Spin Scale   =       1.2000000000000000 [-]
	 SCS Same-Spin Energy      =      -0.1527449727973717 [Eh]
	 SCS Opposite-Spin Energy  =      -1.6622719477218415 [Eh]
	 SCS Correlation Energy    =      -1.8150169205192133 [Eh]
	 SCS Total Energy          =    -453.4732734711158173 [Eh]
	-----------------------------------------------------------

  Dipole Moment: [D]
     X:    -3.2366      Y:    -3.5471      Z:     0.2589     Total:     4.8088

*** Psi4 exiting successfully. Buy a developer a beer!
