                               Psi4 1.3.2 release

  ==> Input File <==

--------------------------------------------------------------------------
#psi4
#
memory 32 gb

molecule  {
0 1
  O       -1.3945310     1.8555980     0.0000210
  O        2.9082060     0.2751580    -0.0000600
  N       -1.0895640    -0.4406340     0.0001970
  N        0.7349370     0.9985730     0.0002800
  C       -0.6489740     0.8800530    -0.0003070
  C       -0.2041810    -1.5011250     0.0000420
  C       -2.5282030    -0.6963170    -0.0000730
  C        1.1391315    -1.3434235     0.1000740
  C        1.7104040    -0.0052910    -0.0002190
  H       -0.6762750    -2.4793460     0.0001770
  H       -2.8113470    -1.2573270     0.8936330
  H       -2.8107340    -1.2584070    -0.8933430
  H       -3.0286960     0.2691590    -0.0008180
  H        1.0742980     1.9581480     0.0003170
  H        1.8167570    -2.1872720    -0.0000870
units angstrom
no_reorient  #important for SAPT in psi4, default
symmetry c1  #important for SAPT in psi4, default
}

set PROPERTIES_ORIGIN ["COM"]
properties('MP2/aug-cc-pvtz', properties = ['dipole'])
--------------------------------------------------------------------------

    Molecular point group: c1
  Charge       = 0
  Multiplicity = 1
  Basis Set: AUG-CC-PVTZ
    Blend: AUG-CC-PVTZ
  Basis Set: (AUG-CC-PVTZ AUX)
    Blend: AUG-CC-PVTZ-JKFIT

    Orbital Energies [Eh]
    ---------------------

    Doubly Occupied:

       1A    -20.545830     2A    -20.538844     3A    -15.644937
       4A    -15.626580     5A    -11.418797     6A    -11.380036
       7A    -11.338231     8A    -11.290223     9A    -11.256830
      10A     -1.428577    11A     -1.388090    12A     -1.312601
      13A     -1.245719    14A     -1.090311    15A     -0.989817
      16A     -0.930463    17A     -0.872145    18A     -0.771464
      19A     -0.751435    20A     -0.700077    21A     -0.685349
      22A     -0.657681    23A     -0.644112    24A     -0.615604
      25A     -0.608717    26A     -0.601728    27A     -0.571471
      28A     -0.554011    29A     -0.499236    30A     -0.480031
      31A     -0.445899    32A     -0.433104    33A     -0.360725

  @DF-RHF Final Energy:  -451.65807278265561

   => Energetics <=

    Nuclear Repulsion Energy =            441.0583447605702645
    One-Electron Energy =               -1490.0754840541842441
    Two-Electron Energy =                 597.3590665109584279
    Total Energy =                       -451.6580727826556085
  Basis Set: (AUG-CC-PVTZ AUX)
    Blend: AUG-CC-PVTZ-RI
    Molecular point group: c1

    Geometry (in Angstrom), charge = 0, multiplicity = 1:

       Center              X                  Y                   Z               Mass
    ------------   -----------------  -----------------  -----------------  -----------------
         O           -1.445124916750     1.816666335091    -0.009500658550    15.994914619570
         O            2.857612083250     0.236226335091    -0.009581658550    15.994914619570
         N           -1.140157916750    -0.479565664909    -0.009324658550    14.003074004430
         N            0.684343083250     0.959641335091    -0.009241658550    14.003074004430
         C           -0.699567916750     0.841121335091    -0.009828658550    12.000000000000
         C           -0.254774916750    -1.540056664909    -0.009479658550    12.000000000000
         C           -2.578796916750    -0.735248664909    -0.009594658550    12.000000000000
         C            1.088537583250    -1.382355164909     0.090552341450    12.000000000000
         C            1.659810083250    -0.044222664909    -0.009740658550    12.000000000000
         H           -0.726868916750    -2.518277664909    -0.009344658550     1.007825032230
         H           -2.861940916750    -1.296258664909     0.884111341450     1.007825032230
         H           -2.861327916750    -1.297338664909    -0.902864658550     1.007825032230
         H           -3.079289916750     0.230227335091    -0.010339658550     1.007825032230
         H            1.023704083250     1.919216335091    -0.009204658550     1.007825032230
         H            1.766163083250    -2.226203664909    -0.009608658550     1.007825032230

  Basis Set: AUG-CC-PVTZ
    Blend: AUG-CC-PVTZ
  Basis Set: (AUG-CC-PVTZ AUX)
    Blend: AUG-CC-PVTZ-JKFIT
	 Reference Energy          =    -451.6580727826556085 [Eh]
	 Singles Energy            =      -0.0000000000000000 [Eh]
	 Same-Spin Energy          =      -0.4581690866615618 [Eh]
	 Opposite-Spin Energy      =      -1.3850773561443033 [Eh]
	 Correlation Energy        =      -1.8432464428058650 [Eh]
	 Total Energy              =    -453.5013192254614864 [Eh]

	 ================> DF-SCS-MP2 Energies <==================
	-----------------------------------------------------------
	 SCS Same-Spin Scale       =       0.3333333333333333 [-]
	 SCS Opposite-Spin Scale   =       1.2000000000000000 [-]
	 SCS Same-Spin Energy      =      -0.1527230288871873 [Eh]
	 SCS Opposite-Spin Energy  =      -1.6620928273731639 [Eh]
	 SCS Correlation Energy    =      -1.8148158562603511 [Eh]
	 SCS Total Energy          =    -453.4728886389159470 [Eh]
	-----------------------------------------------------------

  Dipole Moment: [D]
     X:    -3.2503      Y:    -3.5203      Z:    -0.0877     Total:     4.7922

*** Psi4 exiting successfully. Buy a developer a beer!
