                               Psi4 1.3.2 release

  ==> Input File <==

--------------------------------------------------------------------------
#psi4
#
memory 32 gb

molecule  {
0 1
  O       -1.3945310     1.8555980     0.0000210
  O        2.9082060     0.2751580    -0.0000600
  N       -1.0895640    -0.4406340     0.0001970
  N        0.7349370     0.9985730     0.0002800
  C       -0.6489740     0.8800530    -0.0003070
  C       -0.2041810    -1.5011250     0.0000420
  C       -2.5282030    -0.6963170    -0.0000730
  C        1.1391180    -1.3434170     0.0000740
  C        1.7104040    -0.0052910    -0.0002190
  H       -0.6762806    -2.4793462    -0.0998230
  H       -2.8113470    -1.2573270     0.8936330
  H       -2.8107340    -1.2584070    -0.8933430
  H       -3.0286960     0.2691590    -0.0008180
  H        1.0742980     1.9581480     0.0003170
  H        1.8167570    -2.1872720    -0.0000870
units angstrom
no_reorient  #important for SAPT in psi4, default
symmetry c1  #important for SAPT in psi4, default
}

set PROPERTIES_ORIGIN ["COM"]
properties('MP2/aug-cc-pvtz', properties = ['dipole'])
--------------------------------------------------------------------------

    Molecular point group: c1
  Charge       = 0
  Multiplicity = 1
  Basis Set: AUG-CC-PVTZ
    Blend: AUG-CC-PVTZ
  Basis Set: (AUG-CC-PVTZ AUX)
    Blend: AUG-CC-PVTZ-JKFIT

    Orbital Energies [Eh]
    ---------------------

    Doubly Occupied:

       1A    -20.545486     2A    -20.538895     3A    -15.644432
       4A    -15.626612     5A    -11.418535     6A    -11.379921
       7A    -11.337505     8A    -11.289947     9A    -11.256319
      10A     -1.428365    11A     -1.388193    12A     -1.312299
      13A     -1.245659    14A     -1.091136    15A     -0.989624
      16A     -0.930309    17A     -0.872369    18A     -0.771958
      19A     -0.752250    20A     -0.699350    21A     -0.684823
      22A     -0.657782    23A     -0.644143    24A     -0.614938
      25A     -0.610144    26A     -0.602104    27A     -0.571836
      28A     -0.554242    29A     -0.499410    30A     -0.479774
      31A     -0.446179    32A     -0.433093    33A     -0.360672

  @DF-RHF Final Energy:  -451.65988885964100

   => Energetics <=

    Nuclear Repulsion Energy =            441.1574063989813226
    One-Electron Energy =               -1490.2779799293350607
    Two-Electron Energy =                 597.4606846707127943
    Total Energy =                       -451.6598888596410006
  Basis Set: (AUG-CC-PVTZ AUX)
    Blend: AUG-CC-PVTZ-RI
    Molecular point group: c1

    Geometry (in Angstrom), charge = 0, multiplicity = 1:

       Center              X                  Y                   Z               Mass
    ------------   -----------------  -----------------  -----------------  -----------------
         O           -1.445123586696     1.816665717854     0.000819496095    15.994914619570
         O            2.857613413304     0.236225717854     0.000738496095    15.994914619570
         N           -1.140156586696    -0.479566282146     0.000995496095    14.003074004430
         N            0.684344413304     0.959640717854     0.001078496095    14.003074004430
         C           -0.699566586696     0.841120717854     0.000491496095    12.000000000000
         C           -0.254773586696    -1.540057282146     0.000840496095    12.000000000000
         C           -2.578795586696    -0.735249282146     0.000725496095    12.000000000000
         C            1.088525413304    -1.382349282146     0.000872496095    12.000000000000
         C            1.659811413304    -0.044223282146     0.000579496095    12.000000000000
         H           -0.726873186696    -2.518278482146    -0.099024503905     1.007825032230
         H           -2.861939586696    -1.296259282146     0.894431496095     1.007825032230
         H           -2.861326586696    -1.297339282146    -0.892544503905     1.007825032230
         H           -3.079288586696     0.230226717854    -0.000019503905     1.007825032230
         H            1.023705413304     1.919215717854     0.001115496095     1.007825032230
         H            1.766164413304    -2.226204282146     0.000711496095     1.007825032230

  Basis Set: AUG-CC-PVTZ
    Blend: AUG-CC-PVTZ
  Basis Set: (AUG-CC-PVTZ AUX)
    Blend: AUG-CC-PVTZ-JKFIT
	 Reference Energy          =    -451.6598888596410006 [Eh]
	 Singles Energy            =      -0.0000000000000000 [Eh]
	 Same-Spin Energy          =      -0.4580994792291992 [Eh]
	 Opposite-Spin Energy      =      -1.3849081684709401 [Eh]
	 Correlation Energy        =      -1.8430076477001394 [Eh]
	 Total Energy              =    -453.5028965073411200 [Eh]

	 ================> DF-SCS-MP2 Energies <==================
	-----------------------------------------------------------
	 SCS Same-Spin Scale       =       0.3333333333333333 [-]
	 SCS Opposite-Spin Scale   =       1.2000000000000000 [-]
	 SCS Same-Spin Energy      =      -0.1526998264097331 [Eh]
	 SCS Opposite-Spin Energy  =      -1.6618898021651280 [Eh]
	 SCS Correlation Energy    =      -1.8145896285748611 [Eh]
	 SCS Total Energy          =    -453.4744784882158797 [Eh]
	-----------------------------------------------------------

  Dipole Moment: [D]
     X:    -3.2289      Y:    -3.5356      Z:    -0.0615     Total:     4.7886

*** Psi4 exiting successfully. Buy a developer a beer!
