                               Psi4 1.3.2 release

  ==> Input File <==

--------------------------------------------------------------------------
#psi4
#
memory 32 gb

molecule  {
0 1
  O       -1.3945310     1.8555980     0.0000210
  O        2.9082060     0.2751580    -0.0000600
  N       -1.0895640    -0.4406340     0.0001970
  N        0.7349370     0.9985730     0.0002800
  C       -0.6489740     0.8800530    -0.0003070
  C       -0.2041810    -1.5011250     0.0000420
  C       -2.5282034    -0.6963610    -0.3000730
  C        1.1391180    -1.3434170     0.0000740
  C        1.7104040    -0.0052910    -0.0002190
  H       -0.6762750    -2.4793460     0.0001770
  H       -2.8113470    -1.2573270     0.8936330
  H       -2.8107340    -1.2584070    -0.8933430
  H       -3.0286960     0.2691590    -0.0008180
  H        1.0742980     1.9581480     0.0003170
  H        1.8167570    -2.1872720    -0.0000870
units angstrom
no_reorient  #important for SAPT in psi4, default
symmetry c1  #important for SAPT in psi4, default
}

set PROPERTIES_ORIGIN ["COM"]
properties('MP2/aug-cc-pvtz', properties = ['dipole'])
--------------------------------------------------------------------------

    Molecular point group: c1
  Charge       = 0
  Multiplicity = 1
  Basis Set: AUG-CC-PVTZ
    Blend: AUG-CC-PVTZ
  Basis Set: (AUG-CC-PVTZ AUX)
    Blend: AUG-CC-PVTZ-JKFIT

    Orbital Energies [Eh]
    ---------------------

    Doubly Occupied:

       1A    -20.547664     2A    -20.540264     3A    -15.649178
       4A    -15.627992     5A    -11.420266     6A    -11.381077
       7A    -11.337147     8A    -11.303202     9A    -11.257381
      10A     -1.429712    11A     -1.389481    12A     -1.311873
      13A     -1.245808    14A     -1.091362    15A     -1.002827
      16A     -0.931197    17A     -0.878619    18A     -0.784535
      19A     -0.757462    20A     -0.705699    21A     -0.690349
      22A     -0.669389    23A     -0.650816    24A     -0.635823
      25A     -0.601793    26A     -0.590025    27A     -0.566855
      28A     -0.535257    29A     -0.480949    30A     -0.471528
      31A     -0.447471    32A     -0.434047    33A     -0.360113

  @DF-RHF Final Energy:  -451.55834630943451

   => Energetics <=

    Nuclear Repulsion Energy =            440.7413208674719272
    One-Electron Energy =               -1489.1450120367755972
    Two-Electron Energy =                 596.8453448598692148
    Total Energy =                       -451.5583463094345689
  Basis Set: (AUG-CC-PVTZ AUX)
    Blend: AUG-CC-PVTZ-RI
    Molecular point group: c1

    Geometry (in Angstrom), charge = 0, multiplicity = 1:

       Center              X                  Y                   Z               Mass
    ------------   -----------------  -----------------  -----------------  -----------------
         O           -1.445123593391     1.816669905303     0.028581605147    15.994914619570
         O            2.857613406609     0.236229905303     0.028500605147    15.994914619570
         N           -1.140156593391    -0.479562094697     0.028757605147    14.003074004430
         N            0.684344406609     0.959644905303     0.028840605147    14.003074004430
         C           -0.699566593391     0.841124905303     0.028253605147    12.000000000000
         C           -0.254773593391    -1.540053094697     0.028602605147    12.000000000000
         C           -2.578795993391    -0.735289094697    -0.271512394853    12.000000000000
         C            1.088525406609    -1.382345094697     0.028634605147    12.000000000000
         C            1.659811406609    -0.044219094697     0.028341605147    12.000000000000
         H           -0.726867593391    -2.518274094697     0.028737605147     1.007825032230
         H           -2.861939593391    -1.296255094697     0.922193605147     1.007825032230
         H           -2.861326593391    -1.297335094697    -0.864782394853     1.007825032230
         H           -3.079288593391     0.230230905303     0.027742605147     1.007825032230
         H            1.023705406609     1.919219905303     0.028877605147     1.007825032230
         H            1.766164406609    -2.226200094697     0.028473605147     1.007825032230

  Basis Set: AUG-CC-PVTZ
    Blend: AUG-CC-PVTZ
  Basis Set: (AUG-CC-PVTZ AUX)
    Blend: AUG-CC-PVTZ-JKFIT
	 Reference Energy          =    -451.5583463094345120 [Eh]
	 Singles Energy            =      -0.0000000000000000 [Eh]
	 Same-Spin Energy          =      -0.4592917276768357 [Eh]
	 Opposite-Spin Energy      =      -1.3892341347006316 [Eh]
	 Correlation Energy        =      -1.8485258623774674 [Eh]
	 Total Energy              =    -453.4068721718119832 [Eh]

	 ================> DF-SCS-MP2 Energies <==================
	-----------------------------------------------------------
	 SCS Same-Spin Scale       =       0.3333333333333333 [-]
	 SCS Opposite-Spin Scale   =       1.2000000000000000 [-]
	 SCS Same-Spin Energy      =      -0.1530972425589452 [Eh]
	 SCS Opposite-Spin Energy  =      -1.6670809616407578 [Eh]
	 SCS Correlation Energy    =      -1.8201782041997030 [Eh]
	 SCS Total Energy          =    -453.3785245136342041 [Eh]
	-----------------------------------------------------------

  Dipole Moment: [D]
     X:    -3.0660      Y:    -3.4204      Z:    -0.2992     Total:     4.6031

*** Psi4 exiting successfully. Buy a developer a beer!
