                               Psi4 1.3.2 release

  ==> Input File <==

--------------------------------------------------------------------------
#psi4
#
memory 32 gb

molecule  {
0 1
  O       -1.3945310     1.8555980     0.0000210
  O        2.9082060     0.2751580    -0.0000600
  N       -1.0895640    -0.4406340     0.0001970
  N        0.7349130     0.9985890     0.2502800
  C       -0.6489740     0.8800530    -0.0003070
  C       -0.2041810    -1.5011250     0.0000420
  C       -2.5282030    -0.6963170    -0.0000730
  C        1.1391180    -1.3434170     0.0000740
  C        1.7104040    -0.0052910    -0.0002190
  H       -0.6762750    -2.4793460     0.0001770
  H       -2.8113470    -1.2573270     0.8936330
  H       -2.8107340    -1.2584070    -0.8933430
  H       -3.0286960     0.2691590    -0.0008180
  H        1.0742980     1.9581480     0.0003170
  H        1.8167570    -2.1872720    -0.0000870
units angstrom
no_reorient  #important for SAPT in psi4, default
symmetry c1  #important for SAPT in psi4, default
}

set PROPERTIES_ORIGIN ["COM"]
properties('MP2/aug-cc-pvtz', properties = ['dipole'])
--------------------------------------------------------------------------

    Molecular point group: c1
  Charge       = 0
  Multiplicity = 1
  Basis Set: AUG-CC-PVTZ
    Blend: AUG-CC-PVTZ
  Basis Set: (AUG-CC-PVTZ AUX)
    Blend: AUG-CC-PVTZ-JKFIT

    Orbital Energies [Eh]
    ---------------------

    Doubly Occupied:

       1A    -20.549017     2A    -20.543129     3A    -15.644421
       4A    -15.627302     5A    -11.418939     6A    -11.380560
       7A    -11.337705     8A    -11.290204     9A    -11.256349
      10A     -1.427092    11A     -1.389246    12A     -1.312257
      13A     -1.236758    14A     -1.090700    15A     -0.987888
      16A     -0.928162    17A     -0.861726    18A     -0.765085
      19A     -0.744768    20A     -0.698150    21A     -0.685152
      22A     -0.655089    23A     -0.645134    24A     -0.613041
      25A     -0.609259    26A     -0.601208    27A     -0.570801
      28A     -0.553219    29A     -0.499952    30A     -0.482735
      31A     -0.447273    32A     -0.435466    33A     -0.360780

  @DF-RHF Final Energy:  -451.64925906178740

   => Energetics <=

    Nuclear Repulsion Energy =            440.2405480467191978
    One-Electron Energy =               -1488.4824832995716406
    Two-Electron Energy =                 596.5926761910651521
    Total Energy =                       -451.6492590617873475
  Basis Set: (AUG-CC-PVTZ AUX)
    Blend: AUG-CC-PVTZ-RI
    Molecular point group: c1

    Geometry (in Angstrom), charge = 0, multiplicity = 1:

       Center              X                  Y                   Z               Mass
    ------------   -----------------  -----------------  -----------------  -----------------
         O           -1.445120965129     1.816663938692    -0.027754507043    15.994914619570
         O            2.857616034871     0.236223938692    -0.027835507043    15.994914619570
         N           -1.140153965129    -0.479568061308    -0.027578507043    14.003074004430
         N            0.684323034871     0.959654938692     0.222504492957    14.003074004430
         C           -0.699563965129     0.841118938692    -0.028082507043    12.000000000000
         C           -0.254770965129    -1.540059061308    -0.027733507043    12.000000000000
         C           -2.578792965129    -0.735251061308    -0.027848507043    12.000000000000
         C            1.088528034871    -1.382351061308    -0.027701507043    12.000000000000
         C            1.659814034871    -0.044225061308    -0.027994507043    12.000000000000
         H           -0.726864965129    -2.518280061308    -0.027598507043     1.007825032230
         H           -2.861936965129    -1.296261061308     0.865857492957     1.007825032230
         H           -2.861323965129    -1.297341061308    -0.921118507043     1.007825032230
         H           -3.079285965129     0.230224938692    -0.028593507043     1.007825032230
         H            1.023708034871     1.919213938692    -0.027458507043     1.007825032230
         H            1.766167034871    -2.226206061308    -0.027862507043     1.007825032230

  Basis Set: AUG-CC-PVTZ
    Blend: AUG-CC-PVTZ
  Basis Set: (AUG-CC-PVTZ AUX)
    Blend: AUG-CC-PVTZ-JKFIT
	 Reference Energy          =    -451.6492590617874043 [Eh]
	 Singles Energy            =      -0.0000000000000000 [Eh]
	 Same-Spin Energy          =      -0.4585883114602117 [Eh]
	 Opposite-Spin Energy      =      -1.3868185034432146 [Eh]
	 Correlation Energy        =      -1.8454068149034262 [Eh]
	 Total Energy              =    -453.4946658766908172 [Eh]

	 ================> DF-SCS-MP2 Energies <==================
	-----------------------------------------------------------
	 SCS Same-Spin Scale       =       0.3333333333333333 [-]
	 SCS Opposite-Spin Scale   =       1.2000000000000000 [-]
	 SCS Same-Spin Energy      =      -0.1528627704867372 [Eh]
	 SCS Opposite-Spin Energy  =      -1.6641822041318575 [Eh]
	 SCS Correlation Energy    =      -1.8170449746185948 [Eh]
	 SCS Total Energy          =    -453.4663040364059725 [Eh]
	-----------------------------------------------------------

  Dipole Moment: [D]
     X:    -3.2271      Y:    -3.5895      Z:    -0.3396     Total:     4.8388

*** Psi4 exiting successfully. Buy a developer a beer!
