                               Psi4 1.3.2 release

  ==> Input File <==

--------------------------------------------------------------------------
#psi4
#
memory 32 gb

molecule  {
0 1
  O       -1.3945310     1.8555980     0.0000210
  O        2.9082060     0.2751580    -0.0000600
  N       -1.0895640    -0.4406340     0.0001970
  N        0.7349370     0.9985730     0.0002800
  C       -0.6489740     0.8800530    -0.0003070
  C       -0.2041810    -1.5011250     0.0000420
  C       -2.5282032    -0.6963390    -0.1500730
  C        1.1391180    -1.3434170     0.0000740
  C        1.7104040    -0.0052910    -0.0002190
  H       -0.6762750    -2.4793460     0.0001770
  H       -2.8113470    -1.2573270     0.8936330
  H       -2.8107340    -1.2584070    -0.8933430
  H       -3.0286960     0.2691590    -0.0008180
  H        1.0742980     1.9581480     0.0003170
  H        1.8167570    -2.1872720    -0.0000870
units angstrom
no_reorient  #important for SAPT in psi4, default
symmetry c1  #important for SAPT in psi4, default
}

set PROPERTIES_ORIGIN ["COM"]
properties('MP2/aug-cc-pvtz', properties = ['dipole'])
--------------------------------------------------------------------------

    Molecular point group: c1
  Charge       = 0
  Multiplicity = 1
  Basis Set: AUG-CC-PVTZ
    Blend: AUG-CC-PVTZ
  Basis Set: (AUG-CC-PVTZ AUX)
    Blend: AUG-CC-PVTZ-JKFIT

    Orbital Energies [Eh]
    ---------------------

    Doubly Occupied:

       1A    -20.546061     2A    -20.539190     3A    -15.645728
       4A    -15.626946     5A    -11.418988     6A    -11.380168
       7A    -11.337136     8A    -11.293335     9A    -11.256475
      10A     -1.428719    11A     -1.388483    12A     -1.312223
      13A     -1.245700    14A     -1.091211    15A     -0.992673
      16A     -0.930831    17A     -0.873906    18A     -0.774803
      19A     -0.754055    20A     -0.701096    21A     -0.687291
      22A     -0.661065    23A     -0.646158    24A     -0.633229
      25A     -0.602530    26A     -0.595440    27A     -0.569378
      28A     -0.546310    29A     -0.492640    30A     -0.480254
      31A     -0.446486    32A     -0.433350    33A     -0.360573

  @DF-RHF Final Energy:  -451.63567435917270

   => Energetics <=

    Nuclear Repulsion Energy =            441.0654442045312749
    One-Electron Energy =               -1490.0173759353285732
    Two-Electron Energy =                 597.3162573716244879
    Total Energy =                       -451.6356743591727536
  Basis Set: (AUG-CC-PVTZ AUX)
    Blend: AUG-CC-PVTZ-RI
    Molecular point group: c1

    Geometry (in Angstrom), charge = 0, multiplicity = 1:

       Center              X                  Y                   Z               Mass
    ------------   -----------------  -----------------  -----------------  -----------------
         O           -1.445123612432     1.816667810779     0.014300756260    15.994914619570
         O            2.857613387568     0.236227810779     0.014219756260    15.994914619570
         N           -1.140156612432    -0.479564189221     0.014476756260    14.003074004430
         N            0.684344387568     0.959642810779     0.014559756260    14.003074004430
         C           -0.699566612432     0.841122810779     0.013972756260    12.000000000000
         C           -0.254773612432    -1.540055189221     0.014321756260    12.000000000000
         C           -2.578795812432    -0.735269189221    -0.135793243740    12.000000000000
         C            1.088525387568    -1.382347189221     0.014353756260    12.000000000000
         C            1.659811387568    -0.044221189221     0.014060756260    12.000000000000
         H           -0.726867612432    -2.518276189221     0.014456756260     1.007825032230
         H           -2.861939612432    -1.296257189221     0.907912756260     1.007825032230
         H           -2.861326612432    -1.297337189221    -0.879063243740     1.007825032230
         H           -3.079288612432     0.230228810779     0.013461756260     1.007825032230
         H            1.023705387568     1.919217810779     0.014596756260     1.007825032230
         H            1.766164387568    -2.226202189221     0.014192756260     1.007825032230

  Basis Set: AUG-CC-PVTZ
    Blend: AUG-CC-PVTZ
  Basis Set: (AUG-CC-PVTZ AUX)
    Blend: AUG-CC-PVTZ-JKFIT
	 Reference Energy          =    -451.6356743591726968 [Eh]
	 Singles Energy            =      -0.0000000000000000 [Eh]
	 Same-Spin Energy          =      -0.4583552744335085 [Eh]
	 Opposite-Spin Energy      =      -1.3858395506528756 [Eh]
	 Correlation Energy        =      -1.8441948250863840 [Eh]
	 Total Energy              =    -453.4798691842590870 [Eh]

	 ================> DF-SCS-MP2 Energies <==================
	-----------------------------------------------------------
	 SCS Same-Spin Scale       =       0.3333333333333333 [-]
	 SCS Opposite-Spin Scale   =       1.2000000000000000 [-]
	 SCS Same-Spin Energy      =      -0.1527850914778361 [Eh]
	 SCS Opposite-Spin Energy  =      -1.6630074607834506 [Eh]
	 SCS Correlation Energy    =      -1.8157925522612868 [Eh]
	 SCS Total Energy          =    -453.4514669114340109 [Eh]
	-----------------------------------------------------------

  Dipole Moment: [D]
     X:    -3.1906      Y:    -3.5063      Z:    -0.1677     Total:     4.7436

*** Psi4 exiting successfully. Buy a developer a beer!
