                               Psi4 1.3.2 release

  ==> Input File <==

--------------------------------------------------------------------------
#psi4
#
memory 32 gb

molecule  {
0 1
  O       -1.3945310     1.8555980     0.0000210
  O        2.9082060     0.2751580    -0.0000600
  N       -1.0895640    -0.4406340     0.0001970
  N        0.7349370     0.9985730     0.0002800
  C       -0.6489740     0.8800530    -0.0003070
  C       -0.2041810    -1.5011250     0.0000420
  C       -2.5282030    -0.6963170    -0.0000730
  C        1.1391180    -1.3434170     0.0000740
  C        1.7104040    -0.0052910    -0.0002190
  H       -0.6762750    -2.4793460     0.0001770
  H       -2.8113470    -1.2573270     0.8936330
  H       -2.8107340    -1.2584070    -0.8933430
  H       -3.0286960     0.2691590    -0.0008180
  H        1.0742980     1.9581480     0.0003170
  H        1.8167313    -2.1872914    -0.3000870
units angstrom
no_reorient  #important for SAPT in psi4, default
symmetry c1  #important for SAPT in psi4, default
}

set PROPERTIES_ORIGIN ["COM"]
properties('MP2/aug-cc-pvtz', properties = ['dipole'])
--------------------------------------------------------------------------

    Molecular point group: c1
  Charge       = 0
  Multiplicity = 1
  Basis Set: AUG-CC-PVTZ
    Blend: AUG-CC-PVTZ
  Basis Set: (AUG-CC-PVTZ AUX)
    Blend: AUG-CC-PVTZ-JKFIT

    Orbital Energies [Eh]
    ---------------------

    Doubly Occupied:

       1A    -20.546109     2A    -20.538773     3A    -15.645313
       4A    -15.626763     5A    -11.419049     6A    -11.379745
       7A    -11.338191     8A    -11.290417     9A    -11.259118
      10A     -1.428837    11A     -1.388087    12A     -1.312958
      13A     -1.245906    14A     -1.090452    15A     -0.989940
      16A     -0.930634    17A     -0.871513    18A     -0.771537
      19A     -0.749686    20A     -0.700313    21A     -0.685876
      22A     -0.656771    23A     -0.643947    24A     -0.616170
      25A     -0.604403    26A     -0.602262    27A     -0.570198
      28A     -0.552744    29A     -0.499045    30A     -0.480365
      31A     -0.446068    32A     -0.433131    33A     -0.360491

  @DF-RHF Final Energy:  -451.65482569389792

   => Energetics <=

    Nuclear Repulsion Energy =            441.0158275395486385
    One-Electron Energy =               -1489.9916870660388213
    Two-Electron Energy =                 597.3210338325923203
    Total Energy =                       -451.6548256938979193
  Basis Set: (AUG-CC-PVTZ AUX)
    Blend: AUG-CC-PVTZ-RI
    Molecular point group: c1

    Geometry (in Angstrom), charge = 0, multiplicity = 1:

       Center              X                  Y                   Z               Mass
    ------------   -----------------  -----------------  -----------------  -----------------
         O           -1.445123425979     1.816665871375     0.002418673539    15.994914619570
         O            2.857613574021     0.236225871375     0.002337673539    15.994914619570
         N           -1.140156425979    -0.479566128625     0.002594673539    14.003074004430
         N            0.684344574021     0.959640871375     0.002677673539    14.003074004430
         C           -0.699566425979     0.841120871375     0.002090673539    12.000000000000
         C           -0.254773425979    -1.540057128625     0.002439673539    12.000000000000
         C           -2.578795425979    -0.735249128625     0.002324673539    12.000000000000
         C            1.088525574021    -1.382349128625     0.002471673539    12.000000000000
         C            1.659811574021    -0.044223128625     0.002178673539    12.000000000000
         H           -0.726867425979    -2.518278128625     0.002574673539     1.007825032230
         H           -2.861939425979    -1.296259128625     0.896030673539     1.007825032230
         H           -2.861326425979    -1.297339128625    -0.890945326461     1.007825032230
         H           -3.079288425979     0.230226871375     0.001579673539     1.007825032230
         H            1.023705574021     1.919215871375     0.002714673539     1.007825032230
         H            1.766138874021    -2.226223528625    -0.297689326461     1.007825032230

  Basis Set: AUG-CC-PVTZ
    Blend: AUG-CC-PVTZ
  Basis Set: (AUG-CC-PVTZ AUX)
    Blend: AUG-CC-PVTZ-JKFIT
	 Reference Energy          =    -451.6548256938979193 [Eh]
	 Singles Energy            =      -0.0000000000000000 [Eh]
	 Same-Spin Energy          =      -0.4582936735617269 [Eh]
	 Opposite-Spin Energy      =      -1.3853521979143055 [Eh]
	 Correlation Energy        =      -1.8436458714760324 [Eh]
	 Total Energy              =    -453.4984715653739613 [Eh]

	 ================> DF-SCS-MP2 Energies <==================
	-----------------------------------------------------------
	 SCS Same-Spin Scale       =       0.3333333333333333 [-]
	 SCS Opposite-Spin Scale   =       1.2000000000000000 [-]
	 SCS Same-Spin Energy      =      -0.1527645578539090 [Eh]
	 SCS Opposite-Spin Energy  =      -1.6624226374971667 [Eh]
	 SCS Correlation Energy    =      -1.8151871953510756 [Eh]
	 SCS Total Energy          =    -453.4700128892490056 [Eh]
	-----------------------------------------------------------

  Dipole Moment: [D]
     X:    -3.2795      Y:    -3.4885      Z:    -0.2155     Total:     4.7928

*** Psi4 exiting successfully. Buy a developer a beer!
