                               Psi4 1.3.2 release

  ==> Input File <==

--------------------------------------------------------------------------
#psi4
#
memory 32 gb

molecule  {
0 1
  O       -1.3945310     1.8555980     0.0000210
  O        2.9082060     0.2751580    -0.0000600
  N       -1.0895640    -0.4406340     0.0001970
  N        0.7349370     0.9985730     0.0002800
  C       -0.6489740     0.8800530    -0.0003070
  C       -0.2041810    -1.5011250     0.0000420
  C       -2.5282030    -0.6963170    -0.0000730
  C        1.1391180    -1.3434170     0.0000740
  C        1.7104040    -0.0052910    -0.0002190
  H       -0.6762750    -2.4793460     0.0001770
  H       -2.8113470    -1.2573270     0.8936330
  H       -2.8107340    -1.2584070    -0.8933430
  H       -3.0286960     0.2691590    -0.0008180
  H        1.0742980     1.9581480     0.0003170
  H        1.8167527    -2.1872752    -0.0500870
units angstrom
no_reorient  #important for SAPT in psi4, default
symmetry c1  #important for SAPT in psi4, default
}

set PROPERTIES_ORIGIN ["COM"]
properties('MP2/aug-cc-pvtz', properties = ['dipole'])
--------------------------------------------------------------------------

    Molecular point group: c1
  Charge       = 0
  Multiplicity = 1
  Basis Set: AUG-CC-PVTZ
    Blend: AUG-CC-PVTZ
  Basis Set: (AUG-CC-PVTZ AUX)
    Blend: AUG-CC-PVTZ-JKFIT

    Orbital Energies [Eh]
    ---------------------

    Doubly Occupied:

       1A    -20.545513     2A    -20.538812     3A    -15.644508
       4A    -15.626581     5A    -11.418552     6A    -11.379845
       7A    -11.337168     8A    -11.290010     9A    -11.256244
      10A     -1.428378    11A     -1.388130    12A     -1.312356
      13A     -1.245652    14A     -1.091152    15A     -0.989668
      16A     -0.930691    17A     -0.872332    18A     -0.771966
      19A     -0.752175    20A     -0.699903    21A     -0.685247
      22A     -0.657800    23A     -0.644208    24A     -0.615011
      25A     -0.609974    26A     -0.602268    27A     -0.571820
      28A     -0.554182    29A     -0.499427    30A     -0.479990
      31A     -0.446133    32A     -0.433066    33A     -0.360644

  @DF-RHF Final Energy:  -451.66040659634137

   => Energetics <=

    Nuclear Repulsion Energy =            441.1716909479232527
    One-Electron Energy =               -1490.3053758231444590
    Two-Electron Energy =                 597.4732782788798886
    Total Energy =                       -451.6604065963413177
  Basis Set: (AUG-CC-PVTZ AUX)
    Blend: AUG-CC-PVTZ-RI
    Molecular point group: c1

    Geometry (in Angstrom), charge = 0, multiplicity = 1:

       Center              X                  Y                   Z               Mass
    ------------   -----------------  -----------------  -----------------  -----------------
         O           -1.445123597091     1.816665741841     0.000419701735    15.994914619570
         O            2.857613402909     0.236225741841     0.000338701735    15.994914619570
         N           -1.140156597091    -0.479566258159     0.000595701735    14.003074004430
         N            0.684344402909     0.959640741841     0.000678701735    14.003074004430
         C           -0.699566597091     0.841120741841     0.000091701735    12.000000000000
         C           -0.254773597091    -1.540057258159     0.000440701735    12.000000000000
         C           -2.578795597091    -0.735249258159     0.000325701735    12.000000000000
         C            1.088525402909    -1.382349258159     0.000472701735    12.000000000000
         C            1.659811402909    -0.044223258159     0.000179701735    12.000000000000
         H           -0.726867597091    -2.518278258159     0.000575701735     1.007825032230
         H           -2.861939597091    -1.296259258159     0.894031701735     1.007825032230
         H           -2.861326597091    -1.297339258159    -0.892944298265     1.007825032230
         H           -3.079288597091     0.230226741841    -0.000419298265     1.007825032230
         H            1.023705402909     1.919215741841     0.000715701735     1.007825032230
         H            1.766160102909    -2.226207458159    -0.049688298265     1.007825032230

  Basis Set: AUG-CC-PVTZ
    Blend: AUG-CC-PVTZ
  Basis Set: (AUG-CC-PVTZ AUX)
    Blend: AUG-CC-PVTZ-JKFIT
	 Reference Energy          =    -451.6604065963413746 [Eh]
	 Singles Energy            =      -0.0000000000000000 [Eh]
	 Same-Spin Energy          =      -0.4580593270538159 [Eh]
	 Opposite-Spin Energy      =      -1.3848290928256912 [Eh]
	 Correlation Energy        =      -1.8428884198795070 [Eh]
	 Total Energy              =    -453.5032950162208749 [Eh]

	 ================> DF-SCS-MP2 Energies <==================
	-----------------------------------------------------------
	 SCS Same-Spin Scale       =       0.3333333333333333 [-]
	 SCS Opposite-Spin Scale   =       1.2000000000000000 [-]
	 SCS Same-Spin Energy      =      -0.1526864423512720 [Eh]
	 SCS Opposite-Spin Energy  =      -1.6617949113908295 [Eh]
	 SCS Correlation Energy    =      -1.8144813537421014 [Eh]
	 SCS Total Energy          =    -453.4748879500834846 [Eh]
	-----------------------------------------------------------

  Dipole Moment: [D]
     X:    -3.2368      Y:    -3.5388      Z:    -0.0372     Total:     4.7960

*** Psi4 exiting successfully. Buy a developer a beer!
