                               Psi4 1.3.2 release

  ==> Input File <==

--------------------------------------------------------------------------
#psi4
#
memory 32 gb

molecule  {
0 1
  O       -1.3945310     1.8555980     0.0000210
  O        2.9082060     0.2751580    -0.0000600
  N       -1.0895640    -0.4406340     0.0001970
  N        0.7349370     0.9985730     0.0002800
  C       -0.6489740     0.8800530    -0.0003070
  C       -0.2041810    -1.5011250     0.0000420
  C       -2.5282033    -0.6963464    -0.2000730
  C        1.1391180    -1.3434170     0.0000740
  C        1.7104040    -0.0052910    -0.0002190
  H       -0.6762750    -2.4793460     0.0001770
  H       -2.8113470    -1.2573270     0.8936330
  H       -2.8107340    -1.2584070    -0.8933430
  H       -3.0286960     0.2691590    -0.0008180
  H        1.0742980     1.9581480     0.0003170
  H        1.8167570    -2.1872720    -0.0000870
units angstrom
no_reorient  #important for SAPT in psi4, default
symmetry c1  #important for SAPT in psi4, default
}

set PROPERTIES_ORIGIN ["COM"]
properties('MP2/aug-cc-pvtz', properties = ['dipole'])
--------------------------------------------------------------------------

    Molecular point group: c1
  Charge       = 0
  Multiplicity = 1
  Basis Set: AUG-CC-PVTZ
    Blend: AUG-CC-PVTZ
  Basis Set: (AUG-CC-PVTZ AUX)
    Blend: AUG-CC-PVTZ-JKFIT

    Orbital Energies [Eh]
    ---------------------

    Doubly Occupied:

       1A    -20.546491     2A    -20.539477     3A    -15.646663
       4A    -15.627226     5A    -11.419331     6A    -11.380411
       7A    -11.337137     8A    -11.295916     9A    -11.256716
      10A     -1.428987    11A     -1.388750    12A     -1.312134
      13A     -1.245736    14A     -1.091244    15A     -0.995160
      16A     -0.930933    17A     -0.875133    18A     -0.777265
      19A     -0.755215    20A     -0.702261    21A     -0.688518
      22A     -0.663780    23A     -0.647956    24A     -0.635550
      25A     -0.602288    26A     -0.593072    27A     -0.568441
      28A     -0.541951    29A     -0.487010    30A     -0.480453
      31A     -0.446751    32A     -0.433557    33A     -0.360489

  @DF-RHF Final Energy:  -451.61597556299671

   => Energetics <=

    Nuclear Repulsion Energy =            440.9803363643446232
    One-Electron Energy =               -1489.7886223293080548
    Two-Electron Energy =                 597.1923104019667790
    Total Energy =                       -451.6159755629967094
  Basis Set: (AUG-CC-PVTZ AUX)
    Blend: AUG-CC-PVTZ-RI
    Molecular point group: c1

    Geometry (in Angstrom), charge = 0, multiplicity = 1:

       Center              X                  Y                   Z               Mass
    ------------   -----------------  -----------------  -----------------  -----------------
         O           -1.445123602912     1.816668515301     0.019061039222    15.994914619570
         O            2.857613397088     0.236228515301     0.018980039222    15.994914619570
         N           -1.140156602912    -0.479563484699     0.019237039222    14.003074004430
         N            0.684344397088     0.959643515301     0.019320039222    14.003074004430
         C           -0.699566602912     0.841123515301     0.018733039222    12.000000000000
         C           -0.254773602912    -1.540054484699     0.019082039222    12.000000000000
         C           -2.578795902912    -0.735275884699    -0.181032960778    12.000000000000
         C            1.088525397088    -1.382346484699     0.019114039222    12.000000000000
         C            1.659811397088    -0.044220484699     0.018821039222    12.000000000000
         H           -0.726867602912    -2.518275484699     0.019217039222     1.007825032230
         H           -2.861939602912    -1.296256484699     0.912673039222     1.007825032230
         H           -2.861326602912    -1.297336484699    -0.874302960778     1.007825032230
         H           -3.079288602912     0.230229515301     0.018222039222     1.007825032230
         H            1.023705397088     1.919218515301     0.019357039222     1.007825032230
         H            1.766164397088    -2.226201484699     0.018953039222     1.007825032230

  Basis Set: AUG-CC-PVTZ
    Blend: AUG-CC-PVTZ
  Basis Set: (AUG-CC-PVTZ AUX)
    Blend: AUG-CC-PVTZ-JKFIT
	 Reference Energy          =    -451.6159755629967094 [Eh]
	 Singles Energy            =      -0.0000000000000000 [Eh]
	 Same-Spin Energy          =      -0.4585937880899681 [Eh]
	 Opposite-Spin Energy      =      -1.3866814815189810 [Eh]
	 Correlation Energy        =      -1.8452752696089489 [Eh]
	 Total Energy              =    -453.4612508326056854 [Eh]

	 ================> DF-SCS-MP2 Energies <==================
	-----------------------------------------------------------
	 SCS Same-Spin Scale       =       0.3333333333333333 [-]
	 SCS Opposite-Spin Scale   =       1.2000000000000000 [-]
	 SCS Same-Spin Energy      =      -0.1528645960299894 [Eh]
	 SCS Opposite-Spin Energy  =      -1.6640177778227772 [Eh]
	 SCS Correlation Energy    =      -1.8168823738527666 [Eh]
	 SCS Total Energy          =    -453.4328579368494729 [Eh]
	-----------------------------------------------------------

  Dipole Moment: [D]
     X:    -3.1569      Y:    -3.4816      Z:    -0.2174     Total:     4.7048

*** Psi4 exiting successfully. Buy a developer a beer!
