                               Psi4 1.3.2 release

  ==> Input File <==

--------------------------------------------------------------------------
#psi4
#
memory 32 gb

molecule  {
0 1
  O       -1.3945310     1.8555980     0.0000210
  O        2.9082060     0.2751580    -0.0000600
  N       -1.0895640    -0.4406340     0.0001970
  N        0.7349370     0.9985730     0.0002800
  C       -0.6489740     0.8800530    -0.0003070
  C       -0.2041810    -1.5011250     0.0000420
  C       -2.5282030    -0.6963170    -0.0000730
  C        1.1391180    -1.3434170     0.0000740
  C        1.7104040    -0.0052910    -0.0002190
  H       -0.6762889    -2.4793464    -0.2498230
  H       -2.8113470    -1.2573270     0.8936330
  H       -2.8107340    -1.2584070    -0.8933430
  H       -3.0286960     0.2691590    -0.0008180
  H        1.0742980     1.9581480     0.0003170
  H        1.8167570    -2.1872720    -0.0000870
units angstrom
no_reorient  #important for SAPT in psi4, default
symmetry c1  #important for SAPT in psi4, default
}

set PROPERTIES_ORIGIN ["COM"]
properties('MP2/aug-cc-pvtz', properties = ['dipole'])
--------------------------------------------------------------------------

    Molecular point group: c1
  Charge       = 0
  Multiplicity = 1
  Basis Set: AUG-CC-PVTZ
    Blend: AUG-CC-PVTZ
  Basis Set: (AUG-CC-PVTZ AUX)
    Blend: AUG-CC-PVTZ-JKFIT

    Orbital Energies [Eh]
    ---------------------

    Doubly Occupied:

       1A    -20.545452     2A    -20.539323     3A    -15.644186
       4A    -15.626798     5A    -11.418533     6A    -11.380299
       7A    -11.339392     8A    -11.289693     9A    -11.257151
      10A     -1.428374    11A     -1.388511    12A     -1.312111
      13A     -1.245736    14A     -1.090961    15A     -0.989448
      16A     -0.928427    17A     -0.872429    18A     -0.771855
      19A     -0.752265    20A     -0.696968    21A     -0.682555
      22A     -0.657474    23A     -0.643719    24A     -0.614945
      25A     -0.609921    26A     -0.601149    27A     -0.571689
      28A     -0.554374    29A     -0.499295    30A     -0.478714
      31A     -0.446410    32A     -0.433245    33A     -0.360796

  @DF-RHF Final Energy:  -451.65615186364778

   => Energetics <=

    Nuclear Repulsion Energy =            441.0605095041211712
    One-Electron Energy =               -1490.0889317296118861
    Two-Electron Energy =                 597.3722703618428795
    Total Energy =                       -451.6561518636477786
  Basis Set: (AUG-CC-PVTZ AUX)
    Blend: AUG-CC-PVTZ-RI
    Molecular point group: c1

    Geometry (in Angstrom), charge = 0, multiplicity = 1:

       Center              X                  Y                   Z               Mass
    ------------   -----------------  -----------------  -----------------  -----------------
         O           -1.445123520330     1.816665719453     0.002018879178    15.994914619570
         O            2.857613479670     0.236225719453     0.001937879178    15.994914619570
         N           -1.140156520330    -0.479566280547     0.002194879178    14.003074004430
         N            0.684344479670     0.959640719453     0.002277879178    14.003074004430
         C           -0.699566520330     0.841120719453     0.001690879178    12.000000000000
         C           -0.254773520330    -1.540057280547     0.002039879178    12.000000000000
         C           -2.578795520330    -0.735249280547     0.001924879178    12.000000000000
         C            1.088525479670    -1.382349280547     0.002071879178    12.000000000000
         C            1.659811479670    -0.044223280547     0.001778879178    12.000000000000
         H           -0.726881420330    -2.518278680547    -0.247825120822     1.007825032230
         H           -2.861939520330    -1.296259280547     0.895630879178     1.007825032230
         H           -2.861326520330    -1.297339280547    -0.891345120822     1.007825032230
         H           -3.079288520330     0.230226719453     0.001179879178     1.007825032230
         H            1.023705479670     1.919215719453     0.002314879178     1.007825032230
         H            1.766164479670    -2.226204280547     0.001910879178     1.007825032230

  Basis Set: AUG-CC-PVTZ
    Blend: AUG-CC-PVTZ
  Basis Set: (AUG-CC-PVTZ AUX)
    Blend: AUG-CC-PVTZ-JKFIT
	 Reference Energy          =    -451.6561518636477786 [Eh]
	 Singles Energy            =      -0.0000000000000000 [Eh]
	 Same-Spin Energy          =      -0.4583415945855521 [Eh]
	 Opposite-Spin Energy      =      -1.3854396727197908 [Eh]
	 Correlation Energy        =      -1.8437812673053429 [Eh]
	 Total Energy              =    -453.4999331309531385 [Eh]

	 ================> DF-SCS-MP2 Energies <==================
	-----------------------------------------------------------
	 SCS Same-Spin Scale       =       0.3333333333333333 [-]
	 SCS Opposite-Spin Scale   =       1.2000000000000000 [-]
	 SCS Same-Spin Energy      =      -0.1527805315285173 [Eh]
	 SCS Opposite-Spin Energy  =      -1.6625276072637489 [Eh]
	 SCS Correlation Energy    =      -1.8153081387922663 [Eh]
	 SCS Total Energy          =    -453.4714600024400397 [Eh]
	-----------------------------------------------------------

  Dipole Moment: [D]
     X:    -3.1954      Y:    -3.5116      Z:    -0.1509     Total:     4.7502

*** Psi4 exiting successfully. Buy a developer a beer!
