                               Psi4 1.3.2 release

  ==> Input File <==

--------------------------------------------------------------------------
#psi4
#
memory 32 gb

molecule  {
0 1
  O       -1.3945310     1.8555980     0.0000210
  O        2.9082060     0.2751580    -0.0000600
  N       -1.0895640    -0.4406340     0.0001970
  N        0.7349370     0.9985730     0.0002800
  C       -0.6489740     0.8800530    -0.0003070
  C       -0.2041810    -1.5011250     0.0000420
  C       -2.5282030    -0.6963170    -0.0000730
  C        1.1391517    -1.3434332     0.2500740
  C        1.7104040    -0.0052910    -0.0002190
  H       -0.6762750    -2.4793460     0.0001770
  H       -2.8113470    -1.2573270     0.8936330
  H       -2.8107340    -1.2584070    -0.8933430
  H       -3.0286960     0.2691590    -0.0008180
  H        1.0742980     1.9581480     0.0003170
  H        1.8167570    -2.1872720    -0.0000870
units angstrom
no_reorient  #important for SAPT in psi4, default
symmetry c1  #important for SAPT in psi4, default
}

set PROPERTIES_ORIGIN ["COM"]
properties('MP2/aug-cc-pvtz', properties = ['dipole'])
--------------------------------------------------------------------------

    Molecular point group: c1
  Charge       = 0
  Multiplicity = 1
  Basis Set: AUG-CC-PVTZ
    Blend: AUG-CC-PVTZ
  Basis Set: (AUG-CC-PVTZ AUX)
    Blend: AUG-CC-PVTZ-JKFIT

    Orbital Energies [Eh]
    ---------------------

    Doubly Occupied:

       1A    -20.547595     2A    -20.539054     3A    -15.647324
       4A    -15.626626     5A    -11.420160     6A    -11.380953
       7A    -11.343783     8A    -11.291408     9A    -11.260279
      10A     -1.429720    11A     -1.387899    12A     -1.314003
      13A     -1.246121    14A     -1.085824    15A     -0.990649
      16A     -0.929371    17A     -0.871130    18A     -0.769029
      19A     -0.747588    20A     -0.700957    21A     -0.685974
      22A     -0.657342    23A     -0.643754    24A     -0.617359
      25A     -0.603085    26A     -0.599142    27A     -0.568607
      28A     -0.552816    29A     -0.498285    30A     -0.480348
      31A     -0.444587    32A     -0.433309    33A     -0.361237

  @DF-RHF Final Energy:  -451.64481639353744

   => Energetics <=

    Nuclear Repulsion Energy =            440.4531303656818864
    One-Electron Energy =               -1488.8452611911095573
    Two-Electron Energy =                 596.7473144318901177
    Total Energy =                       -451.6448163935374396
  Basis Set: (AUG-CC-PVTZ AUX)
    Blend: AUG-CC-PVTZ-RI
    Molecular point group: c1

    Geometry (in Angstrom), charge = 0, multiplicity = 1:

       Center              X                  Y                   Z               Mass
    ------------   -----------------  -----------------  -----------------  -----------------
         O           -1.445126839904     1.816667258586    -0.023781507437    15.994914619570
         O            2.857610160096     0.236227258586    -0.023862507437    15.994914619570
         N           -1.140159839904    -0.479564741414    -0.023605507437    14.003074004430
         N            0.684341160096     0.959642258586    -0.023522507437    14.003074004430
         C           -0.699569839904     0.841122258586    -0.024109507437    12.000000000000
         C           -0.254776839904    -1.540055741414    -0.023760507437    12.000000000000
         C           -2.578798839904    -0.735247741414    -0.023875507437    12.000000000000
         C            1.088555860096    -1.382363941414     0.226271492563    12.000000000000
         C            1.659808160096    -0.044221741414    -0.024021507437    12.000000000000
         H           -0.726870839904    -2.518276741414    -0.023625507437     1.007825032230
         H           -2.861942839904    -1.296257741414     0.869830492563     1.007825032230
         H           -2.861329839904    -1.297337741414    -0.917145507437     1.007825032230
         H           -3.079291839904     0.230228258586    -0.024620507437     1.007825032230
         H            1.023702160096     1.919217258586    -0.023485507437     1.007825032230
         H            1.766161160096    -2.226202741414    -0.023889507437     1.007825032230

  Basis Set: AUG-CC-PVTZ
    Blend: AUG-CC-PVTZ
  Basis Set: (AUG-CC-PVTZ AUX)
    Blend: AUG-CC-PVTZ-JKFIT
	 Reference Energy          =    -451.6448163935374396 [Eh]
	 Singles Energy            =      -0.0000000000000000 [Eh]
	 Same-Spin Energy          =      -0.4587882233228774 [Eh]
	 Opposite-Spin Energy      =      -1.3868456514515797 [Eh]
	 Correlation Energy        =      -1.8456338747744572 [Eh]
	 Total Energy              =    -453.4904502683119176 [Eh]

	 ================> DF-SCS-MP2 Energies <==================
	-----------------------------------------------------------
	 SCS Same-Spin Scale       =       0.3333333333333333 [-]
	 SCS Opposite-Spin Scale   =       1.2000000000000000 [-]
	 SCS Same-Spin Energy      =      -0.1529294077742925 [Eh]
	 SCS Opposite-Spin Energy  =      -1.6642147817418955 [Eh]
	 SCS Correlation Energy    =      -1.8171441895161879 [Eh]
	 SCS Total Energy          =    -453.4619605830536102 [Eh]
	-----------------------------------------------------------

  Dipole Moment: [D]
     X:    -3.3252      Y:    -3.4165      Z:    -0.2241     Total:     4.7728

*** Psi4 exiting successfully. Buy a developer a beer!
