                               Psi4 1.3.2 release

  ==> Input File <==

--------------------------------------------------------------------------
#psi4
#
memory 32 gb

molecule  {
0 1
  O       -1.3945310     1.8555980     0.0000210
  O        2.9082060     0.2751580    -0.0000600
  N       -1.0895640    -0.4406340     0.0001970
  N        0.7349370     0.9985730     0.0002800
  C       -0.6489740     0.8800530    -0.0003070
  C       -0.2041810    -1.5011250     0.0000420
  C       -2.5282030    -0.6963170    -0.0000730
  C        1.1391180    -1.3434170     0.0000740
  C        1.7104040    -0.0052910    -0.0002190
  H       -0.6762750    -2.4793460     0.0001770
  H       -2.8113470    -1.2573270     0.8936330
  H       -2.8107340    -1.2584070    -0.8933430
  H       -3.0286960     0.2691590    -0.0008180
  H        1.0742980     1.9581480     0.0003170
  H        1.8167484    -2.1872785    -0.1000870
units angstrom
no_reorient  #important for SAPT in psi4, default
symmetry c1  #important for SAPT in psi4, default
}

set PROPERTIES_ORIGIN ["COM"]
properties('MP2/aug-cc-pvtz', properties = ['dipole'])
--------------------------------------------------------------------------

    Molecular point group: c1
  Charge       = 0
  Multiplicity = 1
  Basis Set: AUG-CC-PVTZ
    Blend: AUG-CC-PVTZ
  Basis Set: (AUG-CC-PVTZ AUX)
    Blend: AUG-CC-PVTZ-JKFIT

    Orbital Energies [Eh]
    ---------------------

    Doubly Occupied:

       1A    -20.545565     2A    -20.538808     3A    -15.644578
       4A    -15.626596     5A    -11.418596     6A    -11.379834
       7A    -11.337257     8A    -11.290045     9A    -11.256496
      10A     -1.428418    11A     -1.388126    12A     -1.312408
      13A     -1.245674    14A     -1.091086    15A     -0.989691
      16A     -0.930683    17A     -0.872252    18A     -0.771915
      19A     -0.751947    20A     -0.699938    21A     -0.685305
      22A     -0.657690    23A     -0.644180    24A     -0.615202
      25A     -0.609368    26A     -0.602282    27A     -0.571698
      28A     -0.554075    29A     -0.499396    30A     -0.480023
      31A     -0.446127    32A     -0.433071    33A     -0.360629

  @DF-RHF Final Energy:  -451.65998207848941

   => Energetics <=

    Nuclear Repulsion Energy =            441.1578247964882280
    One-Electron Energy =               -1490.2776921293304895
    Two-Electron Energy =                 597.4598852543527983
    Total Energy =                       -451.6599820784894064
  Basis Set: (AUG-CC-PVTZ AUX)
    Blend: AUG-CC-PVTZ-RI
    Molecular point group: c1

    Geometry (in Angstrom), charge = 0, multiplicity = 1:

       Center              X                  Y                   Z               Mass
    ------------   -----------------  -----------------  -----------------  -----------------
         O           -1.445123562709     1.816665768228     0.000819496095    15.994914619570
         O            2.857613437291     0.236225768228     0.000738496095    15.994914619570
         N           -1.140156562709    -0.479566231772     0.000995496095    14.003074004430
         N            0.684344437291     0.959640768228     0.001078496095    14.003074004430
         C           -0.699566562709     0.841120768228     0.000491496095    12.000000000000
         C           -0.254773562709    -1.540057231772     0.000840496095    12.000000000000
         C           -2.578795562709    -0.735249231772     0.000725496095    12.000000000000
         C            1.088525437291    -1.382349231772     0.000872496095    12.000000000000
         C            1.659811437291    -0.044223231772     0.000579496095    12.000000000000
         H           -0.726867562709    -2.518278231772     0.000975496095     1.007825032230
         H           -2.861939562709    -1.296259231772     0.894431496095     1.007825032230
         H           -2.861326562709    -1.297339231772    -0.892544503905     1.007825032230
         H           -3.079288562709     0.230226768228    -0.000019503905     1.007825032230
         H            1.023705437291     1.919215768228     0.001115496095     1.007825032230
         H            1.766155837291    -2.226210731772    -0.099288503905     1.007825032230

  Basis Set: AUG-CC-PVTZ
    Blend: AUG-CC-PVTZ
  Basis Set: (AUG-CC-PVTZ AUX)
    Blend: AUG-CC-PVTZ-JKFIT
	 Reference Energy          =    -451.6599820784894064 [Eh]
	 Singles Energy            =      -0.0000000000000000 [Eh]
	 Same-Spin Energy          =      -0.4580796242777798 [Eh]
	 Opposite-Spin Energy      =      -1.3848657362111316 [Eh]
	 Correlation Energy        =      -1.8429453604889114 [Eh]
	 Total Energy              =    -453.5029274389783041 [Eh]

	 ================> DF-SCS-MP2 Energies <==================
	-----------------------------------------------------------
	 SCS Same-Spin Scale       =       0.3333333333333333 [-]
	 SCS Opposite-Spin Scale   =       1.2000000000000000 [-]
	 SCS Same-Spin Energy      =      -0.1526932080925933 [Eh]
	 SCS Opposite-Spin Energy  =      -1.6618388834533580 [Eh]
	 SCS Correlation Energy    =      -1.8145320915459513 [Eh]
	 SCS Total Energy          =    -453.4745141700353770 [Eh]
	-----------------------------------------------------------

  Dipole Moment: [D]
     X:    -3.2406      Y:    -3.5343      Z:    -0.0735     Total:     4.7957

*** Psi4 exiting successfully. Buy a developer a beer!
