                               Psi4 1.3.2 release

  ==> Input File <==

--------------------------------------------------------------------------
#psi4
#
memory 32 gb

molecule  {
0 1
  O       -1.3945310     1.8555980     0.0000210
  O        2.9082060     0.2751580    -0.0000600
  N       -1.0895640    -0.4406340     0.0001970
  N        0.7349370     0.9985730     0.0002800
  C       -0.6489740     0.8800530    -0.0003070
  C       -0.2041810    -1.5011250     0.0000420
  C       -2.5282030    -0.6963170    -0.0000730
  C        1.1391180    -1.3434170     0.0000740
  C        1.7104040    -0.0052910    -0.0002190
  H       -0.6762834    -2.4793462    -0.1498230
  H       -2.8113470    -1.2573270     0.8936330
  H       -2.8107340    -1.2584070    -0.8933430
  H       -3.0286960     0.2691590    -0.0008180
  H        1.0742980     1.9581480     0.0003170
  H        1.8167570    -2.1872720    -0.0000870
units angstrom
no_reorient  #important for SAPT in psi4, default
symmetry c1  #important for SAPT in psi4, default
}

set PROPERTIES_ORIGIN ["COM"]
properties('MP2/aug-cc-pvtz', properties = ['dipole'])
--------------------------------------------------------------------------

    Molecular point group: c1
  Charge       = 0
  Multiplicity = 1
  Basis Set: AUG-CC-PVTZ
    Blend: AUG-CC-PVTZ
  Basis Set: (AUG-CC-PVTZ AUX)
    Blend: AUG-CC-PVTZ-JKFIT

    Orbital Energies [Eh]
    ---------------------

    Doubly Occupied:

       1A    -20.545477     2A    -20.538998     3A    -15.644370
       4A    -15.626656     5A    -11.418533     6A    -11.380011
       7A    -11.337960     8A    -11.289886     9A    -11.256518
      10A     -1.428365    11A     -1.388269    12A     -1.312251
      13A     -1.245676    14A     -1.091090    15A     -0.989580
      16A     -0.929841    17A     -0.872382    18A     -0.771928
      19A     -0.752250    20A     -0.698712    21A     -0.684306
      22A     -0.657711    23A     -0.644046    24A     -0.614939
      25A     -0.610088    26A     -0.601895    27A     -0.571802
      28A     -0.554273    29A     -0.499379    30A     -0.479521
      31A     -0.446235    32A     -0.433129    33A     -0.360701

  @DF-RHF Final Energy:  -451.65904093505270

   => Energetics <=

    Nuclear Repulsion Energy =            441.1339326639058527
    One-Electron Energy =               -1490.2323882514883735
    Two-Electron Energy =                 597.4394146525298765
    Total Energy =                       -451.6590409350526443
  Basis Set: (AUG-CC-PVTZ AUX)
    Blend: AUG-CC-PVTZ-RI
    Molecular point group: c1

    Geometry (in Angstrom), charge = 0, multiplicity = 1:

       Center              X                  Y                   Z               Mass
    ------------   -----------------  -----------------  -----------------  -----------------
         O           -1.445123564308     1.816665717854     0.001219290456    15.994914619570
         O            2.857613435692     0.236225717854     0.001138290456    15.994914619570
         N           -1.140156564308    -0.479566282146     0.001395290456    14.003074004430
         N            0.684344435692     0.959640717854     0.001478290456    14.003074004430
         C           -0.699566564308     0.841120717854     0.000891290456    12.000000000000
         C           -0.254773564308    -1.540057282146     0.001240290456    12.000000000000
         C           -2.578795564308    -0.735249282146     0.001125290456    12.000000000000
         C            1.088525435692    -1.382349282146     0.001272290456    12.000000000000
         C            1.659811435692    -0.044223282146     0.000979290456    12.000000000000
         H           -0.726875964308    -2.518278482146    -0.148624709544     1.007825032230
         H           -2.861939564308    -1.296259282146     0.894831290456     1.007825032230
         H           -2.861326564308    -1.297339282146    -0.892144709544     1.007825032230
         H           -3.079288564308     0.230226717854     0.000380290456     1.007825032230
         H            1.023705435692     1.919215717854     0.001515290456     1.007825032230
         H            1.766164435692    -2.226204282146     0.001111290456     1.007825032230

  Basis Set: AUG-CC-PVTZ
    Blend: AUG-CC-PVTZ
  Basis Set: (AUG-CC-PVTZ AUX)
    Blend: AUG-CC-PVTZ-JKFIT
	 Reference Energy          =    -451.6590409350527011 [Eh]
	 Singles Energy            =      -0.0000000000000000 [Eh]
	 Same-Spin Energy          =      -0.4581578074885282 [Eh]
	 Opposite-Spin Energy      =      -1.3850279650209867 [Eh]
	 Correlation Energy        =      -1.8431857725095149 [Eh]
	 Total Energy              =    -453.5022267075622153 [Eh]

	 ================> DF-SCS-MP2 Energies <==================
	-----------------------------------------------------------
	 SCS Same-Spin Scale       =       0.3333333333333333 [-]
	 SCS Opposite-Spin Scale   =       1.2000000000000000 [-]
	 SCS Same-Spin Energy      =      -0.1527192691628427 [Eh]
	 SCS Opposite-Spin Energy  =      -1.6620335580251839 [Eh]
	 SCS Correlation Energy    =      -1.8147528271880267 [Eh]
	 SCS Total Energy          =    -453.4737937622407458 [Eh]
	-----------------------------------------------------------

  Dipole Moment: [D]
     X:    -3.2208      Y:    -3.5299      Z:    -0.0916     Total:     4.7793

*** Psi4 exiting successfully. Buy a developer a beer!
