                               Psi4 1.3.2 release

  ==> Input File <==

--------------------------------------------------------------------------
#psi4
#
memory 32 gb

molecule  {
0 1
  O       -1.3945310     1.8555980     0.0000210
  O        2.9082060     0.2751580    -0.0000600
  N       -1.0895640    -0.4406340     0.0001970
  N        0.7349370     0.9985730     0.0002800
  C       -0.6489740     0.8800530    -0.0003070
  C       -0.2041810    -1.5011250     0.0000420
  C       -2.5282031    -0.6963243    -0.0500730
  C        1.1391180    -1.3434170     0.0000740
  C        1.7104040    -0.0052910    -0.0002190
  H       -0.6762750    -2.4793460     0.0001770
  H       -2.8113470    -1.2573270     0.8936330
  H       -2.8107340    -1.2584070    -0.8933430
  H       -3.0286960     0.2691590    -0.0008180
  H        1.0742980     1.9581480     0.0003170
  H        1.8167570    -2.1872720    -0.0000870
units angstrom
no_reorient  #important for SAPT in psi4, default
symmetry c1  #important for SAPT in psi4, default
}

set PROPERTIES_ORIGIN ["COM"]
properties('MP2/aug-cc-pvtz', properties = ['dipole'])
--------------------------------------------------------------------------

    Molecular point group: c1
  Charge       = 0
  Multiplicity = 1
  Basis Set: AUG-CC-PVTZ
    Blend: AUG-CC-PVTZ
  Basis Set: (AUG-CC-PVTZ AUX)
    Blend: AUG-CC-PVTZ-JKFIT

    Orbital Energies [Eh]
    ---------------------

    Doubly Occupied:

       1A    -20.545559     2A    -20.538856     3A    -15.644625
       4A    -15.626618     5A    -11.418588     6A    -11.379885
       7A    -11.337138     8A    -11.290369     9A    -11.256195
      10A     -1.428404    11A     -1.388171    12A     -1.312325
      13A     -1.245651    14A     -1.091178    15A     -0.989984
      16A     -0.930709    17A     -0.872528    18A     -0.772273
      19A     -0.752468    20A     -0.700004    21A     -0.685476
      22A     -0.658149    23A     -0.644354    24A     -0.620948
      25A     -0.605325    26A     -0.601902    27A     -0.571453
      28A     -0.553238    29A     -0.498725    30A     -0.480010
      31A     -0.446175    32A     -0.433097    33A     -0.360642

  @DF-RHF Final Energy:  -451.65781145031104

   => Energetics <=

    Nuclear Repulsion Energy =            441.1638699028881661
    One-Electron Energy =               -1490.2813191217626354
    Two-Electron Energy =                 597.4596377685635389
    Total Energy =                       -451.6578114503109873
  Basis Set: (AUG-CC-PVTZ AUX)
    Blend: AUG-CC-PVTZ-RI
    Molecular point group: c1

    Geometry (in Angstrom), charge = 0, multiplicity = 1:

       Center              X                  Y                   Z               Mass
    ------------   -----------------  -----------------  -----------------  -----------------
         O           -1.445123621953     1.816666411256     0.004780190336    15.994914619570
         O            2.857613378047     0.236226411256     0.004699190336    15.994914619570
         N           -1.140156621953    -0.479565588744     0.004956190336    14.003074004430
         N            0.684344378047     0.959641411256     0.005039190336    14.003074004430
         C           -0.699566621953     0.841121411256     0.004452190336    12.000000000000
         C           -0.254773621953    -1.540056588744     0.004801190336    12.000000000000
         C           -2.578795721953    -0.735255888744    -0.045313809664    12.000000000000
         C            1.088525378047    -1.382348588744     0.004833190336    12.000000000000
         C            1.659811378047    -0.044222588744     0.004540190336    12.000000000000
         H           -0.726867621953    -2.518277588744     0.004936190336     1.007825032230
         H           -2.861939621953    -1.296258588744     0.898392190336     1.007825032230
         H           -2.861326621953    -1.297338588744    -0.888583809664     1.007825032230
         H           -3.079288621953     0.230227411256     0.003941190336     1.007825032230
         H            1.023705378047     1.919216411256     0.005076190336     1.007825032230
         H            1.766164378047    -2.226203588744     0.004672190336     1.007825032230

  Basis Set: AUG-CC-PVTZ
    Blend: AUG-CC-PVTZ
  Basis Set: (AUG-CC-PVTZ AUX)
    Blend: AUG-CC-PVTZ-JKFIT
	 Reference Energy          =    -451.6578114503110442 [Eh]
	 Singles Energy            =      -0.0000000000000000 [Eh]
	 Same-Spin Energy          =      -0.4580858821149809 [Eh]
	 Opposite-Spin Energy      =      -1.3849267160826313 [Eh]
	 Correlation Energy        =      -1.8430125981976122 [Eh]
	 Total Energy              =    -453.5008240485086617 [Eh]

	 ================> DF-SCS-MP2 Energies <==================
	-----------------------------------------------------------
	 SCS Same-Spin Scale       =       0.3333333333333333 [-]
	 SCS Opposite-Spin Scale   =       1.2000000000000000 [-]
	 SCS Same-Spin Energy      =      -0.1526952940383269 [Eh]
	 SCS Opposite-Spin Energy  =      -1.6619120592991574 [Eh]
	 SCS Correlation Energy    =      -1.8146073533374842 [Eh]
	 SCS Total Energy          =    -453.4724188036485089 [Eh]
	-----------------------------------------------------------

  Dipole Moment: [D]
     X:    -3.2305      Y:    -3.5364      Z:    -0.0581     Total:     4.7901

*** Psi4 exiting successfully. Buy a developer a beer!
