                               Psi4 1.3.2 release

  ==> Input File <==

--------------------------------------------------------------------------
#psi4
#
memory 32 gb

molecule  {
0 1
  O       -1.3945310     1.8555980     0.0000210
  O        2.9082060     0.2751580    -0.0000600
  N       -1.0895640    -0.4406340     0.0001970
  N        0.7349370     0.9985730     0.0002800
  C       -0.6489740     0.8800530    -0.0003070
  C       -0.2041810    -1.5011250     0.0000420
  C       -2.5282030    -0.6963170    -0.0000730
  C        1.1391180    -1.3434170     0.0000740
  C        1.7104040    -0.0052910    -0.0002190
  H       -0.6762750    -2.4793460     0.0001770
  H       -2.8113470    -1.2573270     0.8936330
  H       -2.8107340    -1.2584070    -0.8933430
  H       -3.0286960     0.2691590    -0.0008180
  H        1.0742980     1.9581480     0.0003170
  H        1.8167398    -2.1872849    -0.2000870
units angstrom
no_reorient  #important for SAPT in psi4, default
symmetry c1  #important for SAPT in psi4, default
}

set PROPERTIES_ORIGIN ["COM"]
properties('MP2/aug-cc-pvtz', properties = ['dipole'])
--------------------------------------------------------------------------

    Molecular point group: c1
  Charge       = 0
  Multiplicity = 1
  Basis Set: AUG-CC-PVTZ
    Blend: AUG-CC-PVTZ
  Basis Set: (AUG-CC-PVTZ AUX)
    Blend: AUG-CC-PVTZ-JKFIT

    Orbital Energies [Eh]
    ---------------------

    Doubly Occupied:

       1A    -20.545772     2A    -20.538795     3A    -15.644858
       4A    -15.626658     5A    -11.418767     6A    -11.379795
       7A    -11.337611     8A    -11.290186     9A    -11.257495
      10A     -1.428577    11A     -1.388110    12A     -1.312617
      13A     -1.245760    14A     -1.090834    15A     -0.989783
      16A     -0.930657    17A     -0.871952    18A     -0.771740
      19A     -0.751062    20A     -0.700078    21A     -0.685530
      22A     -0.657295    23A     -0.644079    24A     -0.615703
      25A     -0.607254    26A     -0.602324    27A     -0.571178
      28A     -0.553616    29A     -0.499267    30A     -0.480153
      31A     -0.446104    32A     -0.433093    33A     -0.360572

  @DF-RHF Final Energy:  -451.65817610638049

   => Energetics <=

    Nuclear Repulsion Energy =            441.1033637716417957
    One-Electron Energy =               -1490.1685321270126678
    Two-Electron Energy =                 597.4069922489902638
    Total Energy =                       -451.6581761063805516
  Basis Set: (AUG-CC-PVTZ AUX)
    Blend: AUG-CC-PVTZ-RI
    Molecular point group: c1

    Geometry (in Angstrom), charge = 0, multiplicity = 1:

       Center              X                  Y                   Z               Mass
    ------------   -----------------  -----------------  -----------------  -----------------
         O           -1.445123493944     1.816665819401     0.001619084817    15.994914619570
         O            2.857613506056     0.236225819401     0.001538084817    15.994914619570
         N           -1.140156493944    -0.479566180599     0.001795084817    14.003074004430
         N            0.684344506056     0.959640819401     0.001878084817    14.003074004430
         C           -0.699566493944     0.841120819401     0.001291084817    12.000000000000
         C           -0.254773493944    -1.540057180599     0.001640084817    12.000000000000
         C           -2.578795493944    -0.735249180599     0.001525084817    12.000000000000
         C            1.088525506056    -1.382349180599     0.001672084817    12.000000000000
         C            1.659811506056    -0.044223180599     0.001379084817    12.000000000000
         H           -0.726867493944    -2.518278180599     0.001775084817     1.007825032230
         H           -2.861939493944    -1.296259180599     0.895231084817     1.007825032230
         H           -2.861326493944    -1.297339180599    -0.891744915183     1.007825032230
         H           -3.079288493944     0.230226819401     0.000780084817     1.007825032230
         H            1.023705506056     1.919215819401     0.001915084817     1.007825032230
         H            1.766147306056    -2.226217080599    -0.198488915183     1.007825032230

  Basis Set: AUG-CC-PVTZ
    Blend: AUG-CC-PVTZ
  Basis Set: (AUG-CC-PVTZ AUX)
    Blend: AUG-CC-PVTZ-JKFIT
	 Reference Energy          =    -451.6581761063804947 [Eh]
	 Singles Energy            =      -0.0000000000000000 [Eh]
	 Same-Spin Energy          =      -0.4581606799327017 [Eh]
	 Opposite-Spin Energy      =      -1.3850333213364145 [Eh]
	 Correlation Energy        =      -1.8431940012691164 [Eh]
	 Total Energy              =    -453.5013701076496204 [Eh]

	 ================> DF-SCS-MP2 Energies <==================
	-----------------------------------------------------------
	 SCS Same-Spin Scale       =       0.3333333333333333 [-]
	 SCS Opposite-Spin Scale   =       1.2000000000000000 [-]
	 SCS Same-Spin Energy      =      -0.1527202266442339 [Eh]
	 SCS Opposite-Spin Energy  =      -1.6620399856036974 [Eh]
	 SCS Correlation Energy    =      -1.8147602122479314 [Eh]
	 SCS Total Energy          =    -453.4729363186283990 [Eh]
	-----------------------------------------------------------

  Dipole Moment: [D]
     X:    -3.2555      Y:    -3.5169      Z:    -0.1452     Total:     4.7946

*** Psi4 exiting successfully. Buy a developer a beer!
