                               Psi4 1.3.2 release

  ==> Input File <==

--------------------------------------------------------------------------
#psi4
#
memory 32 gb

molecule  {
0 1
  O       -1.3945310     1.8555980     0.0000210
  O        2.9082060     0.2751580    -0.0000600
  N       -1.0895640    -0.4406340     0.0001970
  N        0.7349370     0.9985730     0.0002800
  C       -0.6489740     0.8800530    -0.0003070
  C       -0.2041810    -1.5011250     0.0000420
  C       -2.5282030    -0.6963170    -0.0000730
  C        1.1391180    -1.3434170     0.0000740
  C        1.7104040    -0.0052910    -0.0002190
  H       -0.6762750    -2.4793460     0.0001770
  H       -2.8113470    -1.2573270     0.8936330
  H       -2.8107340    -1.2584070    -0.8933430
  H       -3.0286960     0.2691590    -0.0008180
  H        1.0742582     1.9580669     0.2503170
  H        1.8167570    -2.1872720    -0.0000870
units angstrom
no_reorient  #important for SAPT in psi4, default
symmetry c1  #important for SAPT in psi4, default
}

set PROPERTIES_ORIGIN ["COM"]
properties('MP2/aug-cc-pvtz', properties = ['dipole'])
--------------------------------------------------------------------------

    Molecular point group: c1
  Charge       = 0
  Multiplicity = 1
  Basis Set: AUG-CC-PVTZ
    Blend: AUG-CC-PVTZ
  Basis Set: (AUG-CC-PVTZ AUX)
    Blend: AUG-CC-PVTZ-JKFIT

    Orbital Energies [Eh]
    ---------------------

    Doubly Occupied:

       1A    -20.545601     2A    -20.539008     3A    -15.644353
       4A    -15.627906     5A    -11.418206     6A    -11.379488
       7A    -11.337139     8A    -11.289897     9A    -11.256020
      10A     -1.427889    11A     -1.387938    12A     -1.312241
      13A     -1.242927    14A     -1.090750    15A     -0.989275
      16A     -0.928601    17A     -0.871934    18A     -0.769262
      19A     -0.748790    20A     -0.699311    21A     -0.684205
      22A     -0.656807    23A     -0.644056    24A     -0.616516
      25A     -0.609206    26A     -0.599372    27A     -0.570861
      28A     -0.554046    29A     -0.499164    30A     -0.479866
      31A     -0.446172    32A     -0.432940    33A     -0.360527

  @DF-RHF Final Energy:  -451.65677649600752

   => Energetics <=

    Nuclear Repulsion Energy =            441.0215562103850857
    One-Electron Energy =               -1490.0361211222182192
    Two-Electron Energy =                 597.3577884158255529
    Total Energy =                       -451.6567764960075237
  Basis Set: (AUG-CC-PVTZ AUX)
    Blend: AUG-CC-PVTZ-RI
    Molecular point group: c1

    Geometry (in Angstrom), charge = 0, multiplicity = 1:

       Center              X                  Y                   Z               Mass
    ------------   -----------------  -----------------  -----------------  -----------------
         O           -1.445123313237     1.816666364721    -0.001979064430    15.994914619570
         O            2.857613686763     0.236226364721    -0.002060064430    15.994914619570
         N           -1.140156313237    -0.479565635279    -0.001803064430    14.003074004430
         N            0.684344686763     0.959641364721    -0.001720064430    14.003074004430
         C           -0.699566313237     0.841121364721    -0.002307064430    12.000000000000
         C           -0.254773313237    -1.540056635279    -0.001958064430    12.000000000000
         C           -2.578795313237    -0.735248635279    -0.002073064430    12.000000000000
         C            1.088525686763    -1.382348635279    -0.001926064430    12.000000000000
         C            1.659811686763    -0.044222635279    -0.002219064430    12.000000000000
         H           -0.726867313237    -2.518277635279    -0.001823064430     1.007825032230
         H           -2.861939313237    -1.296258635279     0.891632935570     1.007825032230
         H           -2.861326313237    -1.297338635279    -0.895343064430     1.007825032230
         H           -3.079288313237     0.230227364721    -0.002818064430     1.007825032230
         H            1.023665886763     1.919135264721     0.248316935570     1.007825032230
         H            1.766164686763    -2.226203635279    -0.002087064430     1.007825032230

  Basis Set: AUG-CC-PVTZ
    Blend: AUG-CC-PVTZ
  Basis Set: (AUG-CC-PVTZ AUX)
    Blend: AUG-CC-PVTZ-JKFIT
	 Reference Energy          =    -451.6567764960075237 [Eh]
	 Singles Energy            =      -0.0000000000000000 [Eh]
	 Same-Spin Energy          =      -0.4583362072854650 [Eh]
	 Opposite-Spin Energy      =      -1.3854629043766997 [Eh]
	 Correlation Energy        =      -1.8437991116621646 [Eh]
	 Total Energy              =    -453.5005756076697025 [Eh]

	 ================> DF-SCS-MP2 Energies <==================
	-----------------------------------------------------------
	 SCS Same-Spin Scale       =       0.3333333333333333 [-]
	 SCS Opposite-Spin Scale   =       1.2000000000000000 [-]
	 SCS Same-Spin Energy      =      -0.1527787357618217 [Eh]
	 SCS Opposite-Spin Energy  =      -1.6625554852520397 [Eh]
	 SCS Correlation Energy    =      -1.8153342210138614 [Eh]
	 SCS Total Energy          =    -453.4721107170213941 [Eh]
	-----------------------------------------------------------

  Dipole Moment: [D]
     X:    -3.2372      Y:    -3.5509      Z:     0.3234     Total:     4.8159

*** Psi4 exiting successfully. Buy a developer a beer!
