                               Psi4 1.3.2 release

  ==> Input File <==

--------------------------------------------------------------------------
#psi4
#
memory 32 gb

molecule  {
0 1
  O       -1.3945310     1.8555980     0.0000210
  O        2.9082060     0.2751580    -0.0000600
  N       -1.0895640    -0.4406340     0.0001970
  N        0.7349370     0.9985730     0.0002800
  C       -0.6489740     0.8800530    -0.0003070
  C       -0.2041810    -1.5011250     0.0000420
  C       -2.5282031    -0.6963317    -0.1000730
  C        1.1391180    -1.3434170     0.0000740
  C        1.7104040    -0.0052910    -0.0002190
  H       -0.6762750    -2.4793460     0.0001770
  H       -2.8113470    -1.2573270     0.8936330
  H       -2.8107340    -1.2584070    -0.8933430
  H       -3.0286960     0.2691590    -0.0008180
  H        1.0742980     1.9581480     0.0003170
  H        1.8167570    -2.1872720    -0.0000870
units angstrom
no_reorient  #important for SAPT in psi4, default
symmetry c1  #important for SAPT in psi4, default
}

set PROPERTIES_ORIGIN ["COM"]
properties('MP2/aug-cc-pvtz', properties = ['dipole'])
--------------------------------------------------------------------------

    Molecular point group: c1
  Charge       = 0
  Multiplicity = 1
  Basis Set: AUG-CC-PVTZ
    Blend: AUG-CC-PVTZ
  Basis Set: (AUG-CC-PVTZ AUX)
    Blend: AUG-CC-PVTZ-JKFIT

    Orbital Energies [Eh]
    ---------------------

    Doubly Occupied:

       1A    -20.545748     2A    -20.538982     3A    -15.645043
       4A    -15.626742     5A    -11.418739     6A    -11.379992
       7A    -11.337137     8A    -11.291483     9A    -11.256300
      10A     -1.428523    11A     -1.388289    12A     -1.312287
      13A     -1.245670    14A     -1.091190    15A     -0.990973
      16A     -0.930756    17A     -0.873040    18A     -0.773178
      19A     -0.753093    20A     -0.700377    21A     -0.686201
      22A     -0.659167    23A     -0.644900    24A     -0.628162
      25A     -0.602890    26A     -0.598897    27A     -0.570463
      28A     -0.550412    29A     -0.496516    30A     -0.480104
      31A     -0.446292    32A     -0.433194    33A     -0.360620

  @DF-RHF Final Energy:  -451.64956048572287

   => Energetics <=

    Nuclear Repulsion Energy =            441.1267914439549713
    One-Electron Energy =               -1490.1819874351522230
    Two-Electron Energy =                 597.4056355054743790
    Total Energy =                       -451.6495604857228727
  Basis Set: (AUG-CC-PVTZ AUX)
    Blend: AUG-CC-PVTZ-RI
    Molecular point group: c1

    Geometry (in Angstrom), charge = 0, multiplicity = 1:

       Center              X                  Y                   Z               Mass
    ------------   -----------------  -----------------  -----------------  -----------------
         O           -1.445123621953     1.816667115778     0.009540473298    15.994914619570
         O            2.857613378047     0.236227115778     0.009459473298    15.994914619570
         N           -1.140156621953    -0.479564884222     0.009716473298    14.003074004430
         N            0.684344378047     0.959642115778     0.009799473298    14.003074004430
         C           -0.699566621953     0.841122115778     0.009212473298    12.000000000000
         C           -0.254773621953    -1.540055884222     0.009561473298    12.000000000000
         C           -2.578795721953    -0.735262584222    -0.090553526702    12.000000000000
         C            1.088525378047    -1.382347884222     0.009593473298    12.000000000000
         C            1.659811378047    -0.044221884222     0.009300473298    12.000000000000
         H           -0.726867621953    -2.518276884222     0.009696473298     1.007825032230
         H           -2.861939621953    -1.296257884222     0.903152473298     1.007825032230
         H           -2.861326621953    -1.297337884222    -0.883823526702     1.007825032230
         H           -3.079288621953     0.230228115778     0.008701473298     1.007825032230
         H            1.023705378047     1.919217115778     0.009836473298     1.007825032230
         H            1.766164378047    -2.226202884222     0.009432473298     1.007825032230

  Basis Set: AUG-CC-PVTZ
    Blend: AUG-CC-PVTZ
  Basis Set: (AUG-CC-PVTZ AUX)
    Blend: AUG-CC-PVTZ-JKFIT
	 Reference Energy          =    -451.6495604857228727 [Eh]
	 Singles Energy            =      -0.0000000000000000 [Eh]
	 Same-Spin Energy          =      -0.4581865068165293 [Eh]
	 Opposite-Spin Energy      =      -1.3852616544999958 [Eh]
	 Correlation Energy        =      -1.8434481613165250 [Eh]
	 Total Energy              =    -453.4930086470394031 [Eh]

	 ================> DF-SCS-MP2 Energies <==================
	-----------------------------------------------------------
	 SCS Same-Spin Scale       =       0.3333333333333333 [-]
	 SCS Opposite-Spin Scale   =       1.2000000000000000 [-]
	 SCS Same-Spin Energy      =      -0.1527288356055098 [Eh]
	 SCS Opposite-Spin Energy  =      -1.6623139853999949 [Eh]
	 SCS Correlation Energy    =      -1.8150428210055045 [Eh]
	 SCS Total Energy          =    -453.4646033067283497 [Eh]
	-----------------------------------------------------------

  Dipole Moment: [D]
     X:    -3.2154      Y:    -3.5248      Z:    -0.1141     Total:     4.7724

*** Psi4 exiting successfully. Buy a developer a beer!
