                               Psi4 1.3.2 release

  ==> Input File <==

--------------------------------------------------------------------------
#psi4
#
memory 32 gb

molecule  {
0 1
  O       -1.3945310     1.8555980     0.0000210
  O        2.9082060     0.2751580    -0.0000600
  N       -1.0895640    -0.4406340     0.0001970
  N        0.7349370     0.9985730     0.0002800
  C       -0.6489740     0.8800530    -0.0003070
  C       -0.2041810    -1.5011250     0.0000420
  C       -2.5282033    -0.6963537    -0.2500730
  C        1.1391180    -1.3434170     0.0000740
  C        1.7104040    -0.0052910    -0.0002190
  H       -0.6762750    -2.4793460     0.0001770
  H       -2.8113470    -1.2573270     0.8936330
  H       -2.8107340    -1.2584070    -0.8933430
  H       -3.0286960     0.2691590    -0.0008180
  H        1.0742980     1.9581480     0.0003170
  H        1.8167570    -2.1872720    -0.0000870
units angstrom
no_reorient  #important for SAPT in psi4, default
symmetry c1  #important for SAPT in psi4, default
}

set PROPERTIES_ORIGIN ["COM"]
properties('MP2/aug-cc-pvtz', properties = ['dipole'])
--------------------------------------------------------------------------

    Molecular point group: c1
  Charge       = 0
  Multiplicity = 1
  Basis Set: AUG-CC-PVTZ
    Blend: AUG-CC-PVTZ
  Basis Set: (AUG-CC-PVTZ AUX)
    Blend: AUG-CC-PVTZ-JKFIT

    Orbital Energies [Eh]
    ---------------------

    Doubly Occupied:

       1A    -20.547029     2A    -20.539837     3A    -15.647824
       4A    -15.627578     5A    -11.419760     6A    -11.380716
       7A    -11.337140     8A    -11.299212     9A    -11.257020
      10A     -1.429321    11A     -1.389085    12A     -1.312018
      13A     -1.245775    14A     -1.091293    15A     -0.998518
      16A     -0.931056    17A     -0.876716    18A     -0.780578
      19A     -0.756399    20A     -0.703865    21A     -0.689596
      22A     -0.666753    23A     -0.649586    24A     -0.636095
      25A     -0.602044    26A     -0.591386    27A     -0.567633
      28A     -0.538169    29A     -0.480691    30A     -0.479809
      31A     -0.447082    32A     -0.433798    33A     -0.360345

  @DF-RHF Final Energy:  -451.59026047769919

   => Energetics <=

    Nuclear Repulsion Energy =            440.8720864698054243
    One-Electron Energy =               -1489.4972380619269643
    Two-Electron Energy =                 597.0348911144222939
    Total Energy =                       -451.5902604776991893
  Basis Set: (AUG-CC-PVTZ AUX)
    Blend: AUG-CC-PVTZ-RI
    Molecular point group: c1

    Geometry (in Angstrom), charge = 0, multiplicity = 1:

       Center              X                  Y                   Z               Mass
    ------------   -----------------  -----------------  -----------------  -----------------
         O           -1.445123602912     1.816669210302     0.023821322185    15.994914619570
         O            2.857613397088     0.236229210302     0.023740322185    15.994914619570
         N           -1.140156602912    -0.479562789698     0.023997322185    14.003074004430
         N            0.684344397088     0.959644210302     0.024080322185    14.003074004430
         C           -0.699566602912     0.841124210302     0.023493322185    12.000000000000
         C           -0.254773602912    -1.540053789698     0.023842322185    12.000000000000
         C           -2.578795902912    -0.735282489698    -0.226272677815    12.000000000000
         C            1.088525397088    -1.382345789698     0.023874322185    12.000000000000
         C            1.659811397088    -0.044219789698     0.023581322185    12.000000000000
         H           -0.726867602912    -2.518274789698     0.023977322185     1.007825032230
         H           -2.861939602912    -1.296255789698     0.917433322185     1.007825032230
         H           -2.861326602912    -1.297335789698    -0.869542677815     1.007825032230
         H           -3.079288602912     0.230230210302     0.022982322185     1.007825032230
         H            1.023705397088     1.919219210302     0.024117322185     1.007825032230
         H            1.766164397088    -2.226200789698     0.023713322185     1.007825032230

  Basis Set: AUG-CC-PVTZ
    Blend: AUG-CC-PVTZ
  Basis Set: (AUG-CC-PVTZ AUX)
    Blend: AUG-CC-PVTZ-JKFIT
	 Reference Energy          =    -451.5902604776991893 [Eh]
	 Singles Energy            =      -0.0000000000000000 [Eh]
	 Same-Spin Energy          =      -0.4589046743472244 [Eh]
	 Opposite-Spin Energy      =      -1.3878077084190266 [Eh]
	 Correlation Energy        =      -1.8467123827662508 [Eh]
	 Total Energy              =    -453.4369728604654597 [Eh]

	 ================> DF-SCS-MP2 Energies <==================
	-----------------------------------------------------------
	 SCS Same-Spin Scale       =       0.3333333333333333 [-]
	 SCS Opposite-Spin Scale   =       1.2000000000000000 [-]
	 SCS Same-Spin Energy      =      -0.1529682247824081 [Eh]
	 SCS Opposite-Spin Energy  =      -1.6653692501028319 [Eh]
	 SCS Correlation Energy    =      -1.8183374748852401 [Eh]
	 SCS Total Energy          =    -453.4085979525844436 [Eh]
	-----------------------------------------------------------

  Dipole Moment: [D]
     X:    -3.1149      Y:    -3.4524      Z:    -0.2618     Total:     4.6573

*** Psi4 exiting successfully. Buy a developer a beer!
