                               Psi4 1.3.2 release

  ==> Input File <==

--------------------------------------------------------------------------
#psi4
#
memory 32 gb

molecule  {
0 1
  O       -1.3945310     1.8555980     0.0000210
  O        2.9082060     0.2751580    -0.0000600
  N       -1.0895640    -0.4406340     0.0001970
  N        0.7349370     0.9985730     0.0002800
  C       -0.6489740     0.8800530    -0.0003070
  C       -0.2041810    -1.5011250     0.0000420
  C       -2.5282030    -0.6963170    -0.0000730
  C        1.1391180    -1.3434170     0.0000740
  C        1.7104040    -0.0052910    -0.0002190
  H       -0.6762862    -2.4793463    -0.1998230
  H       -2.8113470    -1.2573270     0.8936330
  H       -2.8107340    -1.2584070    -0.8933430
  H       -3.0286960     0.2691590    -0.0008180
  H        1.0742980     1.9581480     0.0003170
  H        1.8167570    -2.1872720    -0.0000870
units angstrom
no_reorient  #important for SAPT in psi4, default
symmetry c1  #important for SAPT in psi4, default
}

set PROPERTIES_ORIGIN ["COM"]
properties('MP2/aug-cc-pvtz', properties = ['dipole'])
--------------------------------------------------------------------------

    Molecular point group: c1
  Charge       = 0
  Multiplicity = 1
  Basis Set: AUG-CC-PVTZ
    Blend: AUG-CC-PVTZ
  Basis Set: (AUG-CC-PVTZ AUX)
    Blend: AUG-CC-PVTZ-JKFIT

    Orbital Energies [Eh]
    ---------------------

    Doubly Occupied:

       1A    -20.545465     2A    -20.539140     3A    -15.644287
       4A    -15.626718     5A    -11.418532     6A    -11.380137
       7A    -11.338592     8A    -11.289800     9A    -11.256797
      10A     -1.428368    11A     -1.388375    12A     -1.312188
      13A     -1.245702    14A     -1.091030    15A     -0.989520
      16A     -0.929207    17A     -0.872402    18A     -0.771893
      19A     -0.752254    20A     -0.697895    21A     -0.683555
      22A     -0.657609    23A     -0.643907    24A     -0.614941
      25A     -0.610013    26A     -0.601584    27A     -0.571754
      28A     -0.554317    29A     -0.499340    30A     -0.479167
      31A     -0.446312    32A     -0.433179    33A     -0.360742

  @DF-RHF Final Energy:  -451.65780826929182

   => Energetics <=

    Nuclear Repulsion Energy =            441.1014961420446525
    One-Electron Energy =               -1490.1691657394253525
    Two-Electron Energy =                 597.4098613280889367
    Total Energy =                       -451.6578082692917633
  Basis Set: (AUG-CC-PVTZ AUX)
    Blend: AUG-CC-PVTZ-RI
    Molecular point group: c1

    Geometry (in Angstrom), charge = 0, multiplicity = 1:

       Center              X                  Y                   Z               Mass
    ------------   -----------------  -----------------  -----------------  -----------------
         O           -1.445123541919     1.816665718653     0.001619084817    15.994914619570
         O            2.857613458081     0.236225718653     0.001538084817    15.994914619570
         N           -1.140156541919    -0.479566281347     0.001795084817    14.003074004430
         N            0.684344458081     0.959640718653     0.001878084817    14.003074004430
         C           -0.699566541919     0.841120718653     0.001291084817    12.000000000000
         C           -0.254773541919    -1.540057281347     0.001640084817    12.000000000000
         C           -2.578795541919    -0.735249281347     0.001525084817    12.000000000000
         C            1.088525458081    -1.382349281347     0.001672084817    12.000000000000
         C            1.659811458081    -0.044223281347     0.001379084817    12.000000000000
         H           -0.726878741919    -2.518278581347    -0.198224915183     1.007825032230
         H           -2.861939541919    -1.296259281347     0.895231084817     1.007825032230
         H           -2.861326541919    -1.297339281347    -0.891744915183     1.007825032230
         H           -3.079288541919     0.230226718653     0.000780084817     1.007825032230
         H            1.023705458081     1.919215718653     0.001915084817     1.007825032230
         H            1.766164458081    -2.226204281347     0.001511084817     1.007825032230

  Basis Set: AUG-CC-PVTZ
    Blend: AUG-CC-PVTZ
  Basis Set: (AUG-CC-PVTZ AUX)
    Blend: AUG-CC-PVTZ-JKFIT
	 Reference Energy          =    -451.6578082692918201 [Eh]
	 Singles Energy            =      -0.0000000000000000 [Eh]
	 Same-Spin Energy          =      -0.4582387447288094 [Eh]
	 Opposite-Spin Energy      =      -1.3852039806558532 [Eh]
	 Correlation Energy        =      -1.8434427253846626 [Eh]
	 Total Energy              =    -453.5012509946764681 [Eh]

	 ================> DF-SCS-MP2 Energies <==================
	-----------------------------------------------------------
	 SCS Same-Spin Scale       =       0.3333333333333333 [-]
	 SCS Opposite-Spin Scale   =       1.2000000000000000 [-]
	 SCS Same-Spin Energy      =      -0.1527462482429365 [Eh]
	 SCS Opposite-Spin Energy  =      -1.6622447767870236 [Eh]
	 SCS Correlation Energy    =      -1.8149910250299601 [Eh]
	 SCS Total Energy          =    -453.4727992943217600 [Eh]
	-----------------------------------------------------------

  Dipole Moment: [D]
     X:    -3.2096      Y:    -3.5219      Z:    -0.1214     Total:     4.7665

*** Psi4 exiting successfully. Buy a developer a beer!
