                               Psi4 1.3.2 release

  ==> Input File <==

--------------------------------------------------------------------------
#psi4
#
memory 32 gb

molecule  {
0 1
  O       -1.3945310     1.8555980     0.0000210
  O        2.9082060     0.2751580    -0.0000600
  N       -1.0895640    -0.4406340     0.0001970
  N        0.7349370     0.9985730     0.0002800
  C       -0.6489740     0.8800530    -0.0003070
  C       -0.2041810    -1.5011250     0.0000420
  C       -2.5282030    -0.6963170    -0.0000730
  C        1.1391450    -1.3434299     0.2000740
  C        1.7104040    -0.0052910    -0.0002190
  H       -0.6762750    -2.4793460     0.0001770
  H       -2.8113470    -1.2573270     0.8936330
  H       -2.8107340    -1.2584070    -0.8933430
  H       -3.0286960     0.2691590    -0.0008180
  H        1.0742980     1.9581480     0.0003170
  H        1.8167570    -2.1872720    -0.0000870
units angstrom
no_reorient  #important for SAPT in psi4, default
symmetry c1  #important for SAPT in psi4, default
}

set PROPERTIES_ORIGIN ["COM"]
properties('MP2/aug-cc-pvtz', properties = ['dipole'])
--------------------------------------------------------------------------

    Molecular point group: c1
  Charge       = 0
  Multiplicity = 1
  Basis Set: AUG-CC-PVTZ
    Blend: AUG-CC-PVTZ
  Basis Set: (AUG-CC-PVTZ AUX)
    Blend: AUG-CC-PVTZ-JKFIT

    Orbital Energies [Eh]
    ---------------------

    Doubly Occupied:

       1A    -20.546839     2A    -20.538953     3A    -15.646299
       4A    -15.626600     5A    -11.419576     6A    -11.380574
       7A    -11.341442     8A    -11.290901     9A    -11.258817
      10A     -1.429225    11A     -1.387975    12A     -1.313399
      13A     -1.245946    14A     -1.087739    15A     -0.990291
      16A     -0.929820    17A     -0.871544    18A     -0.770015
      19A     -0.749152    20A     -0.700600    21A     -0.685710
      22A     -0.657403    23A     -0.643870    24A     -0.616772
      25A     -0.605228    26A     -0.600215    27A     -0.570009
      28A     -0.553356    29A     -0.498672    30A     -0.480205
      31A     -0.445167    32A     -0.433222    33A     -0.360996

  @DF-RHF Final Energy:  -451.65055991738467

   => Energetics <=

    Nuclear Repulsion Energy =            440.7099312503542592
    One-Electron Energy =               -1489.3679206343499573
    Two-Electron Energy =                 597.0074294666110291
    Total Energy =                       -451.6505599173847258
  Basis Set: (AUG-CC-PVTZ AUX)
    Blend: AUG-CC-PVTZ-RI
    Molecular point group: c1

    Geometry (in Angstrom), charge = 0, multiplicity = 1:

       Center              X                  Y                   Z               Mass
    ------------   -----------------  -----------------  -----------------  -----------------
         O           -1.445126202026     1.816666944407    -0.019021224475    15.994914619570
         O            2.857610797974     0.236226944407    -0.019102224475    15.994914619570
         N           -1.140159202026    -0.479565055593    -0.018845224475    14.003074004430
         N            0.684341797974     0.959641944407    -0.018762224475    14.003074004430
         C           -0.699569202026     0.841121944407    -0.019349224475    12.000000000000
         C           -0.254776202026    -1.540056055593    -0.019000224475    12.000000000000
         C           -2.578798202026    -0.735248055593    -0.019115224475    12.000000000000
         C            1.088549797974    -1.382360955593     0.181031775525    12.000000000000
         C            1.659808797974    -0.044222055593    -0.019261224475    12.000000000000
         H           -0.726870202026    -2.518277055593    -0.018865224475     1.007825032230
         H           -2.861942202026    -1.296258055593     0.874590775525     1.007825032230
         H           -2.861329202026    -1.297338055593    -0.912385224475     1.007825032230
         H           -3.079291202026     0.230227944407    -0.019860224475     1.007825032230
         H            1.023702797974     1.919216944407    -0.018725224475     1.007825032230
         H            1.766161797974    -2.226203055593    -0.019129224475     1.007825032230

  Basis Set: AUG-CC-PVTZ
    Blend: AUG-CC-PVTZ
  Basis Set: (AUG-CC-PVTZ AUX)
    Blend: AUG-CC-PVTZ-JKFIT
	 Reference Energy          =    -451.6505599173846690 [Eh]
	 Singles Energy            =      -0.0000000000000000 [Eh]
	 Same-Spin Energy          =      -0.4585231650357384 [Eh]
	 Opposite-Spin Energy      =      -1.3860576285172510 [Eh]
	 Correlation Energy        =      -1.8445807935529894 [Eh]
	 Total Energy              =    -453.4951407109376760 [Eh]

	 ================> DF-SCS-MP2 Energies <==================
	-----------------------------------------------------------
	 SCS Same-Spin Scale       =       0.3333333333333333 [-]
	 SCS Opposite-Spin Scale   =       1.2000000000000000 [-]
	 SCS Same-Spin Energy      =      -0.1528410550119128 [Eh]
	 SCS Opposite-Spin Energy  =      -1.6632691542207012 [Eh]
	 SCS Correlation Energy    =      -1.8161102092326140 [Eh]
	 SCS Total Energy          =    -453.4666701266172595 [Eh]
	-----------------------------------------------------------

  Dipole Moment: [D]
     X:    -3.2937      Y:    -3.4608      Z:    -0.1774     Total:     4.7809

*** Psi4 exiting successfully. Buy a developer a beer!
