                               Psi4 1.3.2 release

  ==> Input File <==

--------------------------------------------------------------------------
#psi4
#
memory 32 gb

molecule  {
0 1
  O       -1.3945310     1.8555980     0.0000210
  O        2.9082060     0.2751580    -0.0000600
  N       -1.0895640    -0.4406340     0.0001970
  N        0.7349322     0.9985762     0.0502800
  C       -0.6489740     0.8800530    -0.0003070
  C       -0.2041810    -1.5011250     0.0000420
  C       -2.5282030    -0.6963170    -0.0000730
  C        1.1391180    -1.3434170     0.0000740
  C        1.7104040    -0.0052910    -0.0002190
  H       -0.6762750    -2.4793460     0.0001770
  H       -2.8113470    -1.2573270     0.8936330
  H       -2.8107340    -1.2584070    -0.8933430
  H       -3.0286960     0.2691590    -0.0008180
  H        1.0742980     1.9581480     0.0003170
  H        1.8167570    -2.1872720    -0.0000870
units angstrom
no_reorient  #important for SAPT in psi4, default
symmetry c1  #important for SAPT in psi4, default
}

set PROPERTIES_ORIGIN ["COM"]
properties('MP2/aug-cc-pvtz', properties = ['dipole'])
--------------------------------------------------------------------------

    Molecular point group: c1
  Charge       = 0
  Multiplicity = 1
  Basis Set: AUG-CC-PVTZ
    Blend: AUG-CC-PVTZ
  Basis Set: (AUG-CC-PVTZ AUX)
    Blend: AUG-CC-PVTZ-JKFIT

    Orbital Energies [Eh]
    ---------------------

    Doubly Occupied:

       1A    -20.545645     2A    -20.538999     3A    -15.644480
       4A    -15.626586     5A    -11.418555     6A    -11.379878
       7A    -11.337162     8A    -11.290006     9A    -11.256165
      10A     -1.428306    11A     -1.388179    12A     -1.312335
      13A     -1.245288    14A     -1.091154    15A     -0.989577
      16A     -0.930574    17A     -0.871897    18A     -0.771652
      19A     -0.751951    20A     -0.699837    21A     -0.685206
      22A     -0.657736    23A     -0.644262    24A     -0.614836
      25A     -0.610159    26A     -0.602240    27A     -0.571829
      28A     -0.554175    29A     -0.499452    30A     -0.480094
      31A     -0.446186    32A     -0.433178    33A     -0.360654

  @DF-RHF Final Energy:  -451.66012018650770

   => Energetics <=

    Nuclear Repulsion Energy =            441.1377070763986126
    One-Electron Energy =               -1490.2391870670044227
    Two-Electron Energy =                 597.4413598040981697
    Total Energy =                       -451.6601201865076973
  Basis Set: (AUG-CC-PVTZ AUX)
    Blend: AUG-CC-PVTZ-RI
    Molecular point group: c1

    Geometry (in Angstrom), charge = 0, multiplicity = 1:

       Center              X                  Y                   Z               Mass
    ------------   -----------------  -----------------  -----------------  -----------------
         O           -1.445123098204     1.816665360742    -0.005534975510    15.994914619570
         O            2.857613901796     0.236225360742    -0.005615975510    15.994914619570
         N           -1.140156098204    -0.479566639258    -0.005358975510    14.003074004430
         N            0.684340101796     0.959643560742     0.044724024490    14.003074004430
         C           -0.699566098204     0.841120360742    -0.005862975510    12.000000000000
         C           -0.254773098204    -1.540057639258    -0.005513975510    12.000000000000
         C           -2.578795098204    -0.735249639258    -0.005628975510    12.000000000000
         C            1.088525901796    -1.382349639258    -0.005481975510    12.000000000000
         C            1.659811901796    -0.044223639258    -0.005774975510    12.000000000000
         H           -0.726867098204    -2.518278639258    -0.005378975510     1.007825032230
         H           -2.861939098204    -1.296259639258     0.888077024490     1.007825032230
         H           -2.861326098204    -1.297339639258    -0.898898975510     1.007825032230
         H           -3.079288098204     0.230226360742    -0.006373975510     1.007825032230
         H            1.023705901796     1.919215360742    -0.005238975510     1.007825032230
         H            1.766164901796    -2.226204639258    -0.005642975510     1.007825032230

  Basis Set: AUG-CC-PVTZ
    Blend: AUG-CC-PVTZ
  Basis Set: (AUG-CC-PVTZ AUX)
    Blend: AUG-CC-PVTZ-JKFIT
	 Reference Energy          =    -451.6601201865076973 [Eh]
	 Singles Energy            =      -0.0000000000000000 [Eh]
	 Same-Spin Energy          =      -0.4580725162322588 [Eh]
	 Opposite-Spin Energy      =      -1.3848780320783396 [Eh]
	 Correlation Energy        =      -1.8429505483105983 [Eh]
	 Total Energy              =    -453.5030707348183228 [Eh]

	 ================> DF-SCS-MP2 Energies <==================
	-----------------------------------------------------------
	 SCS Same-Spin Scale       =       0.3333333333333333 [-]
	 SCS Opposite-Spin Scale   =       1.2000000000000000 [-]
	 SCS Same-Spin Energy      =      -0.1526908387440862 [Eh]
	 SCS Opposite-Spin Energy  =      -1.6618536384940075 [Eh]
	 SCS Correlation Energy    =      -1.8145444772380936 [Eh]
	 SCS Total Energy          =    -453.4746646637457843 [Eh]
	-----------------------------------------------------------

  Dipole Moment: [D]
     X:    -3.2351      Y:    -3.5423      Z:    -0.0667     Total:     4.7977

*** Psi4 exiting successfully. Buy a developer a beer!
