                               Psi4 1.3.2 release

  ==> Input File <==

--------------------------------------------------------------------------
#psi4
#
memory 32 gb

molecule  {
0 1
  O       -1.3945310     1.8555980     0.0000210
  O        2.9082060     0.2751580    -0.0000600
  N       -1.0895640    -0.4406340     0.0001970
  N        0.7349370     0.9985730     0.0002800
  C       -0.6489740     0.8800530    -0.0003070
  C       -0.2041810    -1.5011250     0.0000420
  C       -2.5282030    -0.6963170    -0.0000730
  C        1.1391180    -1.3434170     0.0000740
  C        1.7104040    -0.0052910    -0.0002190
  H       -0.6762750    -2.4793460     0.0001770
  H       -2.8113470    -1.2573270     0.8936330
  H       -2.8107340    -1.2584070    -0.8933430
  H       -3.0286960     0.2691590    -0.0008180
  H        1.0742980     1.9581480     0.0003170
  H        1.8167441    -2.1872817    -0.1500870
units angstrom
no_reorient  #important for SAPT in psi4, default
symmetry c1  #important for SAPT in psi4, default
}

set PROPERTIES_ORIGIN ["COM"]
properties('MP2/aug-cc-pvtz', properties = ['dipole'])
--------------------------------------------------------------------------

    Molecular point group: c1
  Charge       = 0
  Multiplicity = 1
  Basis Set: AUG-CC-PVTZ
    Blend: AUG-CC-PVTZ
  Basis Set: (AUG-CC-PVTZ AUX)
    Blend: AUG-CC-PVTZ-JKFIT

    Orbital Energies [Eh]
    ---------------------

    Doubly Occupied:

       1A    -20.545651     2A    -20.538803     3A    -15.644695
       4A    -15.626622     5A    -11.418667     6A    -11.379817
       7A    -11.337405     8A    -11.290104     9A    -11.256914
      10A     -1.428484    11A     -1.388119    12A     -1.312496
      13A     -1.245710    14A     -1.090979    15A     -0.989729
      16A     -0.930671    17A     -0.872124    18A     -0.771836
      19A     -0.751573    20A     -0.699996    21A     -0.685401
      22A     -0.657517    23A     -0.644136    24A     -0.615447
      25A     -0.608440    26A     -0.602302    27A     -0.571487
      28A     -0.553889    29A     -0.499343    30A     -0.480077
      31A     -0.446117    32A     -0.433080    33A     -0.360605

  @DF-RHF Final Energy:  -451.65925010144480

   => Energetics <=

    Nuclear Repulsion Energy =            441.1349458676140785
    One-Electron Energy =               -1490.2319170624004983
    Two-Electron Energy =                 597.4377210933415654
    Total Energy =                       -451.6592501014448544
  Basis Set: (AUG-CC-PVTZ AUX)
    Blend: AUG-CC-PVTZ-RI
    Molecular point group: c1

    Geometry (in Angstrom), charge = 0, multiplicity = 1:

       Center              X                  Y                   Z               Mass
    ------------   -----------------  -----------------  -----------------  -----------------
         O           -1.445123528326     1.816665793815     0.001219290456    15.994914619570
         O            2.857613471674     0.236225793815     0.001138290456    15.994914619570
         N           -1.140156528326    -0.479566206185     0.001395290456    14.003074004430
         N            0.684344471674     0.959640793815     0.001478290456    14.003074004430
         C           -0.699566528326     0.841120793815     0.000891290456    12.000000000000
         C           -0.254773528326    -1.540057206185     0.001240290456    12.000000000000
         C           -2.578795528326    -0.735249206185     0.001125290456    12.000000000000
         C            1.088525471674    -1.382349206185     0.001272290456    12.000000000000
         C            1.659811471674    -0.044223206185     0.000979290456    12.000000000000
         H           -0.726867528326    -2.518278206185     0.001375290456     1.007825032230
         H           -2.861939528326    -1.296259206185     0.894831290456     1.007825032230
         H           -2.861326528326    -1.297339206185    -0.892144709544     1.007825032230
         H           -3.079288528326     0.230226793815     0.000380290456     1.007825032230
         H            1.023705471674     1.919215793815     0.001515290456     1.007825032230
         H            1.766151571674    -2.226213906185    -0.148888709544     1.007825032230

  Basis Set: AUG-CC-PVTZ
    Blend: AUG-CC-PVTZ
  Basis Set: (AUG-CC-PVTZ AUX)
    Blend: AUG-CC-PVTZ-JKFIT
	 Reference Energy          =    -451.6592501014447976 [Eh]
	 Singles Energy            =      -0.0000000000000000 [Eh]
	 Same-Spin Energy          =      -0.4581134549764634 [Eh]
	 Opposite-Spin Energy      =      -1.3849321833486634 [Eh]
	 Correlation Energy        =      -1.8430456383251268 [Eh]
	 Total Energy              =    -453.5022957397699201 [Eh]

	 ================> DF-SCS-MP2 Energies <==================
	-----------------------------------------------------------
	 SCS Same-Spin Scale       =       0.3333333333333333 [-]
	 SCS Opposite-Spin Scale   =       1.2000000000000000 [-]
	 SCS Same-Spin Energy      =      -0.1527044849921545 [Eh]
	 SCS Opposite-Spin Energy  =      -1.6619186200183960 [Eh]
	 SCS Correlation Energy    =      -1.8146231050105504 [Eh]
	 SCS Total Energy          =    -453.4738732064553233 [Eh]
	-----------------------------------------------------------

  Dipole Moment: [D]
     X:    -3.2469      Y:    -3.5270      Z:    -0.1095     Total:     4.7952

*** Psi4 exiting successfully. Buy a developer a beer!
