                               Psi4 1.3.2 release

  ==> Input File <==

--------------------------------------------------------------------------
#psi4
#
memory 32 gb

molecule  {
0 1
  O       -1.3945310     1.8555980     0.0000210
  O        2.9082060     0.2751580    -0.0000600
  N       -1.0895640    -0.4406340     0.0001970
  N        0.7349370     0.9985730     0.0002800
  C       -0.6489740     0.8800530    -0.0003070
  C       -0.2041810    -1.5011250     0.0000420
  C       -2.5282030    -0.6963170    -0.0000730
  C        1.1391180    -1.3434170     0.0000740
  C        1.7104040    -0.0052910    -0.0002190
  H       -0.6762750    -2.4793460     0.0001770
  H       -2.8113470    -1.2573270     0.8936330
  H       -2.8107340    -1.2584070    -0.8933430
  H       -3.0286960     0.2691590    -0.0008180
  H        1.0742503     1.9580506     0.3003170
  H        1.8167570    -2.1872720    -0.0000870
units angstrom
no_reorient  #important for SAPT in psi4, default
symmetry c1  #important for SAPT in psi4, default
}

set PROPERTIES_ORIGIN ["COM"]
properties('MP2/aug-cc-pvtz', properties = ['dipole'])
--------------------------------------------------------------------------

    Molecular point group: c1
  Charge       = 0
  Multiplicity = 1
  Basis Set: AUG-CC-PVTZ
    Blend: AUG-CC-PVTZ
  Basis Set: (AUG-CC-PVTZ AUX)
    Blend: AUG-CC-PVTZ-JKFIT

    Orbital Energies [Eh]
    ---------------------

    Doubly Occupied:

       1A    -20.545634     2A    -20.539079     3A    -15.644299
       4A    -15.628459     5A    -11.418067     6A    -11.379338
       7A    -11.337138     8A    -11.289854     9A    -11.255963
      10A     -1.427691    11A     -1.387852    12A     -1.312198
      13A     -1.241821    14A     -1.090578    15A     -0.989123
      16A     -0.927776    17A     -0.871756    18A     -0.768366
      19A     -0.747197    20A     -0.698993    21A     -0.683793
      22A     -0.656331    23A     -0.643966    24A     -0.616942
      25A     -0.608979    26A     -0.598200    27A     -0.570370
      28A     -0.553966    29A     -0.499050    30A     -0.479807
      31A     -0.446180    32A     -0.432883    33A     -0.360475

  @DF-RHF Final Energy:  -451.65480644165348

   => Energetics <=

    Nuclear Repulsion Energy =            440.9564135873225723
    One-Electron Energy =               -1489.9181968559094003
    Two-Electron Energy =                 597.3069768269332371
    Total Energy =                       -451.6548064416534771
  Basis Set: (AUG-CC-PVTZ AUX)
    Blend: AUG-CC-PVTZ-RI
    Molecular point group: c1

    Geometry (in Angstrom), charge = 0, multiplicity = 1:

       Center              X                  Y                   Z               Mass
    ------------   -----------------  -----------------  -----------------  -----------------
         O           -1.445123250069     1.816666495054    -0.002378858791    15.994914619570
         O            2.857613749931     0.236226495054    -0.002459858791    15.994914619570
         N           -1.140156250069    -0.479565504946    -0.002202858791    14.003074004430
         N            0.684344749931     0.959641495054    -0.002119858791    14.003074004430
         C           -0.699566250069     0.841121495054    -0.002706858791    12.000000000000
         C           -0.254773250069    -1.540056504946    -0.002357858791    12.000000000000
         C           -2.578795250069    -0.735248504946    -0.002472858791    12.000000000000
         C            1.088525749931    -1.382348504946    -0.002325858791    12.000000000000
         C            1.659811749931    -0.044222504946    -0.002618858791    12.000000000000
         H           -0.726867250069    -2.518277504946    -0.002222858791     1.007825032230
         H           -2.861939250069    -1.296258504946     0.891233141209     1.007825032230
         H           -2.861326250069    -1.297338504946    -0.895742858791     1.007825032230
         H           -3.079288250069     0.230227495054    -0.003217858791     1.007825032230
         H            1.023658049931     1.919119095054     0.297917141209     1.007825032230
         H            1.766164749931    -2.226203504946    -0.002486858791     1.007825032230

  Basis Set: AUG-CC-PVTZ
    Blend: AUG-CC-PVTZ
  Basis Set: (AUG-CC-PVTZ AUX)
    Blend: AUG-CC-PVTZ-JKFIT
	 Reference Energy          =    -451.6548064416534771 [Eh]
	 Singles Energy            =      -0.0000000000000000 [Eh]
	 Same-Spin Energy          =      -0.4584584815660394 [Eh]
	 Opposite-Spin Energy      =      -1.3857547673975212 [Eh]
	 Correlation Energy        =      -1.8442132489635608 [Eh]
	 Total Energy              =    -453.4990196906170468 [Eh]

	 ================> DF-SCS-MP2 Energies <==================
	-----------------------------------------------------------
	 SCS Same-Spin Scale       =       0.3333333333333333 [-]
	 SCS Opposite-Spin Scale   =       1.2000000000000000 [-]
	 SCS Same-Spin Energy      =      -0.1528194938553465 [Eh]
	 SCS Opposite-Spin Energy  =      -1.6629057208770255 [Eh]
	 SCS Correlation Energy    =      -1.8157252147323719 [Eh]
	 SCS Total Energy          =    -453.4705316563858446 [Eh]
	-----------------------------------------------------------

  Dipole Moment: [D]
     X:    -3.2379      Y:    -3.5553      Z:     0.3876     Total:     4.8243

*** Psi4 exiting successfully. Buy a developer a beer!
