                               Psi4 1.3.2 release

  ==> Input File <==

--------------------------------------------------------------------------
#psi4
#
memory 32 gb

molecule  {
0 1
  O       -1.3945310     1.8555980     0.0000210
  O        2.9082060     0.2751580    -0.0000600
  N       -1.0895640    -0.4406340     0.0001970
  N        0.7349226     0.9985826     0.1502800
  C       -0.6489740     0.8800530    -0.0003070
  C       -0.2041810    -1.5011250     0.0000420
  C       -2.5282030    -0.6963170    -0.0000730
  C        1.1391180    -1.3434170     0.0000740
  C        1.7104040    -0.0052910    -0.0002190
  H       -0.6762750    -2.4793460     0.0001770
  H       -2.8113470    -1.2573270     0.8936330
  H       -2.8107340    -1.2584070    -0.8933430
  H       -3.0286960     0.2691590    -0.0008180
  H        1.0742980     1.9581480     0.0003170
  H        1.8167570    -2.1872720    -0.0000870
units angstrom
no_reorient  #important for SAPT in psi4, default
symmetry c1  #important for SAPT in psi4, default
}

set PROPERTIES_ORIGIN ["COM"]
properties('MP2/aug-cc-pvtz', properties = ['dipole'])
--------------------------------------------------------------------------

    Molecular point group: c1
  Charge       = 0
  Multiplicity = 1
  Basis Set: AUG-CC-PVTZ
    Blend: AUG-CC-PVTZ
  Basis Set: (AUG-CC-PVTZ AUX)
    Blend: AUG-CC-PVTZ-JKFIT

    Orbital Energies [Eh]
    ---------------------

    Doubly Occupied:

       1A    -20.546812     2A    -20.540429     3A    -15.644455
       4A    -15.626733     5A    -11.418690     6A    -11.380109
       7A    -11.337351     8A    -11.290071     9A    -11.256218
      10A     -1.427865    11A     -1.388544    12A     -1.312310
      13A     -1.242461    14A     -1.090994    15A     -0.988957
      16A     -0.929679    17A     -0.868352    18A     -0.769208
      19A     -0.749530    20A     -0.699356    21A     -0.685101
      22A     -0.656895    23A     -0.644592    24A     -0.614121
      25A     -0.609893    26A     -0.601990    27A     -0.571539
      28A     -0.553846    29A     -0.499594    30A     -0.480996
      31A     -0.446574    32A     -0.434034    33A     -0.360698

  @DF-RHF Final Energy:  -451.65666827554082

   => Energetics <=

    Nuclear Repulsion Energy =            440.8343248806096994
    One-Electron Energy =               -1489.6459938961033913
    Two-Electron Energy =                 597.1550007399528113
    Total Energy =                       -451.6566682755408237
  Basis Set: (AUG-CC-PVTZ AUX)
    Blend: AUG-CC-PVTZ-RI
    Molecular point group: c1

    Geometry (in Angstrom), charge = 0, multiplicity = 1:

       Center              X                  Y                   Z               Mass
    ------------   -----------------  -----------------  -----------------  -----------------
         O           -1.445122031667     1.816664649717    -0.016644741276    15.994914619570
         O            2.857614968333     0.236224649717    -0.016725741276    15.994914619570
         N           -1.140155031667    -0.479567350283    -0.016468741276    14.003074004430
         N            0.684331568333     0.959649249717     0.133614258724    14.003074004430
         C           -0.699565031667     0.841119649717    -0.016972741276    12.000000000000
         C           -0.254772031667    -1.540058350283    -0.016623741276    12.000000000000
         C           -2.578794031667    -0.735250350283    -0.016738741276    12.000000000000
         C            1.088526968333    -1.382350350283    -0.016591741276    12.000000000000
         C            1.659812968333    -0.044224350283    -0.016884741276    12.000000000000
         H           -0.726866031667    -2.518279350283    -0.016488741276     1.007825032230
         H           -2.861938031667    -1.296260350283     0.876967258724     1.007825032230
         H           -2.861325031667    -1.297340350283    -0.910008741276     1.007825032230
         H           -3.079287031667     0.230225649717    -0.017483741276     1.007825032230
         H            1.023706968333     1.919214649717    -0.016348741276     1.007825032230
         H            1.766165968333    -2.226205350283    -0.016752741276     1.007825032230

  Basis Set: AUG-CC-PVTZ
    Blend: AUG-CC-PVTZ
  Basis Set: (AUG-CC-PVTZ AUX)
    Blend: AUG-CC-PVTZ-JKFIT
	 Reference Energy          =    -451.6566682755408237 [Eh]
	 Singles Energy            =      -0.0000000000000000 [Eh]
	 Same-Spin Energy          =      -0.4582363695344703 [Eh]
	 Opposite-Spin Energy      =      -1.3854514199965857 [Eh]
	 Correlation Energy        =      -1.8436877895310562 [Eh]
	 Total Energy              =    -453.5003560650718555 [Eh]

	 ================> DF-SCS-MP2 Energies <==================
	-----------------------------------------------------------
	 SCS Same-Spin Scale       =       0.3333333333333333 [-]
	 SCS Opposite-Spin Scale   =       1.2000000000000000 [-]
	 SCS Same-Spin Energy      =      -0.1527454565114901 [Eh]
	 SCS Opposite-Spin Energy  =      -1.6625417039959027 [Eh]
	 SCS Correlation Energy    =      -1.8152871605073928 [Eh]
	 SCS Total Energy          =    -453.4719554360482334 [Eh]
	-----------------------------------------------------------

  Dipole Moment: [D]
     X:    -3.2320      Y:    -3.5582      Z:    -0.2006     Total:     4.8111

*** Psi4 exiting successfully. Buy a developer a beer!
