                               Psi4 1.3.2 release

  ==> Input File <==

--------------------------------------------------------------------------
#psi4
#
memory 32 gb

molecule  {
-1 1
  S       -1.5497694    -0.0316273     0.0062402
  O       -1.8677260    -0.0040310     1.4568130
  O       -1.9173420     1.2548610    -0.7013450
  O       -1.9179590    -1.2504550    -0.7090990
  C        0.2577020     0.0000600    -0.0380210
  C        0.9598570    -1.2082450    -0.0264560
  C        0.9600990     1.2082480    -0.0266860
  C        2.3556760    -1.2079150     0.0024970
  C        2.3559460     1.2077510     0.0021770
  C        3.0593930    -0.0001220     0.0217850
  H        0.3939800    -2.1354100    -0.0629560
  H        0.3942590     2.1354370    -0.0632640
  H        2.8982100    -2.1524450     0.0063830
  H        2.8986710     2.1521870     0.0058350
  H        4.1480910    -0.0001990     0.0432140
units angstrom
no_reorient  #important for SAPT in psi4, default
symmetry c1  #important for SAPT in psi4, default
}

set PROPERTIES_ORIGIN ["COM"]
properties('MP2/aug-cc-pvtz', properties = ['dipole'])
--------------------------------------------------------------------------

    Molecular point group: c1
  Charge       = -1
  Multiplicity = 1
  Basis Set: AUG-CC-PVTZ
    Blend: AUG-CC-PVTZ
  Basis Set: (AUG-CC-PVTZ AUX)
    Blend: AUG-CC-PVTZ-JKFIT

    Orbital Energies [Eh]
    ---------------------

    Doubly Occupied:

       1A    -92.015194     2A    -20.359220     3A    -20.351439
       4A    -20.345290     5A    -11.132958     6A    -11.129153
       7A    -11.128912     8A    -11.125024     9A    -11.121628
      10A    -11.121346    11A     -8.976049    12A     -6.661761
      13A     -6.661084    14A     -6.660776    15A     -1.273540
      16A     -1.137989    17A     -1.114301    18A     -1.037536
      19A     -0.906673    20A     -0.901612    21A     -0.733066
      22A     -0.712981    23A     -0.642211    24A     -0.582828
      25A     -0.523764    26A     -0.513842    27A     -0.496214
      28A     -0.474408    29A     -0.466066    30A     -0.459356
      31A     -0.410373    32A     -0.392131    33A     -0.380006
      34A     -0.333921    35A     -0.332121    36A     -0.303169
      37A     -0.289007    38A     -0.270226    39A     -0.249277
      40A     -0.224999    41A     -0.215059

  @DF-RHF Final Energy:  -852.43627841796388

   => Energetics <=

    Nuclear Repulsion Energy =            619.1229763545943570
    One-Electron Energy =               -2414.7854878699558867
    Two-Electron Energy =                 943.2262330973976532
    Total Energy =                       -852.4362784179638766
  Basis Set: (AUG-CC-PVTZ AUX)
    Blend: AUG-CC-PVTZ-RI
    Molecular point group: c1

    Geometry (in Angstrom), charge = -1, multiplicity = 1:

       Center              X                  Y                   Z               Mass
    ------------   -----------------  -----------------  -----------------  -----------------
         S           -1.482458788250    -0.025204831004     0.005645341330    31.972071174400
         O           -1.800415388250     0.002391468996     1.456218141330    15.994914619570
         O           -1.850031388250     1.261283468996    -0.701939858670    15.994914619570
         O           -1.850648388250    -1.244032531004    -0.709693858670    15.994914619570
         C            0.325012611750     0.006482468996    -0.038615858670    12.000000000000
         C            1.027167611750    -1.201822531004    -0.027050858670    12.000000000000
         C            1.027409611750     1.214670468996    -0.027280858670    12.000000000000
         C            2.422986611750    -1.201492531004     0.001902141330    12.000000000000
         C            2.423256611750     1.214173468996     0.001582141330    12.000000000000
         C            3.126703611750     0.006300468996     0.021190141330    12.000000000000
         H            0.461290611750    -2.128987531004    -0.063550858670     1.007825032230
         H            0.461569611750     2.141859468996    -0.063858858670     1.007825032230
         H            2.965520611750    -2.146022531004     0.005788141330     1.007825032230
         H            2.965981611750     2.158609468996     0.005240141330     1.007825032230
         H            4.215401611750     0.006223468996     0.042619141330     1.007825032230

  Basis Set: AUG-CC-PVTZ
    Blend: AUG-CC-PVTZ
  Basis Set: (AUG-CC-PVTZ AUX)
    Blend: AUG-CC-PVTZ-JKFIT
	 Reference Energy          =    -852.4362784179638766 [Eh]
	 Singles Energy            =      -0.0000000000000000 [Eh]
	 Same-Spin Energy          =      -0.5389668985459933 [Eh]
	 Opposite-Spin Energy      =      -1.5551815964655340 [Eh]
	 Correlation Energy        =      -2.0941484950115274 [Eh]
	 Total Energy              =    -854.5304269129753720 [Eh]

	 ================> DF-SCS-MP2 Energies <==================
	-----------------------------------------------------------
	 SCS Same-Spin Scale       =       0.3333333333333333 [-]
	 SCS Opposite-Spin Scale   =       1.2000000000000000 [-]
	 SCS Same-Spin Energy      =      -0.1796556328486644 [Eh]
	 SCS Opposite-Spin Energy  =      -1.8662179157586407 [Eh]
	 SCS Correlation Energy    =      -2.0458735486073052 [Eh]
	 SCS Total Energy          =    -854.4821519665712231 [Eh]
	-----------------------------------------------------------

  Dipole Moment: [D]
     X:     7.9573      Y:    -0.3334      Z:    -0.1007     Total:     7.9649

*** Psi4 exiting successfully. Buy a developer a beer!
