                               Psi4 1.3.2 release

  ==> Input File <==

--------------------------------------------------------------------------
#psi4
#
memory 32 gb

molecule  {
-1 1
  S       -1.5500650    -0.0000770     0.0055040
  O       -1.8677260    -0.0040310     1.4568130
  O       -1.9173420     1.2548610    -0.7013450
  O       -1.9179590    -1.2504550    -0.7090990
  C        0.0577599     0.0000448    -0.0332071
  C        0.9598570    -1.2082450    -0.0264560
  C        0.9600990     1.2082480    -0.0266860
  C        2.3556760    -1.2079150     0.0024970
  C        2.3559460     1.2077510     0.0021770
  C        3.0593930    -0.0001220     0.0217850
  H        0.3939800    -2.1354100    -0.0629560
  H        0.3942590     2.1354370    -0.0632640
  H        2.8982100    -2.1524450     0.0063830
  H        2.8986710     2.1521870     0.0058350
  H        4.1480910    -0.0001990     0.0432140
units angstrom
no_reorient  #important for SAPT in psi4, default
symmetry c1  #important for SAPT in psi4, default
}

set PROPERTIES_ORIGIN ["COM"]
properties('MP2/aug-cc-pvtz', properties = ['dipole'])
--------------------------------------------------------------------------

    Molecular point group: c1
  Charge       = -1
  Multiplicity = 1
  Basis Set: AUG-CC-PVTZ
    Blend: AUG-CC-PVTZ
  Basis Set: (AUG-CC-PVTZ AUX)
    Blend: AUG-CC-PVTZ-JKFIT

    Orbital Energies [Eh]
    ---------------------

    Doubly Occupied:

       1A    -92.010699     2A    -20.350220     3A    -20.350128
       4A    -20.350046     5A    -11.140347     6A    -11.139448
       7A    -11.139160     8A    -11.138905     9A    -11.131415
      10A    -11.131316    11A     -8.974863    12A     -6.661206
      13A     -6.659567    14A     -6.659450    15A     -1.279689
      16A     -1.128854    17A     -1.127179    18A     -1.025191
      19A     -0.909432    20A     -0.897252    21A     -0.771574
      22A     -0.701863    23A     -0.644901    24A     -0.582108
      25A     -0.535245    26A     -0.512290    27A     -0.492538
      28A     -0.470154    29A     -0.469215    30A     -0.457356
      31A     -0.417277    32A     -0.383807    33A     -0.353565
      34A     -0.334015    35A     -0.330054    36A     -0.304148
      37A     -0.293854    38A     -0.289244    39A     -0.249101
      40A     -0.225595    41A     -0.198527

  @DF-RHF Final Energy:  -852.38513870211978

   => Energetics <=

    Nuclear Repulsion Energy =            620.9165360446012301
    One-Electron Energy =               -2418.1617589359871090
    Two-Electron Energy =                 944.8600841892659901
    Total Energy =                       -852.3851387021197752
  Basis Set: (AUG-CC-PVTZ AUX)
    Blend: AUG-CC-PVTZ-RI
    Molecular point group: c1

    Geometry (in Angstrom), charge = -1, multiplicity = 1:

       Center              X                  Y                   Z               Mass
    ------------   -----------------  -----------------  -----------------  -----------------
         S           -1.467411595683    -0.000078557230     0.004691116831    31.972071174400
         O           -1.785072595683    -0.004032557230     1.456000116831    15.994914619570
         O           -1.834688595683     1.254859442770    -0.702157883169    15.994914619570
         O           -1.835305595683    -1.250456557230    -0.709911883169    15.994914619570
         C            0.140413304317     0.000043242770    -0.034019983169    12.000000000000
         C            1.042510404317    -1.208246557230    -0.027268883169    12.000000000000
         C            1.042752404317     1.208246442770    -0.027498883169    12.000000000000
         C            2.438329404317    -1.207916557230     0.001684116831    12.000000000000
         C            2.438599404317     1.207749442770     0.001364116831    12.000000000000
         C            3.142046404317    -0.000123557230     0.020972116831    12.000000000000
         H            0.476633404317    -2.135411557230    -0.063768883169     1.007825032230
         H            0.476912404317     2.135435442770    -0.064076883169     1.007825032230
         H            2.980863404317    -2.152446557230     0.005570116831     1.007825032230
         H            2.981324404317     2.152185442770     0.005022116831     1.007825032230
         H            4.230744404317    -0.000200557230     0.042401116831     1.007825032230

  Basis Set: AUG-CC-PVTZ
    Blend: AUG-CC-PVTZ
  Basis Set: (AUG-CC-PVTZ AUX)
    Blend: AUG-CC-PVTZ-JKFIT
	 Reference Energy          =    -852.3851387021197752 [Eh]
	 Singles Energy            =      -0.0000000000000000 [Eh]
	 Same-Spin Energy          =      -0.5421507384397470 [Eh]
	 Opposite-Spin Energy      =      -1.5611712183905122 [Eh]
	 Correlation Energy        =      -2.1033219568302592 [Eh]
	 Total Energy              =    -854.4884606589500891 [Eh]

	 ================> DF-SCS-MP2 Energies <==================
	-----------------------------------------------------------
	 SCS Same-Spin Scale       =       0.3333333333333333 [-]
	 SCS Opposite-Spin Scale   =       1.2000000000000000 [-]
	 SCS Same-Spin Energy      =      -0.1807169128132490 [Eh]
	 SCS Opposite-Spin Energy  =      -1.8734054620686145 [Eh]
	 SCS Correlation Energy    =      -2.0541223748818633 [Eh]
	 SCS Total Energy          =    -854.4392610770016745 [Eh]
	-----------------------------------------------------------

  Dipole Moment: [D]
     X:     7.9853      Y:    -0.0016      Z:    -0.0702     Total:     7.9856

*** Psi4 exiting successfully. Buy a developer a beer!
