                               Psi4 1.3.2 release

  ==> Input File <==

--------------------------------------------------------------------------
#psi4
#
memory 32 gb

molecule  {
-1 1
  S       -1.5500650    -0.0000770     0.0055040
  O       -1.8677260    -0.0040310     1.4568130
  O       -1.9673728     1.2434794    -0.6936518
  O       -1.9179590    -1.2504550    -0.7090990
  C        0.2577020     0.0000600    -0.0380210
  C        0.9598570    -1.2082450    -0.0264560
  C        0.9600990     1.2082480    -0.0266860
  C        2.3556760    -1.2079150     0.0024970
  C        2.3559460     1.2077510     0.0021770
  C        3.0593930    -0.0001220     0.0217850
  H        0.3939800    -2.1354100    -0.0629560
  H        0.3942590     2.1354370    -0.0632640
  H        2.8982100    -2.1524450     0.0063830
  H        2.8986710     2.1521870     0.0058350
  H        4.1480910    -0.0001990     0.0432140
units angstrom
no_reorient  #important for SAPT in psi4, default
symmetry c1  #important for SAPT in psi4, default
}

set PROPERTIES_ORIGIN ["COM"]
properties('MP2/aug-cc-pvtz', properties = ['dipole'])
--------------------------------------------------------------------------

    Molecular point group: c1
  Charge       = -1
  Multiplicity = 1
  Basis Set: AUG-CC-PVTZ
    Blend: AUG-CC-PVTZ
  Basis Set: (AUG-CC-PVTZ AUX)
    Blend: AUG-CC-PVTZ-JKFIT

    Orbital Energies [Eh]
    ---------------------

    Doubly Occupied:

       1A    -92.014589     2A    -20.351585     3A    -20.350482
       4A    -20.349415     5A    -11.134272     6A    -11.130407
       7A    -11.130202     8A    -11.127286     9A    -11.123265
      10A    -11.123029    11A     -8.975376    12A     -6.661084
      13A     -6.660321    14A     -6.660207    15A     -1.270548
      16A     -1.126166    17A     -1.124350    18A     -1.039021
      19A     -0.908242    20A     -0.903039    21A     -0.734457
      22A     -0.714436    23A     -0.642957    24A     -0.583175
      25A     -0.523924    26A     -0.515081    27A     -0.496577
      28A     -0.475713    29A     -0.463965    30A     -0.457958
      31A     -0.411419    32A     -0.393298    33A     -0.381345
      34A     -0.332110    35A     -0.330801    36A     -0.298602
      37A     -0.290530    38A     -0.272648    39A     -0.248327
      40A     -0.226280    41A     -0.216438

  @DF-RHF Final Energy:  -852.43804029194939

   => Energetics <=

    Nuclear Repulsion Energy =            618.7225363981752935
    One-Electron Energy =               -2413.9753015653600414
    Two-Electron Energy =                 942.8147248752354699
    Total Energy =                       -852.4380402919493918
  Basis Set: (AUG-CC-PVTZ AUX)
    Blend: AUG-CC-PVTZ-RI
    Molecular point group: c1

    Geometry (in Angstrom), charge = -1, multiplicity = 1:

       Center              X                  Y                   Z               Mass
    ------------   -----------------  -----------------  -----------------  -----------------
         S           -1.477596998080     0.001079850561     0.004275276287    31.972071174400
         O           -1.795257998080    -0.002874149439     1.455584276287    15.994914619570
         O           -1.894904798080     1.244636250561    -0.694880523713    15.994914619570
         O           -1.845490998080    -1.249298149439    -0.710327723713    15.994914619570
         C            0.330170001920     0.001216850561    -0.039249723713    12.000000000000
         C            1.032325001920    -1.207088149439    -0.027684723713    12.000000000000
         C            1.032567001920     1.209404850561    -0.027914723713    12.000000000000
         C            2.428144001920    -1.206758149439     0.001268276287    12.000000000000
         C            2.428414001920     1.208907850561     0.000948276287    12.000000000000
         C            3.131861001920     0.001034850561     0.020556276287    12.000000000000
         H            0.466448001920    -2.134253149439    -0.064184723713     1.007825032230
         H            0.466727001920     2.136593850561    -0.064492723713     1.007825032230
         H            2.970678001920    -2.151288149439     0.005154276287     1.007825032230
         H            2.971139001920     2.153343850561     0.004606276287     1.007825032230
         H            4.220559001920     0.000957850561     0.041985276287     1.007825032230

  Basis Set: AUG-CC-PVTZ
    Blend: AUG-CC-PVTZ
  Basis Set: (AUG-CC-PVTZ AUX)
    Blend: AUG-CC-PVTZ-JKFIT
	 Reference Energy          =    -852.4380402919493918 [Eh]
	 Singles Energy            =      -0.0000000000000000 [Eh]
	 Same-Spin Energy          =      -0.5388340446006641 [Eh]
	 Opposite-Spin Energy      =      -1.5549230104849943 [Eh]
	 Correlation Energy        =      -2.0937570550856583 [Eh]
	 Total Energy              =    -854.5317973470350807 [Eh]

	 ================> DF-SCS-MP2 Energies <==================
	-----------------------------------------------------------
	 SCS Same-Spin Scale       =       0.3333333333333333 [-]
	 SCS Opposite-Spin Scale   =       1.2000000000000000 [-]
	 SCS Same-Spin Energy      =      -0.1796113482002213 [Eh]
	 SCS Opposite-Spin Energy  =      -1.8659076125819931 [Eh]
	 SCS Correlation Energy    =      -2.0455189607822146 [Eh]
	 SCS Total Energy          =    -854.4835592527316521 [Eh]
	-----------------------------------------------------------

  Dipole Moment: [D]
     X:     8.1204      Y:     0.0143      Z:    -0.1250     Total:     8.1214

*** Psi4 exiting successfully. Buy a developer a beer!
