                               Psi4 1.4a3.dev225

  ==> Input File <==

--------------------------------------------------------------------------
#psi4
#
memory 32 gb

molecule  {
-1 1
  S       -1.5257420     0.0005400     0.0049580
  O       -1.8754660    -0.0921210     1.4513090
  O       -1.9316128     1.2709805    -0.6118824
  O       -1.9322140    -1.2001240    -0.7773890
  C        0.2621030     0.0036010    -0.0456020
  C        0.9554030    -1.2107120    -0.0284930
  C        0.9595290     1.2147240    -0.0278400
  C        2.3511900    -1.2103390     0.0023180
  C        2.3559220     1.2088420     0.0015130
  C        3.0539450    -0.0018320     0.0226760
  H        0.4020620    -2.1452990    -0.0612980
  H        0.4079720     2.1501410    -0.0584560
  H        2.8913160    -2.1541860     0.0103160
  H        2.8995330     2.1507040     0.0084210
  H        4.1409790    -0.0039320     0.0451330
units angstrom
no_reorient  #important for SAPT in psi4, default
symmetry c1  #important for SAPT in psi4, default
}

set PROPERTIES_ORIGIN ["COM"]
properties('MP2/aug-cc-pvtz', properties = ['dipole'])
--------------------------------------------------------------------------

    Molecular point group: c1
  Charge       = -1
  Multiplicity = 1
  Basis Set: AUG-CC-PVTZ
    Blend: AUG-CC-PVTZ
  Basis Set: (AUG-CC-PVTZ AUX)
    Blend: AUG-CC-PVTZ-JKFIT

    Orbital Energies [Eh]
    ---------------------

    Doubly Occupied:

       1A    -92.010502     2A    -20.348554     3A    -20.346183
       4A    -20.345251     5A    -11.135370     6A    -11.131292
       7A    -11.131078     8A    -11.128572     9A    -11.125406
      10A    -11.125141    11A     -8.971883    12A     -6.657579
      13A     -6.656917    14A     -6.656666    15A     -1.271100
      16A     -1.127475    17A     -1.118237    18A     -1.040709
      19A     -0.910531    20A     -0.905288    21A     -0.738619
      22A     -0.715938    23A     -0.643864    24A     -0.583340
      25A     -0.524883    26A     -0.516764    27A     -0.497412
      28A     -0.478384    29A     -0.462684    30A     -0.455998
      31A     -0.410871    32A     -0.394402    33A     -0.385094
      34A     -0.329662    35A     -0.329479    36A     -0.295357
      37A     -0.288269    38A     -0.274513    39A     -0.244530
      40A     -0.227784    41A     -0.217149

  @DF-RHF Final Energy:  -852.43885570493444

   => Energetics <=

    Nuclear Repulsion Energy =            620.2992591426160516
    One-Electron Energy =               -2417.1587746226236959
    Two-Electron Energy =                 944.4206597750733181
    Total Energy =                       -852.4388557049344399
  Basis Set: (AUG-CC-PVTZ AUX)
    Blend: AUG-CC-PVTZ-RI
    Molecular point group: c1

    Geometry (in Angstrom), charge = -1, multiplicity = 1:

       Center              X                  Y                   Z               Mass
    ------------   -----------------  -----------------  -----------------  -----------------
         S           -1.458876521178     0.002285542395     0.003751941106    31.972071174400
         O           -1.808600521178    -0.090375457605     1.450102941106    15.994914619570
         O           -1.864747321178     1.272726042395    -0.613088458894    15.994914619570
         O           -1.865348521178    -1.198378457605    -0.778595058894    15.994914619570
         C            0.328968478822     0.005346542395    -0.046808058894    12.000000000000
         C            1.022268478822    -1.208966457605    -0.029699058894    12.000000000000
         C            1.026394478822     1.216469542395    -0.029046058894    12.000000000000
         C            2.418055478822    -1.208593457605     0.001111941106    12.000000000000
         C            2.422787478822     1.210587542395     0.000306941106    12.000000000000
         C            3.120810478822    -0.000086457605     0.021469941106    12.000000000000
         H            0.468927478822    -2.143553457605    -0.062504058894     1.007825032230
         H            0.474837478822     2.151886542395    -0.059662058894     1.007825032230
         H            2.958181478822    -2.152440457605     0.009109941106     1.007825032230
         H            2.966398478822     2.152449542395     0.007214941106     1.007825032230
         H            4.207844478822    -0.002186457605     0.043926941106     1.007825032230

  Basis Set: AUG-CC-PVTZ
    Blend: AUG-CC-PVTZ
  Basis Set: (AUG-CC-PVTZ AUX)
    Blend: AUG-CC-PVTZ-JKFIT
	 Reference Energy          =    -852.4388557049344399 [Eh]
	 Singles Energy            =      -0.0000000000000000 [Eh]
	 Same-Spin Energy          =      -0.5385571576360226 [Eh]
	 Opposite-Spin Energy      =      -1.5540030844537878 [Eh]
	 Correlation Energy        =      -2.0925602420898102 [Eh]
	 Total Energy              =    -854.5314159470242430 [Eh]

	 ================> DF-SCS-MP2 Energies <==================
	-----------------------------------------------------------
	 SCS Same-Spin Scale       =       0.3333333333333333 [-]
	 SCS Opposite-Spin Scale   =       1.2000000000000000 [-]
	 SCS Same-Spin Energy      =      -0.1795190525453409 [Eh]
	 SCS Opposite-Spin Energy  =      -1.8648037013445453 [Eh]
	 SCS Correlation Energy    =      -2.0443227538898863 [Eh]
	 SCS Total Energy          =    -854.4831784588243409 [Eh]
	-----------------------------------------------------------

  Dipole Moment: [D]
     X:     8.3390      Y:     0.1103      Z:    -0.1773     Total:     8.3417

*** Psi4 exiting successfully. Buy a developer a beer!
