                               Psi4 1.3.2 release

  ==> Input File <==

--------------------------------------------------------------------------
#psi4
#
memory 32 gb

molecule  {
-1 1
  S       -1.5500650    -0.0000770     0.0055040
  O       -1.8677260    -0.0040310     1.4568130
  O       -1.9667602     1.4237166    -0.7964536
  O       -1.9179590    -1.2504550    -0.7090990
  C        0.2577020     0.0000600    -0.0380210
  C        0.9598570    -1.2082450    -0.0264560
  C        0.9600990     1.2082480    -0.0266860
  C        2.3556760    -1.2079150     0.0024970
  C        2.3559460     1.2077510     0.0021770
  C        3.0593930    -0.0001220     0.0217850
  H        0.3939800    -2.1354100    -0.0629560
  H        0.3942590     2.1354370    -0.0632640
  H        2.8982100    -2.1524450     0.0063830
  H        2.8986710     2.1521870     0.0058350
  H        4.1480910    -0.0001990     0.0432140
units angstrom
no_reorient  #important for SAPT in psi4, default
symmetry c1  #important for SAPT in psi4, default
}

set PROPERTIES_ORIGIN ["COM"]
properties('MP2/aug-cc-pvtz', properties = ['dipole'])
--------------------------------------------------------------------------

    Molecular point group: c1
  Charge       = -1
  Multiplicity = 1
  Basis Set: AUG-CC-PVTZ
    Blend: AUG-CC-PVTZ
  Basis Set: (AUG-CC-PVTZ AUX)
    Blend: AUG-CC-PVTZ-JKFIT

    Orbital Energies [Eh]
    ---------------------

    Doubly Occupied:

       1A    -92.024894     2A    -20.366683     3A    -20.365595
       4A    -20.353551     5A    -11.137559     6A    -11.134069
       7A    -11.133350     8A    -11.132269     9A    -11.128195
      10A    -11.125671    11A     -8.985911    12A     -6.671240
      13A     -6.670474    14A     -6.669833    15A     -1.255379
      16A     -1.137352    17A     -1.060439    18A     -1.041521
      19A     -0.912064    20A     -0.905970    21A     -0.741587
      22A     -0.717578    23A     -0.652532    24A     -0.586868
      25A     -0.525475    26A     -0.518567    27A     -0.495204
      28A     -0.478351    29A     -0.460420    30A     -0.451509
      31A     -0.413272    32A     -0.395549    33A     -0.384189
      34A     -0.325556    35A     -0.319961    36A     -0.302948
      37A     -0.271788    38A     -0.266096    39A     -0.249808
      40A     -0.228817    41A     -0.220735

  @DF-RHF Final Energy:  -852.39577392748413

   => Energetics <=

    Nuclear Repulsion Energy =            610.5345543335293996
    One-Electron Energy =               -2397.4229999316135036
    Two-Electron Energy =                 934.4926716706000889
    Total Energy =                       -852.3957739274841288
  Basis Set: (AUG-CC-PVTZ AUX)
    Blend: AUG-CC-PVTZ-RI
    Molecular point group: c1

    Geometry (in Angstrom), charge = -1, multiplicity = 1:

       Center              X                  Y                   Z               Mass
    ------------   -----------------  -----------------  -----------------  -----------------
         S           -1.477659410425    -0.017282908512     0.014748833831    31.972071174400
         O           -1.795320410425    -0.021236908512     1.466057833831    15.994914619570
         O           -1.894354610425     1.406510691488    -0.787208766169    15.994914619570
         O           -1.845553410425    -1.267660908512    -0.699854166169    15.994914619570
         C            0.330107589575    -0.017145908512    -0.028776166169    12.000000000000
         C            1.032262589575    -1.225450908512    -0.017211166169    12.000000000000
         C            1.032504589575     1.191042091488    -0.017441166169    12.000000000000
         C            2.428081589575    -1.225120908512     0.011741833831    12.000000000000
         C            2.428351589575     1.190545091488     0.011421833831    12.000000000000
         C            3.131798589575    -0.017327908512     0.031029833831    12.000000000000
         H            0.466385589575    -2.152615908512    -0.053711166169     1.007825032230
         H            0.466664589575     2.118231091488    -0.054019166169     1.007825032230
         H            2.970615589575    -2.169650908512     0.015627833831     1.007825032230
         H            2.971076589575     2.134981091488     0.015079833831     1.007825032230
         H            4.220496589575    -0.017404908512     0.052458833831     1.007825032230

  Basis Set: AUG-CC-PVTZ
    Blend: AUG-CC-PVTZ
  Basis Set: (AUG-CC-PVTZ AUX)
    Blend: AUG-CC-PVTZ-JKFIT
	 Reference Energy          =    -852.3957739274841288 [Eh]
	 Singles Energy            =      -0.0000000000000000 [Eh]
	 Same-Spin Energy          =      -0.5415521456917816 [Eh]
	 Opposite-Spin Energy      =      -1.5639963397390662 [Eh]
	 Correlation Energy        =      -2.1055484854308477 [Eh]
	 Total Energy              =    -854.5013224129149876 [Eh]

	 ================> DF-SCS-MP2 Energies <==================
	-----------------------------------------------------------
	 SCS Same-Spin Scale       =       0.3333333333333333 [-]
	 SCS Opposite-Spin Scale   =       1.2000000000000000 [-]
	 SCS Same-Spin Energy      =      -0.1805173818972605 [Eh]
	 SCS Opposite-Spin Energy  =      -1.8767956076868793 [Eh]
	 SCS Correlation Energy    =      -2.0573129895841396 [Eh]
	 SCS Total Energy          =    -854.4530869170682763 [Eh]
	-----------------------------------------------------------

  Dipole Moment: [D]
     X:     8.5525      Y:    -1.0150      Z:     0.4914     Total:     8.6266

*** Psi4 exiting successfully. Buy a developer a beer!
