                               Psi4 1.3.2 release

  ==> Input File <==

--------------------------------------------------------------------------
#psi4
#
memory 32 gb

molecule  {
-1 1
  S       -1.5498099     0.0314733     0.0047545
  O       -1.8677260    -0.0040310     1.4568130
  O       -1.9173420     1.2548610    -0.7013450
  O       -1.9179590    -1.2504550    -0.7090990
  C        0.2577020     0.0000600    -0.0380210
  C        0.9598570    -1.2082450    -0.0264560
  C        0.9600990     1.2082480    -0.0266860
  C        2.3556760    -1.2079150     0.0024970
  C        2.3559460     1.2077510     0.0021770
  C        3.0593930    -0.0001220     0.0217850
  H        0.3939800    -2.1354100    -0.0629560
  H        0.3942590     2.1354370    -0.0632640
  H        2.8982100    -2.1524450     0.0063830
  H        2.8986710     2.1521870     0.0058350
  H        4.1480910    -0.0001990     0.0432140
units angstrom
no_reorient  #important for SAPT in psi4, default
symmetry c1  #important for SAPT in psi4, default
}

set PROPERTIES_ORIGIN ["COM"]
properties('MP2/aug-cc-pvtz', properties = ['dipole'])
--------------------------------------------------------------------------

    Molecular point group: c1
  Charge       = -1
  Multiplicity = 1
  Basis Set: AUG-CC-PVTZ
    Blend: AUG-CC-PVTZ
  Basis Set: (AUG-CC-PVTZ AUX)
    Blend: AUG-CC-PVTZ-JKFIT

    Orbital Energies [Eh]
    ---------------------

    Doubly Occupied:

       1A    -92.015193     2A    -20.359348     3A    -20.351036
       4A    -20.345580     5A    -11.132956     6A    -11.129155
       7A    -11.128919     8A    -11.125034     9A    -11.121620
      10A    -11.121365    11A     -8.976049    12A     -6.661762
      13A     -6.661088    14A     -6.660770    15A     -1.273588
      16A     -1.137847    17A     -1.114413    18A     -1.037540
      19A     -0.906671    20A     -0.901622    21A     -0.733067
      22A     -0.712990    23A     -0.642215    24A     -0.582847
      25A     -0.523748    26A     -0.513848    27A     -0.496248
      28A     -0.474415    29A     -0.465999    30A     -0.459456
      31A     -0.410333    32A     -0.392123    33A     -0.380010
      34A     -0.333907    35A     -0.332188    36A     -0.302932
      37A     -0.289277    38A     -0.270225    39A     -0.249284
      40A     -0.225004    41A     -0.215018

  @DF-RHF Final Energy:  -852.43629772248983

   => Energetics <=

    Nuclear Repulsion Energy =            619.1231596623146061
    One-Electron Energy =               -2414.7855335682515943
    Two-Electron Energy =                 943.2260761834470486
    Total Energy =                       -852.4362977224898259
  Basis Set: (AUG-CC-PVTZ AUX)
    Blend: AUG-CC-PVTZ-RI
    Molecular point group: c1

    Geometry (in Angstrom), charge = -1, multiplicity = 1:

       Center              X                  Y                   Z               Mass
    ------------   -----------------  -----------------  -----------------  -----------------
         S           -1.482491040464     0.025045392917     0.004462202696    31.972071174400
         O           -1.800407140464    -0.010458907083     1.456520702696    15.994914619570
         O           -1.850023140464     1.248433092917    -0.701637297304    15.994914619570
         O           -1.850640140464    -1.256882907083    -0.709391297304    15.994914619570
         C            0.325020859536    -0.006367907083    -0.038313297304    12.000000000000
         C            1.027175859536    -1.214672907083    -0.026748297304    12.000000000000
         C            1.027417859536     1.201820092917    -0.026978297304    12.000000000000
         C            2.422994859536    -1.214342907083     0.002204702696    12.000000000000
         C            2.423264859536     1.201323092917     0.001884702696    12.000000000000
         C            3.126711859536    -0.006549907083     0.021492702696    12.000000000000
         H            0.461298859536    -2.141837907083    -0.063248297304     1.007825032230
         H            0.461577859536     2.129009092917    -0.063556297304     1.007825032230
         H            2.965528859536    -2.158872907083     0.006090702696     1.007825032230
         H            2.965989859536     2.145759092917     0.005542702696     1.007825032230
         H            4.215409859536    -0.006626907083     0.042921702696     1.007825032230

  Basis Set: AUG-CC-PVTZ
    Blend: AUG-CC-PVTZ
  Basis Set: (AUG-CC-PVTZ AUX)
    Blend: AUG-CC-PVTZ-JKFIT
	 Reference Energy          =    -852.4362977224898259 [Eh]
	 Singles Energy            =      -0.0000000000000000 [Eh]
	 Same-Spin Energy          =      -0.5389661266604355 [Eh]
	 Opposite-Spin Energy      =      -1.5551789686368429 [Eh]
	 Correlation Energy        =      -2.0941450952972787 [Eh]
	 Total Energy              =    -854.5304428177871614 [Eh]

	 ================> DF-SCS-MP2 Energies <==================
	-----------------------------------------------------------
	 SCS Same-Spin Scale       =       0.3333333333333333 [-]
	 SCS Opposite-Spin Scale   =       1.2000000000000000 [-]
	 SCS Same-Spin Energy      =      -0.1796553755534785 [Eh]
	 SCS Opposite-Spin Energy  =      -1.8662147623642114 [Eh]
	 SCS Correlation Energy    =      -2.0458701379176900 [Eh]
	 SCS Total Energy          =    -854.4821678604075714 [Eh]
	-----------------------------------------------------------

  Dipole Moment: [D]
     X:     7.9565      Y:     0.3305      Z:    -0.1172     Total:     7.9642

*** Psi4 exiting successfully. Buy a developer a beer!
