                               Psi4 1.3.2 release

  ==> Input File <==

--------------------------------------------------------------------------
#psi4
#
memory 32 gb

molecule  {
-1 1
  S       -1.5500650    -0.0000770     0.0055040
  O       -1.8677260    -0.0040310     1.4568130
  O       -1.9566029     1.1962381    -0.7774101
  O       -1.9179590    -1.2504550    -0.7090990
  C        0.2577020     0.0000600    -0.0380210
  C        0.9598570    -1.2082450    -0.0264560
  C        0.9600990     1.2082480    -0.0266860
  C        2.3556760    -1.2079150     0.0024970
  C        2.3559460     1.2077510     0.0021770
  C        3.0593930    -0.0001220     0.0217850
  H        0.3939800    -2.1354100    -0.0629560
  H        0.3942590     2.1354370    -0.0632640
  H        2.8982100    -2.1524450     0.0063830
  H        2.8986710     2.1521870     0.0058350
  H        4.1480910    -0.0001990     0.0432140
units angstrom
no_reorient  #important for SAPT in psi4, default
symmetry c1  #important for SAPT in psi4, default
}

set PROPERTIES_ORIGIN ["COM"]
properties('MP2/aug-cc-pvtz', properties = ['dipole'])
--------------------------------------------------------------------------

    Molecular point group: c1
  Charge       = -1
  Multiplicity = 1
  Basis Set: AUG-CC-PVTZ
    Blend: AUG-CC-PVTZ
  Basis Set: (AUG-CC-PVTZ AUX)
    Blend: AUG-CC-PVTZ-JKFIT

    Orbital Energies [Eh]
    ---------------------

    Doubly Occupied:

       1A    -92.014729     2A    -20.355521     3A    -20.351598
       4A    -20.345111     5A    -11.133931     6A    -11.130261
       7A    -11.129964     8A    -11.126900     9A    -11.123178
      10A    -11.122541    11A     -8.975523    12A     -6.661222
      13A     -6.660536    14A     -6.660278    15A     -1.270786
      16A     -1.130331    17A     -1.120620    18A     -1.038744
      19A     -0.907945    20A     -0.902800    21A     -0.734153
      22A     -0.714215    23A     -0.642878    24A     -0.582907
      25A     -0.524172    26A     -0.514772    27A     -0.496271
      28A     -0.475497    29A     -0.466048    30A     -0.456035
      31A     -0.411465    32A     -0.393372    33A     -0.381124
      34A     -0.333842    35A     -0.329543    36A     -0.302017
      37A     -0.287094    38A     -0.272340    39A     -0.248082
      40A     -0.226051    41A     -0.216418

  @DF-RHF Final Energy:  -852.43666249365788

   => Energetics <=

    Nuclear Repulsion Energy =            618.7755900172403472
    One-Electron Energy =               -2414.0828728364035669
    Two-Electron Energy =                 942.8706203255053424
    Total Energy =                       -852.4366624936578773
  Basis Set: (AUG-CC-PVTZ AUX)
    Blend: AUG-CC-PVTZ-RI
    Molecular point group: c1

    Geometry (in Angstrom), charge = -1, multiplicity = 1:

       Center              X                  Y                   Z               Mass
    ------------   -----------------  -----------------  -----------------  -----------------
         S           -1.478694247033     0.005892844828     0.012808661644    31.972071174400
         O           -1.796355247033     0.001938844828     1.464117661644    15.994914619570
         O           -1.885232147033     1.202207944828    -0.770105438356    15.994914619570
         O           -1.846588247033    -1.244485155172    -0.701794338356    15.994914619570
         C            0.329072752967     0.006029844828    -0.030716338356    12.000000000000
         C            1.031227752967    -1.202275155172    -0.019151338356    12.000000000000
         C            1.031469752967     1.214217844828    -0.019381338356    12.000000000000
         C            2.427046752967    -1.201945155172     0.009801661644    12.000000000000
         C            2.427316752967     1.213720844828     0.009481661644    12.000000000000
         C            3.130763752967     0.005847844828     0.029089661644    12.000000000000
         H            0.465350752967    -2.129440155172    -0.055651338356     1.007825032230
         H            0.465629752967     2.141406844828    -0.055959338356     1.007825032230
         H            2.969580752967    -2.146475155172     0.013687661644     1.007825032230
         H            2.970041752967     2.158156844828     0.013139661644     1.007825032230
         H            4.219461752967     0.005770844828     0.050518661644     1.007825032230

  Basis Set: AUG-CC-PVTZ
    Blend: AUG-CC-PVTZ
  Basis Set: (AUG-CC-PVTZ AUX)
    Blend: AUG-CC-PVTZ-JKFIT
	 Reference Energy          =    -852.4366624936578773 [Eh]
	 Singles Energy            =      -0.0000000000000000 [Eh]
	 Same-Spin Energy          =      -0.5389064962579271 [Eh]
	 Opposite-Spin Energy      =      -1.5551225308676864 [Eh]
	 Correlation Energy        =      -2.0940290271256137 [Eh]
	 Total Energy              =    -854.5306915207835345 [Eh]

	 ================> DF-SCS-MP2 Energies <==================
	-----------------------------------------------------------
	 SCS Same-Spin Scale       =       0.3333333333333333 [-]
	 SCS Opposite-Spin Scale   =       1.2000000000000000 [-]
	 SCS Same-Spin Energy      =      -0.1796354987526423 [Eh]
	 SCS Opposite-Spin Energy  =      -1.8661470370412236 [Eh]
	 SCS Correlation Energy    =      -2.0457825357938662 [Eh]
	 SCS Total Energy          =    -854.4824450294516964 [Eh]
	-----------------------------------------------------------

  Dipole Moment: [D]
     X:     8.0856      Y:     0.1217      Z:     0.0771     Total:     8.0868

*** Psi4 exiting successfully. Buy a developer a beer!
