                               Psi4 1.3.2 release

  ==> Input File <==

--------------------------------------------------------------------------
#psi4
#
memory 32 gb

molecule  {
-1 1
  S       -1.5500650    -0.0000770     0.0055040
  O       -1.8677260    -0.0040310     1.4568130
  O       -1.8679238     1.0860054    -0.6062364
  O       -1.9179590    -1.2504550    -0.7090990
  C        0.2577020     0.0000600    -0.0380210
  C        0.9598570    -1.2082450    -0.0264560
  C        0.9600990     1.2082480    -0.0266860
  C        2.3556760    -1.2079150     0.0024970
  C        2.3559460     1.2077510     0.0021770
  C        3.0593930    -0.0001220     0.0217850
  H        0.3939800    -2.1354100    -0.0629560
  H        0.3942590     2.1354370    -0.0632640
  H        2.8982100    -2.1524450     0.0063830
  H        2.8986710     2.1521870     0.0058350
  H        4.1480910    -0.0001990     0.0432140
units angstrom
no_reorient  #important for SAPT in psi4, default
symmetry c1  #important for SAPT in psi4, default
}

set PROPERTIES_ORIGIN ["COM"]
properties('MP2/aug-cc-pvtz', properties = ['dipole'])
--------------------------------------------------------------------------

    Molecular point group: c1
  Charge       = -1
  Multiplicity = 1
  Basis Set: AUG-CC-PVTZ
    Blend: AUG-CC-PVTZ
  Basis Set: (AUG-CC-PVTZ AUX)
    Blend: AUG-CC-PVTZ-JKFIT

    Orbital Energies [Eh]
    ---------------------

    Doubly Occupied:

       1A    -91.984891     2A    -20.354387     3A    -20.333377
       4A    -20.332191     5A    -11.127510     6A    -11.125300
       7A    -11.123768     8A    -11.116989     9A    -11.113524
      10A    -11.111677    11A     -8.954076    12A     -6.641686
      13A     -6.638423    14A     -6.637523    15A     -1.356182
      16A     -1.162058    17A     -1.112827    18A     -1.031845
      19A     -0.900460    20A     -0.896382    21A     -0.725119
      22A     -0.707763    23A     -0.631874    24A     -0.580152
      25A     -0.533369    26A     -0.511028    27A     -0.499661
      28A     -0.493477    29A     -0.476385    30A     -0.469576
      31A     -0.411755    32A     -0.388272    33A     -0.375176
      34A     -0.347610    35A     -0.346144    36A     -0.312454
      37A     -0.287424    38A     -0.264276    39A     -0.243395
      40A     -0.220529    41A     -0.207831

  @DF-RHF Final Energy:  -852.40144361184241

   => Energetics <=

    Nuclear Repulsion Energy =            629.5791062379000778
    One-Electron Energy =               -2435.7844109977322660
    Two-Electron Energy =                 953.8038611479897781
    Total Energy =                       -852.4014436118424101
  Basis Set: (AUG-CC-PVTZ AUX)
    Blend: AUG-CC-PVTZ-RI
    Molecular point group: c1

    Geometry (in Angstrom), charge = -1, multiplicity = 1:

       Center              X                  Y                   Z               Mass
    ------------   -----------------  -----------------  -----------------  -----------------
         S           -1.487728968767     0.017123470426    -0.004630698337    31.972071174400
         O           -1.805389968767     0.013169470426     1.446678301663    15.994914619570
         O           -1.805587768767     1.103205870426    -0.616371098337    15.994914619570
         O           -1.855622968767    -1.233254529574    -0.719233698337    15.994914619570
         C            0.320038031233     0.017260470426    -0.048155698337    12.000000000000
         C            1.022193031233    -1.191044529574    -0.036590698337    12.000000000000
         C            1.022435031233     1.225448470426    -0.036820698337    12.000000000000
         C            2.418012031233    -1.190714529574    -0.007637698337    12.000000000000
         C            2.418282031233     1.224951470426    -0.007957698337    12.000000000000
         C            3.121729031233     0.017078470426     0.011650301663    12.000000000000
         H            0.456316031233    -2.118209529574    -0.073090698337     1.007825032230
         H            0.456595031233     2.152637470426    -0.073398698337     1.007825032230
         H            2.960546031233    -2.135244529574    -0.003751698337     1.007825032230
         H            2.961007031233     2.169387470426    -0.004299698337     1.007825032230
         H            4.210427031233     0.017001470426     0.033079301663     1.007825032230

  Basis Set: AUG-CC-PVTZ
    Blend: AUG-CC-PVTZ
  Basis Set: (AUG-CC-PVTZ AUX)
    Blend: AUG-CC-PVTZ-JKFIT
	 Reference Energy          =    -852.4014436118424101 [Eh]
	 Singles Energy            =      -0.0000000000000000 [Eh]
	 Same-Spin Energy          =      -0.5345261887707975 [Eh]
	 Opposite-Spin Energy      =      -1.5441910845905484 [Eh]
	 Correlation Energy        =      -2.0787172733613462 [Eh]
	 Total Energy              =    -854.4801608852037589 [Eh]

	 ================> DF-SCS-MP2 Energies <==================
	-----------------------------------------------------------
	 SCS Same-Spin Scale       =       0.3333333333333333 [-]
	 SCS Opposite-Spin Scale   =       1.2000000000000000 [-]
	 SCS Same-Spin Energy      =      -0.1781753962569325 [Eh]
	 SCS Opposite-Spin Energy  =      -1.8530293015086581 [Eh]
	 SCS Correlation Energy    =      -2.0312046977655904 [Eh]
	 SCS Total Energy          =    -854.4326483096079983 [Eh]
	-----------------------------------------------------------

  Dipole Moment: [D]
     X:     7.3728      Y:     0.9768      Z:    -0.6943     Total:     7.4695

*** Psi4 exiting successfully. Buy a developer a beer!
