                               Psi4 1.3.2 release

  ==> Input File <==

--------------------------------------------------------------------------
#psi4
#
memory 32 gb

molecule  {
-1 1
  S       -1.5490043     0.0630140     0.0039920
  O       -1.8677260    -0.0040310     1.4568130
  O       -1.9173420     1.2548610    -0.7013450
  O       -1.9179590    -1.2504550    -0.7090990
  C        0.2577020     0.0000600    -0.0380210
  C        0.9598570    -1.2082450    -0.0264560
  C        0.9600990     1.2082480    -0.0266860
  C        2.3556760    -1.2079150     0.0024970
  C        2.3559460     1.2077510     0.0021770
  C        3.0593930    -0.0001220     0.0217850
  H        0.3939800    -2.1354100    -0.0629560
  H        0.3942590     2.1354370    -0.0632640
  H        2.8982100    -2.1524450     0.0063830
  H        2.8986710     2.1521870     0.0058350
  H        4.1480910    -0.0001990     0.0432140
units angstrom
no_reorient  #important for SAPT in psi4, default
symmetry c1  #important for SAPT in psi4, default
}

set PROPERTIES_ORIGIN ["COM"]
properties('MP2/aug-cc-pvtz', properties = ['dipole'])
--------------------------------------------------------------------------

    Molecular point group: c1
  Charge       = -1
  Multiplicity = 1
  Basis Set: AUG-CC-PVTZ
    Blend: AUG-CC-PVTZ
  Basis Set: (AUG-CC-PVTZ AUX)
    Blend: AUG-CC-PVTZ-JKFIT

    Orbital Energies [Eh]
    ---------------------

    Doubly Occupied:

       1A    -92.014472     2A    -20.366319     3A    -20.350787
       4A    -20.338776     5A    -11.132996     6A    -11.129244
       7A    -11.128920     8A    -11.125175     9A    -11.121733
      10A    -11.121374    11A     -8.975740    12A     -6.661424
      13A     -6.660902    14A     -6.660292    15A     -1.279939
      16A     -1.146074    17A     -1.100632    18A     -1.037548
      19A     -0.906864    20A     -0.901562    21A     -0.733299
      22A     -0.712984    23A     -0.642412    24A     -0.583154
      25A     -0.524683    26A     -0.514067    27A     -0.496953
      28A     -0.474454    29A     -0.468416    30A     -0.460249
      31A     -0.410821    32A     -0.392385    33A     -0.380124
      34A     -0.336084    35A     -0.331921    36A     -0.307119
      37A     -0.284192    38A     -0.266802    39A     -0.246583
      40A     -0.225092    41A     -0.214694

  @DF-RHF Final Energy:  -852.43166540280447

   => Energetics <=

    Nuclear Repulsion Energy =            619.1577879253447918
    One-Electron Energy =               -2414.8443860235215652
    Two-Electron Energy =                 943.2549326953723039
    Total Energy =                       -852.4316654028044695
  Basis Set: (AUG-CC-PVTZ AUX)
    Blend: AUG-CC-PVTZ-RI
    Molecular point group: c1

    Geometry (in Angstrom), charge = -1, multiplicity = 1:

       Center              X                  Y                   Z               Mass
    ------------   -----------------  -----------------  -----------------  -----------------
         S           -1.481849500124     0.050162859909     0.003854985083    31.972071174400
         O           -1.800571200124    -0.016882140091     1.456675985083    15.994914619570
         O           -1.850187200124     1.242009859909    -0.701482014917    15.994914619570
         O           -1.850804200124    -1.263306140091    -0.709236014917    15.994914619570
         C            0.324856799876    -0.012791140091    -0.038158014917    12.000000000000
         C            1.027011799876    -1.221096140091    -0.026593014917    12.000000000000
         C            1.027253799876     1.195396859909    -0.026823014917    12.000000000000
         C            2.422830799876    -1.220766140091     0.002359985083    12.000000000000
         C            2.423100799876     1.194899859909     0.002039985083    12.000000000000
         C            3.126547799876    -0.012973140091     0.021647985083    12.000000000000
         H            0.461134799876    -2.148261140091    -0.063093014917     1.007825032230
         H            0.461413799876     2.122585859909    -0.063401014917     1.007825032230
         H            2.965364799876    -2.165296140091     0.006245985083     1.007825032230
         H            2.965825799876     2.139335859909     0.005697985083     1.007825032230
         H            4.215245799876    -0.013050140091     0.043076985083     1.007825032230

  Basis Set: AUG-CC-PVTZ
    Blend: AUG-CC-PVTZ
  Basis Set: (AUG-CC-PVTZ AUX)
    Blend: AUG-CC-PVTZ-JKFIT
	 Reference Energy          =    -852.4316654028044695 [Eh]
	 Singles Energy            =      -0.0000000000000000 [Eh]
	 Same-Spin Energy          =      -0.5389464061394373 [Eh]
	 Opposite-Spin Energy      =      -1.5552612638944985 [Eh]
	 Correlation Energy        =      -2.0942076700339358 [Eh]
	 Total Energy              =    -854.5258730728384080 [Eh]

	 ================> DF-SCS-MP2 Energies <==================
	-----------------------------------------------------------
	 SCS Same-Spin Scale       =       0.3333333333333333 [-]
	 SCS Opposite-Spin Scale   =       1.2000000000000000 [-]
	 SCS Same-Spin Energy      =      -0.1796488020464791 [Eh]
	 SCS Opposite-Spin Energy  =      -1.8663135166733982 [Eh]
	 SCS Correlation Energy    =      -2.0459623187198774 [Eh]
	 SCS Total Energy          =    -854.4776277215242999 [Eh]
	-----------------------------------------------------------

  Dipole Moment: [D]
     X:     7.9703      Y:     0.6617      Z:    -0.1195     Total:     7.9986

*** Psi4 exiting successfully. Buy a developer a beer!
