                               Psi4 1.4a3.dev225

  ==> Input File <==

--------------------------------------------------------------------------
#psi4
#
memory 32 gb

molecule  {
-1 1
  S       -1.5257420     0.0005400     0.0049580
  O       -1.8754660    -0.0921210     1.4513090
  O       -1.9233266     1.2450432    -0.5992890
  O       -1.9322140    -1.2001240    -0.7773890
  C        0.2621030     0.0036010    -0.0456020
  C        0.9554030    -1.2107120    -0.0284930
  C        0.9595290     1.2147240    -0.0278400
  C        2.3511900    -1.2103390     0.0023180
  C        2.3559220     1.2088420     0.0015130
  C        3.0539450    -0.0018320     0.0226760
  H        0.4020620    -2.1452990    -0.0612980
  H        0.4079720     2.1501410    -0.0584560
  H        2.8913160    -2.1541860     0.0103160
  H        2.8995330     2.1507040     0.0084210
  H        4.1409790    -0.0039320     0.0451330
units angstrom
no_reorient  #important for SAPT in psi4, default
symmetry c1  #important for SAPT in psi4, default
}

set PROPERTIES_ORIGIN ["COM"]
properties('MP2/aug-cc-pvtz', properties = ['dipole'])
--------------------------------------------------------------------------

    Molecular point group: c1
  Charge       = -1
  Multiplicity = 1
  Basis Set: AUG-CC-PVTZ
    Blend: AUG-CC-PVTZ
  Basis Set: (AUG-CC-PVTZ AUX)
    Blend: AUG-CC-PVTZ-JKFIT

    Orbital Energies [Eh]
    ---------------------

    Doubly Occupied:

       1A    -92.007006     2A    -20.348828     3A    -20.343405
       4A    -20.342475     5A    -11.134573     6A    -11.130721
       7A    -11.130345     8A    -11.126925     9A    -11.124536
      10A    -11.124077    11A     -8.969013    12A     -6.654715
      13A     -6.654233    14A     -6.653731    15A     -1.279301
      16A     -1.135368    17A     -1.116253    18A     -1.039890
      19A     -0.909602    20A     -0.904537    21A     -0.737311
      22A     -0.715167    23A     -0.642254    24A     -0.582670
      25A     -0.525020    26A     -0.515998    27A     -0.498147
      28A     -0.477696    29A     -0.465075    30A     -0.458204
      31A     -0.410717    32A     -0.393867    33A     -0.384404
      34A     -0.331908    35A     -0.331763    36A     -0.296496
      37A     -0.289215    38A     -0.273806    39A     -0.243809
      40A     -0.227140    41A     -0.216079

  @DF-RHF Final Energy:  -852.44004475935174

   => Energetics <=

    Nuclear Repulsion Energy =            621.7622190498991586
    One-Electron Energy =               -2420.1119638155050779
    Two-Electron Energy =                 945.9097000062541838
    Total Energy =                       -852.4400447593517356
  Basis Set: (AUG-CC-PVTZ AUX)
    Blend: AUG-CC-PVTZ-RI
    Molecular point group: c1

    Geometry (in Angstrom), charge = -1, multiplicity = 1:

       Center              X                  Y                   Z               Mass
    ------------   -----------------  -----------------  -----------------  -----------------
         S           -1.459720728114     0.004928062313     0.002468912019    31.972071174400
         O           -1.809444728114    -0.087732937687     1.448819912019    15.994914619570
         O           -1.857305328114     1.249431262313    -0.601778087981    15.994914619570
         O           -1.866192728114    -1.195735937687    -0.779878087981    15.994914619570
         C            0.328124271886     0.007989062313    -0.048091087981    12.000000000000
         C            1.021424271886    -1.206323937687    -0.030982087981    12.000000000000
         C            1.025550271886     1.219112062313    -0.030329087981    12.000000000000
         C            2.417211271886    -1.205950937687    -0.000171087981    12.000000000000
         C            2.421943271886     1.213230062313    -0.000976087981    12.000000000000
         C            3.119966271886     0.002556062313     0.020186912019    12.000000000000
         H            0.468083271886    -2.140910937687    -0.063787087981     1.007825032230
         H            0.473993271886     2.154529062313    -0.060945087981     1.007825032230
         H            2.957337271886    -2.149797937687     0.007826912019     1.007825032230
         H            2.965554271886     2.155092062313     0.005931912019     1.007825032230
         H            4.207000271886     0.000456062313     0.042643912019     1.007825032230

  Basis Set: AUG-CC-PVTZ
    Blend: AUG-CC-PVTZ
  Basis Set: (AUG-CC-PVTZ AUX)
    Blend: AUG-CC-PVTZ-JKFIT
	 Reference Energy          =    -852.4400447593517356 [Eh]
	 Singles Energy            =      -0.0000000000000000 [Eh]
	 Same-Spin Energy          =      -0.5379350069910517 [Eh]
	 Opposite-Spin Energy      =      -1.5523951049782871 [Eh]
	 Correlation Energy        =      -2.0903301119693389 [Eh]
	 Total Energy              =    -854.5303748713211007 [Eh]

	 ================> DF-SCS-MP2 Energies <==================
	-----------------------------------------------------------
	 SCS Same-Spin Scale       =       0.3333333333333333 [-]
	 SCS Opposite-Spin Scale   =       1.2000000000000000 [-]
	 SCS Same-Spin Energy      =      -0.1793116689970172 [Eh]
	 SCS Opposite-Spin Energy  =      -1.8628741259739445 [Eh]
	 SCS Correlation Energy    =      -2.0421857949709619 [Eh]
	 SCS Total Energy          =    -854.4822305543226548 [Eh]
	-----------------------------------------------------------

  Dipole Moment: [D]
     X:     8.2523      Y:     0.2640      Z:    -0.2563     Total:     8.2605

*** Psi4 exiting successfully. Buy a developer a beer!
