                               Psi4 1.4a3.dev225

  ==> Input File <==

--------------------------------------------------------------------------
#psi4
#
memory 32 gb

molecule  {
-1 1
  S       -1.5257420     0.0005400     0.0049580
  O       -1.8754660    -0.0921210     1.4513090
  O       -1.9371370     1.2882720    -0.6202780
  O       -1.9322140    -1.2001240    -0.7773890
  C        0.2121231     0.0035154    -0.0441886
  C        0.9554030    -1.2107120    -0.0284930
  C        0.9595290     1.2147240    -0.0278400
  C        2.3511900    -1.2103390     0.0023180
  C        2.3559220     1.2088420     0.0015130
  C        3.0539450    -0.0018320     0.0226760
  H        0.4020620    -2.1452990    -0.0612980
  H        0.4079720     2.1501410    -0.0584560
  H        2.8913160    -2.1541860     0.0103160
  H        2.8995330     2.1507040     0.0084210
  H        4.1409790    -0.0039320     0.0451330
units angstrom
no_reorient  #important for SAPT in psi4, default
symmetry c1  #important for SAPT in psi4, default
}

set PROPERTIES_ORIGIN ["COM"]
properties('MP2/aug-cc-pvtz', properties = ['dipole'])
--------------------------------------------------------------------------

    Molecular point group: c1
  Charge       = -1
  Multiplicity = 1
  Basis Set: AUG-CC-PVTZ
    Blend: AUG-CC-PVTZ
  Basis Set: (AUG-CC-PVTZ AUX)
    Blend: AUG-CC-PVTZ-JKFIT

    Orbital Energies [Eh]
    ---------------------

    Doubly Occupied:

       1A    -92.012455     2A    -20.348070     3A    -20.347696
       4A    -20.346914     5A    -11.137430     6A    -11.133161
       7A    -11.132170     8A    -11.131980     9A    -11.129957
      10A    -11.129552    11A     -8.974085    12A     -6.659916
      13A     -6.658988    14A     -6.658862    15A     -1.268570
      16A     -1.122299    17A     -1.119621    18A     -1.037305
      19A     -0.911483    20A     -0.903990    21A     -0.748338
      22A     -0.713451    23A     -0.646149    24A     -0.583609
      25A     -0.527327    26A     -0.516010    27A     -0.497503
      28A     -0.476735    29A     -0.462690    30A     -0.454821
      31A     -0.412775    32A     -0.392137    33A     -0.379109
      34A     -0.328722    35A     -0.328177    36A     -0.296383
      37A     -0.286713    38A     -0.281841    39A     -0.244794
      40A     -0.228035    41A     -0.214070

  @DF-RHF Final Energy:  -852.43298511142234

   => Energetics <=

    Nuclear Repulsion Energy =            619.7148739087157310
    One-Electron Energy =               -2415.9279355159178522
    Two-Electron Energy =                 943.7800764957798947
    Total Energy =                       -852.4329851114223402
  Basis Set: (AUG-CC-PVTZ AUX)
    Blend: AUG-CC-PVTZ-RI
    Molecular point group: c1

    Geometry (in Angstrom), charge = -1, multiplicity = 1:

       Center              X                  Y                   Z               Mass
    ------------   -----------------  -----------------  -----------------  -----------------
         S           -1.454493491232     0.000530408690     0.004499260464    31.972071174400
         O           -1.804217491232    -0.092130591310     1.450850260464    15.994914619570
         O           -1.865888491232     1.288262408690    -0.620736739536    15.994914619570
         O           -1.860965491232    -1.200133591310    -0.777847739536    15.994914619570
         C            0.283371608768     0.003505808690    -0.044647339536    12.000000000000
         C            1.026651508768    -1.210721591310    -0.028951739536    12.000000000000
         C            1.030777508768     1.214714408690    -0.028298739536    12.000000000000
         C            2.422438508768    -1.210348591310     0.001859260464    12.000000000000
         C            2.427170508768     1.208832408690     0.001054260464    12.000000000000
         C            3.125193508768    -0.001841591310     0.022217260464    12.000000000000
         H            0.473310508768    -2.145308591310    -0.061756739536     1.007825032230
         H            0.479220508768     2.150131408690    -0.058914739536     1.007825032230
         H            2.962564508768    -2.154195591310     0.009857260464     1.007825032230
         H            2.970781508768     2.150694408690     0.007962260464     1.007825032230
         H            4.212227508768    -0.003941591310     0.044674260464     1.007825032230

  Basis Set: AUG-CC-PVTZ
    Blend: AUG-CC-PVTZ
  Basis Set: (AUG-CC-PVTZ AUX)
    Blend: AUG-CC-PVTZ-JKFIT
	 Reference Energy          =    -852.4329851114223402 [Eh]
	 Singles Energy            =      -0.0000000000000000 [Eh]
	 Same-Spin Energy          =      -0.5392404812338100 [Eh]
	 Opposite-Spin Energy      =      -1.5556547330969921 [Eh]
	 Correlation Energy        =      -2.0948952143308022 [Eh]
	 Total Energy              =    -854.5278803257531308 [Eh]

	 ================> DF-SCS-MP2 Energies <==================
	-----------------------------------------------------------
	 SCS Same-Spin Scale       =       0.3333333333333333 [-]
	 SCS Opposite-Spin Scale   =       1.2000000000000000 [-]
	 SCS Same-Spin Energy      =      -0.1797468270779367 [Eh]
	 SCS Opposite-Spin Energy  =      -1.8667856797163904 [Eh]
	 SCS Correlation Energy    =      -2.0465325067943270 [Eh]
	 SCS Total Energy          =    -854.4795176182166188 [Eh]
	-----------------------------------------------------------

  Dipole Moment: [D]
     X:     8.4144      Y:     0.0062      Z:    -0.1163     Total:     8.4152

*** Psi4 exiting successfully. Buy a developer a beer!
