                               Psi4 1.4a3.dev225

  ==> Input File <==

--------------------------------------------------------------------------
#psi4
#
memory 32 gb

molecule  {
-1 1
  S       -1.5257420     0.0005400     0.0049580
  O       -1.8754660    -0.0921210     1.4513090
  O       -1.9371370     1.2882720    -0.6202780
  O       -1.9322140    -1.2001240    -0.7773890
  C        0.2421110     0.0035668    -0.0450366
  C        0.9554030    -1.2107120    -0.0284930
  C        0.9595290     1.2147240    -0.0278400
  C        2.3511900    -1.2103390     0.0023180
  C        2.3559220     1.2088420     0.0015130
  C        3.0539450    -0.0018320     0.0226760
  H        0.4020620    -2.1452990    -0.0612980
  H        0.4079720     2.1501410    -0.0584560
  H        2.8913160    -2.1541860     0.0103160
  H        2.8995330     2.1507040     0.0084210
  H        4.1409790    -0.0039320     0.0451330
units angstrom
no_reorient  #important for SAPT in psi4, default
symmetry c1  #important for SAPT in psi4, default
}

set PROPERTIES_ORIGIN ["COM"]
properties('MP2/aug-cc-pvtz', properties = ['dipole'])
--------------------------------------------------------------------------

    Molecular point group: c1
  Charge       = -1
  Multiplicity = 1
  Basis Set: AUG-CC-PVTZ
    Blend: AUG-CC-PVTZ
  Basis Set: (AUG-CC-PVTZ AUX)
    Blend: AUG-CC-PVTZ-JKFIT

    Orbital Energies [Eh]
    ---------------------

    Doubly Occupied:

       1A    -92.012615     2A    -20.348293     3A    -20.347892
       4A    -20.347018     5A    -11.136485     6A    -11.131847
       7A    -11.131692     8A    -11.131015     9A    -11.127643
      10A    -11.127183    11A     -8.973887    12A     -6.659635
      13A     -6.658800    14A     -6.658678    15A     -1.267443
      16A     -1.122103    17A     -1.119385    18A     -1.039598
      19A     -0.911243    20A     -0.904999    21A     -0.742919
      22A     -0.715232    23A     -0.645460    24A     -0.583701
      25A     -0.525861    26A     -0.516697    27A     -0.497293
      28A     -0.477959    29A     -0.461926    30A     -0.454761
      31A     -0.411705    32A     -0.393670    33A     -0.383033
      34A     -0.328484    35A     -0.328077    36A     -0.295741
      37A     -0.286815    38A     -0.277775    39A     -0.244879
      40A     -0.228108    41A     -0.216359

  @DF-RHF Final Energy:  -852.43613470511082

   => Energetics <=

    Nuclear Repulsion Energy =            619.4874115724325065
    One-Electron Energy =               -2415.4992700046141181
    Two-Electron Energy =                 943.5757237270709084
    Total Energy =                       -852.4361347051108169
  Basis Set: (AUG-CC-PVTZ AUX)
    Blend: AUG-CC-PVTZ-RI
    Molecular point group: c1

    Geometry (in Angstrom), charge = -1, multiplicity = 1:

       Center              X                  Y                   Z               Mass
    ------------   -----------------  -----------------  -----------------  -----------------
         S           -1.456785619293     0.000526479926     0.004564077426    31.972071174400
         O           -1.806509619293    -0.092134520074     1.450915077426    15.994914619570
         O           -1.868180619293     1.288258479926    -0.620671922574    15.994914619570
         O           -1.863257619293    -1.200137520074    -0.777782922574    15.994914619570
         C            0.311067380707     0.003553279926    -0.045430522574    12.000000000000
         C            1.024359380707    -1.210725520074    -0.028886922574    12.000000000000
         C            1.028485380707     1.214710479926    -0.028233922574    12.000000000000
         C            2.420146380707    -1.210352520074     0.001924077426    12.000000000000
         C            2.424878380707     1.208828479926     0.001119077426    12.000000000000
         C            3.122901380707    -0.001845520074     0.022282077426    12.000000000000
         H            0.471018380707    -2.145312520074    -0.061691922574     1.007825032230
         H            0.476928380707     2.150127479926    -0.058849922574     1.007825032230
         H            2.960272380707    -2.154199520074     0.009922077426     1.007825032230
         H            2.968489380707     2.150690479926     0.008027077426     1.007825032230
         H            4.209935380707    -0.003945520074     0.044739077426     1.007825032230

  Basis Set: AUG-CC-PVTZ
    Blend: AUG-CC-PVTZ
  Basis Set: (AUG-CC-PVTZ AUX)
    Blend: AUG-CC-PVTZ-JKFIT
	 Reference Energy          =    -852.4361347051108169 [Eh]
	 Singles Energy            =      -0.0000000000000000 [Eh]
	 Same-Spin Energy          =      -0.5390295598501218 [Eh]
	 Opposite-Spin Energy      =      -1.5552277356058446 [Eh]
	 Correlation Energy        =      -2.0942572954559662 [Eh]
	 Total Energy              =    -854.5303920005667351 [Eh]

	 ================> DF-SCS-MP2 Energies <==================
	-----------------------------------------------------------
	 SCS Same-Spin Scale       =       0.3333333333333333 [-]
	 SCS Opposite-Spin Scale   =       1.2000000000000000 [-]
	 SCS Same-Spin Energy      =      -0.1796765199500406 [Eh]
	 SCS Opposite-Spin Energy  =      -1.8662732827270134 [Eh]
	 SCS Correlation Energy    =      -2.0459498026770540 [Eh]
	 SCS Total Energy          =    -854.4820845077878175 [Eh]
	-----------------------------------------------------------

  Dipole Moment: [D]
     X:     8.4041      Y:     0.0071      Z:    -0.1214     Total:     8.4050

*** Psi4 exiting successfully. Buy a developer a beer!
