                               Psi4 1.3.2 release

  ==> Input File <==

--------------------------------------------------------------------------
#psi4
#
memory 32 gb

molecule  {
-1 1
  S       -1.5500650    -0.0000770     0.0055040
  O       -1.8677260    -0.0040310     1.4568130
  O       -1.8921549     1.2599792    -0.7048692
  O       -1.9179590    -1.2504550    -0.7090990
  C        0.2577020     0.0000600    -0.0380210
  C        0.9598570    -1.2082450    -0.0264560
  C        0.9600990     1.2082480    -0.0266860
  C        2.3556760    -1.2079150     0.0024970
  C        2.3559460     1.2077510     0.0021770
  C        3.0593930    -0.0001220     0.0217850
  H        0.3939800    -2.1354100    -0.0629560
  H        0.3942590     2.1354370    -0.0632640
  H        2.8982100    -2.1524450     0.0063830
  H        2.8986710     2.1521870     0.0058350
  H        4.1480910    -0.0001990     0.0432140
units angstrom
no_reorient  #important for SAPT in psi4, default
symmetry c1  #important for SAPT in psi4, default
}

set PROPERTIES_ORIGIN ["COM"]
properties('MP2/aug-cc-pvtz', properties = ['dipole'])
--------------------------------------------------------------------------

    Molecular point group: c1
  Charge       = -1
  Multiplicity = 1
  Basis Set: AUG-CC-PVTZ
    Blend: AUG-CC-PVTZ
  Basis Set: (AUG-CC-PVTZ AUX)
    Blend: AUG-CC-PVTZ-JKFIT

    Orbital Energies [Eh]
    ---------------------

    Doubly Occupied:

       1A    -92.015854     2A    -20.353370     3A    -20.352672
       4A    -20.352176     5A    -11.132260     6A    -11.128463
       7A    -11.128259     8A    -11.123819     9A    -11.120737
      10A    -11.120474    11A     -8.976544    12A     -6.662280
      13A     -6.661470    14A     -6.661385    15A     -1.271908
      16A     -1.129092    17A     -1.126840    18A     -1.036771
      19A     -0.905765    20A     -0.900920    21A     -0.732240
      22A     -0.712250    23A     -0.641747    24A     -0.582532
      25A     -0.523208    26A     -0.513109    27A     -0.495673
      28A     -0.473736    29A     -0.465701    30A     -0.459899
      31A     -0.409561    32A     -0.391393    33A     -0.379272
      34A     -0.333795    35A     -0.332863    36A     -0.300823
      37A     -0.293212    38A     -0.270718    39A     -0.251175
      40A     -0.224301    41A     -0.214442

  @DF-RHF Final Energy:  -852.43745996728148

   => Energetics <=

    Nuclear Repulsion Energy =            619.3167451961650158
    One-Electron Energy =               -2415.1829920759491870
    Two-Electron Energy =                 943.4287869125028010
    Total Energy =                       -852.4374599672814838
  Basis Set: (AUG-CC-PVTZ AUX)
    Blend: AUG-CC-PVTZ-RI
    Molecular point group: c1

    Geometry (in Angstrom), charge = -1, multiplicity = 1:

       Center              X                  Y                   Z               Mass
    ------------   -----------------  -----------------  -----------------  -----------------
         S           -1.485260278334    -0.000601166744     0.005418117020    31.972071174400
         O           -1.802921278334    -0.004555166744     1.456727117020    15.994914619570
         O           -1.827350178334     1.259455033256    -0.704955082980    15.994914619570
         O           -1.853154278334    -1.250979166744    -0.709184882980    15.994914619570
         C            0.322506721666    -0.000464166744    -0.038106882980    12.000000000000
         C            1.024661721666    -1.208769166744    -0.026541882980    12.000000000000
         C            1.024903721666     1.207723833256    -0.026771882980    12.000000000000
         C            2.420480721666    -1.208439166744     0.002411117020    12.000000000000
         C            2.420750721666     1.207226833256     0.002091117020    12.000000000000
         C            3.124197721666    -0.000646166744     0.021699117020    12.000000000000
         H            0.458784721666    -2.135934166744    -0.063041882980     1.007825032230
         H            0.459063721666     2.134912833256    -0.063349882980     1.007825032230
         H            2.963014721666    -2.152969166744     0.006297117020     1.007825032230
         H            2.963475721666     2.151662833256     0.005749117020     1.007825032230
         H            4.212895721666    -0.000723166744     0.043128117020     1.007825032230

  Basis Set: AUG-CC-PVTZ
    Blend: AUG-CC-PVTZ
  Basis Set: (AUG-CC-PVTZ AUX)
    Blend: AUG-CC-PVTZ-JKFIT
	 Reference Energy          =    -852.4374599672814838 [Eh]
	 Singles Energy            =      -0.0000000000000000 [Eh]
	 Same-Spin Energy          =      -0.5390575700898272 [Eh]
	 Opposite-Spin Energy      =      -1.5552950041033560 [Eh]
	 Correlation Energy        =      -2.0943525741931834 [Eh]
	 Total Energy              =    -854.5318125414746646 [Eh]

	 ================> DF-SCS-MP2 Energies <==================
	-----------------------------------------------------------
	 SCS Same-Spin Scale       =       0.3333333333333333 [-]
	 SCS Opposite-Spin Scale   =       1.2000000000000000 [-]
	 SCS Same-Spin Energy      =      -0.1796858566966091 [Eh]
	 SCS Opposite-Spin Energy  =      -1.8663540049240270 [Eh]
	 SCS Correlation Energy    =      -2.0460398616206361 [Eh]
	 SCS Total Energy          =    -854.4834998289021541 [Eh]
	-----------------------------------------------------------

  Dipole Moment: [D]
     X:     7.8662      Y:    -0.0080      Z:    -0.1046     Total:     7.8669

*** Psi4 exiting successfully. Buy a developer a beer!
