                               Psi4 1.4a3.dev225

  ==> Input File <==

--------------------------------------------------------------------------
#psi4
#
memory 32 gb

molecule  {
-1 1
  S       -1.5257420     0.0005400     0.0049580
  O       -1.8754660    -0.0921210     1.4513090
  O       -1.9426612     1.3055635    -0.6286736
  O       -1.9322140    -1.2001240    -0.7773890
  C        0.2621030     0.0036010    -0.0456020
  C        0.9554030    -1.2107120    -0.0284930
  C        0.9595290     1.2147240    -0.0278400
  C        2.3511900    -1.2103390     0.0023180
  C        2.3559220     1.2088420     0.0015130
  C        3.0539450    -0.0018320     0.0226760
  H        0.4020620    -2.1452990    -0.0612980
  H        0.4079720     2.1501410    -0.0584560
  H        2.8913160    -2.1541860     0.0103160
  H        2.8995330     2.1507040     0.0084210
  H        4.1409790    -0.0039320     0.0451330
units angstrom
no_reorient  #important for SAPT in psi4, default
symmetry c1  #important for SAPT in psi4, default
}

set PROPERTIES_ORIGIN ["COM"]
properties('MP2/aug-cc-pvtz', properties = ['dipole'])
--------------------------------------------------------------------------

    Molecular point group: c1
  Charge       = -1
  Multiplicity = 1
  Basis Set: AUG-CC-PVTZ
    Blend: AUG-CC-PVTZ
  Basis Set: (AUG-CC-PVTZ AUX)
    Blend: AUG-CC-PVTZ-JKFIT

    Orbital Energies [Eh]
    ---------------------

    Doubly Occupied:

       1A    -92.014413     2A    -20.349735     3A    -20.348802
       4A    -20.348275     5A    -11.136407     6A    -11.132155
       7A    -11.131913     8A    -11.130684     9A    -11.126894
      10A    -11.126120    11A     -8.975268    12A     -6.660956
      13A     -6.660118    14A     -6.660009    15A     -1.263068
      16A     -1.121189    17A     -1.114943    18A     -1.041760
      19A     -0.911748    20A     -0.906259    21A     -0.740385
      22A     -0.716949    23A     -0.646018    24A     -0.584266
      25A     -0.525048    26A     -0.517801    27A     -0.496656
      28A     -0.479275    29A     -0.460366    30A     -0.453461
      31A     -0.411254    32A     -0.395120    33A     -0.385995
      34A     -0.327088    35A     -0.326410    36A     -0.295540
      37A     -0.285028    38A     -0.274842    39A     -0.245185
      40A     -0.228623    41A     -0.218507

  @DF-RHF Final Energy:  -852.43458903764054

   => Energetics <=

    Nuclear Repulsion Energy =            618.4156231529558454
    One-Electron Energy =               -2413.3513648708144501
    Two-Electron Energy =                 942.5011526802179560
    Total Energy =                       -852.4345890376405350
  Basis Set: (AUG-CC-PVTZ AUX)
    Blend: AUG-CC-PVTZ-RI
    Molecular point group: c1

    Geometry (in Angstrom), charge = -1, multiplicity = 1:

       Center              X                  Y                   Z               Mass
    ------------   -----------------  -----------------  -----------------  -----------------
         S           -1.457750898347    -0.001237810703     0.005462646555    31.972071174400
         O           -1.807474898347    -0.093898810703     1.451813646555    15.994914619570
         O           -1.874670098347     1.303785689297    -0.628168953445    15.994914619570
         O           -1.864222898347    -1.201901810703    -0.776884353445    15.994914619570
         C            0.330094101653     0.001823189297    -0.045097353445    12.000000000000
         C            1.023394101653    -1.212489810703    -0.027988353445    12.000000000000
         C            1.027520101653     1.212946189297    -0.027335353445    12.000000000000
         C            2.419181101653    -1.212116810703     0.002822646555    12.000000000000
         C            2.423913101653     1.207064189297     0.002017646555    12.000000000000
         C            3.121936101653    -0.003609810703     0.023180646555    12.000000000000
         H            0.470053101653    -2.147076810703    -0.060793353445     1.007825032230
         H            0.475963101653     2.148363189297    -0.057951353445     1.007825032230
         H            2.959307101653    -2.155963810703     0.010820646555     1.007825032230
         H            2.967524101653     2.148926189297     0.008925646555     1.007825032230
         H            4.208970101653    -0.005709810703     0.045637646555     1.007825032230

  Basis Set: AUG-CC-PVTZ
    Blend: AUG-CC-PVTZ
  Basis Set: (AUG-CC-PVTZ AUX)
    Blend: AUG-CC-PVTZ-JKFIT
	 Reference Energy          =    -852.4345890376405350 [Eh]
	 Singles Energy            =      -0.0000000000000000 [Eh]
	 Same-Spin Energy          =      -0.5393315875929647 [Eh]
	 Opposite-Spin Energy      =      -1.5560904637620596 [Eh]
	 Correlation Energy        =      -2.0954220513550244 [Eh]
	 Total Energy              =    -854.5300110889955931 [Eh]

	 ================> DF-SCS-MP2 Energies <==================
	-----------------------------------------------------------
	 SCS Same-Spin Scale       =       0.3333333333333333 [-]
	 SCS Opposite-Spin Scale   =       1.2000000000000000 [-]
	 SCS Same-Spin Energy      =      -0.1797771958643216 [Eh]
	 SCS Opposite-Spin Energy  =      -1.8673085565144714 [Eh]
	 SCS Correlation Energy    =      -2.0470857523787931 [Eh]
	 SCS Total Energy          =    -854.4816747900193832 [Eh]
	-----------------------------------------------------------

  Dipole Moment: [D]
     X:     8.4551      Y:    -0.0952      Z:    -0.0717     Total:     8.4560

*** Psi4 exiting successfully. Buy a developer a beer!
