                               Psi4 1.3.2 release

  ==> Input File <==

--------------------------------------------------------------------------
#psi4
#
memory 32 gb

molecule  {
-1 1
  S       -1.5500650    -0.0000770     0.0055040
  O       -1.8677260    -0.0040310     1.4568130
  O       -1.8551578     1.3312506    -0.5809109
  O       -1.9179590    -1.2504550    -0.7090990
  C        0.2577020     0.0000600    -0.0380210
  C        0.9598570    -1.2082450    -0.0264560
  C        0.9600990     1.2082480    -0.0266860
  C        2.3556760    -1.2079150     0.0024970
  C        2.3559460     1.2077510     0.0021770
  C        3.0593930    -0.0001220     0.0217850
  H        0.3939800    -2.1354100    -0.0629560
  H        0.3942590     2.1354370    -0.0632640
  H        2.8982100    -2.1524450     0.0063830
  H        2.8986710     2.1521870     0.0058350
  H        4.1480910    -0.0001990     0.0432140
units angstrom
no_reorient  #important for SAPT in psi4, default
symmetry c1  #important for SAPT in psi4, default
}

set PROPERTIES_ORIGIN ["COM"]
properties('MP2/aug-cc-pvtz', properties = ['dipole'])
--------------------------------------------------------------------------

    Molecular point group: c1
  Charge       = -1
  Multiplicity = 1
  Basis Set: AUG-CC-PVTZ
    Blend: AUG-CC-PVTZ
  Basis Set: (AUG-CC-PVTZ AUX)
    Blend: AUG-CC-PVTZ-JKFIT

    Orbital Energies [Eh]
    ---------------------

    Doubly Occupied:

       1A    -92.016137     2A    -20.362563     3A    -20.352484
       4A    -20.344517     5A    -11.131408     6A    -11.127491
       7A    -11.127092     8A    -11.122130     9A    -11.119776
      10A    -11.118759    11A     -8.976852    12A     -6.662617
      13A     -6.661792    14A     -6.661633    15A     -1.272631
      16A     -1.137864    17A     -1.119194    18A     -1.035636
      19A     -0.904530    20A     -0.899793    21A     -0.731230
      22A     -0.711074    23A     -0.641119    24A     -0.582584
      25A     -0.522303    26A     -0.512155    27A     -0.495452
      28A     -0.472719    29A     -0.465071    30A     -0.461880
      31A     -0.408177    32A     -0.389938    33A     -0.378134
      34A     -0.337984    35A     -0.330734    36A     -0.300951
      37A     -0.294676    38A     -0.269500    39A     -0.250243
      40A     -0.223269    41A     -0.213072

  @DF-RHF Final Energy:  -852.43406736352381

   => Energetics <=

    Nuclear Repulsion Energy =            619.7662117416401770
    One-Electron Energy =               -2416.1062333884306099
    Two-Electron Energy =                 943.9059542832665102
    Total Energy =                       -852.4340673635238090
  Basis Set: (AUG-CC-PVTZ AUX)
    Blend: AUG-CC-PVTZ-RI
    Molecular point group: c1

    Geometry (in Angstrom), charge = -1, multiplicity = 1:

       Center              X                  Y                   Z               Mass
    ------------   -----------------  -----------------  -----------------  -----------------
         S           -1.489029582527    -0.007862373348    -0.007210887415    31.972071174400
         O           -1.806690582527    -0.011816373348     1.444098112585    15.994914619570
         O           -1.794122382527     1.323465226652    -0.593625787415    15.994914619570
         O           -1.856923582527    -1.258240373348    -0.721813887415    15.994914619570
         C            0.318737417473    -0.007725373348    -0.050735887415    12.000000000000
         C            1.020892417473    -1.216030373348    -0.039170887415    12.000000000000
         C            1.021134417473     1.200462626652    -0.039400887415    12.000000000000
         C            2.416711417473    -1.215700373348    -0.010217887415    12.000000000000
         C            2.416981417473     1.199965626652    -0.010537887415    12.000000000000
         C            3.120428417473    -0.007907373348     0.009070112585    12.000000000000
         H            0.455015417473    -2.143195373348    -0.075670887415     1.007825032230
         H            0.455294417473     2.127651626652    -0.075978887415     1.007825032230
         H            2.959245417473    -2.160230373348    -0.006331887415     1.007825032230
         H            2.959706417473     2.144401626652    -0.006879887415     1.007825032230
         H            4.209126417473    -0.007984373348     0.030499112585     1.007825032230

  Basis Set: AUG-CC-PVTZ
    Blend: AUG-CC-PVTZ
  Basis Set: (AUG-CC-PVTZ AUX)
    Blend: AUG-CC-PVTZ-JKFIT
	 Reference Energy          =    -852.4340673635238090 [Eh]
	 Singles Energy            =      -0.0000000000000000 [Eh]
	 Same-Spin Energy          =      -0.5393333063109592 [Eh]
	 Opposite-Spin Energy      =      -1.5557014084332246 [Eh]
	 Correlation Energy        =      -2.0950347147441839 [Eh]
	 Total Energy              =    -854.5291020782680107 [Eh]

	 ================> DF-SCS-MP2 Energies <==================
	-----------------------------------------------------------
	 SCS Same-Spin Scale       =       0.3333333333333333 [-]
	 SCS Opposite-Spin Scale   =       1.2000000000000000 [-]
	 SCS Same-Spin Energy      =      -0.1797777687703197 [Eh]
	 SCS Opposite-Spin Energy  =      -1.8668416901198694 [Eh]
	 SCS Correlation Energy    =      -2.0466194588901891 [Eh]
	 SCS Total Energy          =    -854.4806868224139862 [Eh]
	-----------------------------------------------------------

  Dipole Moment: [D]
     X:     7.7450      Y:    -0.1617      Z:    -0.4030     Total:     7.7572

*** Psi4 exiting successfully. Buy a developer a beer!
