                               Psi4 1.4a3.dev225

  ==> Input File <==

--------------------------------------------------------------------------
#psi4
#
memory 32 gb

molecule  {
-1 1
  S       -1.5257420     0.0005400     0.0049580
  O       -1.8754660    -0.0921210     1.4513090
  O       -1.9371370     1.2882720    -0.6202780
  O       -1.9322140    -1.2001240    -0.7773890
  C        0.2820950     0.0036352    -0.0461674
  C        0.9554030    -1.2107120    -0.0284930
  C        0.9595290     1.2147240    -0.0278400
  C        2.3511900    -1.2103390     0.0023180
  C        2.3559220     1.2088420     0.0015130
  C        3.0539450    -0.0018320     0.0226760
  H        0.4020620    -2.1452990    -0.0612980
  H        0.4079720     2.1501410    -0.0584560
  H        2.8913160    -2.1541860     0.0103160
  H        2.8995330     2.1507040     0.0084210
  H        4.1409790    -0.0039320     0.0451330
units angstrom
no_reorient  #important for SAPT in psi4, default
symmetry c1  #important for SAPT in psi4, default
}

set PROPERTIES_ORIGIN ["COM"]
properties('MP2/aug-cc-pvtz', properties = ['dipole'])
--------------------------------------------------------------------------

    Molecular point group: c1
  Charge       = -1
  Multiplicity = 1
  Basis Set: AUG-CC-PVTZ
    Blend: AUG-CC-PVTZ
  Basis Set: (AUG-CC-PVTZ AUX)
    Blend: AUG-CC-PVTZ-JKFIT

    Orbital Energies [Eh]
    ---------------------

    Doubly Occupied:

       1A    -92.012386     2A    -20.348470     3A    -20.348038
       4A    -20.347050     5A    -11.135333     6A    -11.131602
       7A    -11.131397     8A    -11.128286     9A    -11.124701
      10A    -11.124183    11A     -8.973303    12A     -6.658948
      13A     -6.658214    14A     -6.658096    15A     -1.265971
      16A     -1.121740    17A     -1.118975    18A     -1.042976
      19A     -0.911080    20A     -0.906646    21A     -0.736248
      22A     -0.717679    23A     -0.644387    24A     -0.583926
      25A     -0.524037    26A     -0.517982    27A     -0.496585
      28A     -0.479738    29A     -0.460898    30A     -0.454540
      31A     -0.410420    32A     -0.395908    33A     -0.387971
      34A     -0.328155    35A     -0.327718    36A     -0.294838
      37A     -0.286776    38A     -0.271558    39A     -0.244893
      40A     -0.228345    41A     -0.219283

  @DF-RHF Final Energy:  -852.43707754615093

   => Energetics <=

    Nuclear Repulsion Energy =            619.2183152841678293
    One-Electron Energy =               -2414.9922282210550293
    Two-Electron Energy =                 943.3368353907362689
    Total Energy =                       -852.4370775461509311
  Basis Set: (AUG-CC-PVTZ AUX)
    Blend: AUG-CC-PVTZ-RI
    Molecular point group: c1

    Geometry (in Angstrom), charge = -1, multiplicity = 1:

       Center              X                  Y                   Z               Mass
    ------------   -----------------  -----------------  -----------------  -----------------
         S           -1.459841800233     0.000521251766     0.004650510235    31.972071174400
         O           -1.809565800233    -0.092139748234     1.451001510235    15.994914619570
         O           -1.871236800233     1.288253251766    -0.620585489765    15.994914619570
         O           -1.866313800233    -1.200142748234    -0.777696489765    15.994914619570
         C            0.347995199767     0.003616451766    -0.046474889765    12.000000000000
         C            1.021303199767    -1.210730748234    -0.028800489765    12.000000000000
         C            1.025429199767     1.214705251766    -0.028147489765    12.000000000000
         C            2.417090199767    -1.210357748234     0.002010510235    12.000000000000
         C            2.421822199767     1.208823251766     0.001205510235    12.000000000000
         C            3.119845199767    -0.001850748234     0.022368510235    12.000000000000
         H            0.467962199767    -2.145317748234    -0.061605489765     1.007825032230
         H            0.473872199767     2.150122251766    -0.058763489765     1.007825032230
         H            2.957216199767    -2.154204748234     0.010008510235     1.007825032230
         H            2.965433199767     2.150685251766     0.008113510235     1.007825032230
         H            4.206879199767    -0.003950748234     0.044825510235     1.007825032230

  Basis Set: AUG-CC-PVTZ
    Blend: AUG-CC-PVTZ
  Basis Set: (AUG-CC-PVTZ AUX)
    Blend: AUG-CC-PVTZ-JKFIT
	 Reference Energy          =    -852.4370775461509311 [Eh]
	 Singles Energy            =      -0.0000000000000000 [Eh]
	 Same-Spin Energy          =      -0.5389268462413319 [Eh]
	 Opposite-Spin Energy      =      -1.5549727601052852 [Eh]
	 Correlation Energy        =      -2.0938996063466169 [Eh]
	 Total Energy              =    -854.5309771524975986 [Eh]

	 ================> DF-SCS-MP2 Energies <==================
	-----------------------------------------------------------
	 SCS Same-Spin Scale       =       0.3333333333333333 [-]
	 SCS Opposite-Spin Scale   =       1.2000000000000000 [-]
	 SCS Same-Spin Energy      =      -0.1796422820804440 [Eh]
	 SCS Opposite-Spin Energy  =      -1.8659673121263420 [Eh]
	 SCS Correlation Energy    =      -2.0456095942067858 [Eh]
	 SCS Total Energy          =    -854.4826871403577115 [Eh]
	-----------------------------------------------------------

  Dipole Moment: [D]
     X:     8.3899      Y:     0.0081      Z:    -0.1276     Total:     8.3909

*** Psi4 exiting successfully. Buy a developer a beer!
