                               Psi4 1.3.2 release

  ==> Input File <==

--------------------------------------------------------------------------
#psi4
#
memory 32 gb

molecule  {
-1 1
  S       -1.5500650    -0.0000770     0.0055040
  O       -1.8677260    -0.0040310     1.4568130
  O       -1.9424172     1.2493605    -0.6976055
  O       -1.9179590    -1.2504550    -0.7090990
  C        0.2577020     0.0000600    -0.0380210
  C        0.9598570    -1.2082450    -0.0264560
  C        0.9600990     1.2082480    -0.0266860
  C        2.3556760    -1.2079150     0.0024970
  C        2.3559460     1.2077510     0.0021770
  C        3.0593930    -0.0001220     0.0217850
  H        0.3939800    -2.1354100    -0.0629560
  H        0.3942590     2.1354370    -0.0632640
  H        2.8982100    -2.1524450     0.0063830
  H        2.8986710     2.1521870     0.0058350
  H        4.1480910    -0.0001990     0.0432140
units angstrom
no_reorient  #important for SAPT in psi4, default
symmetry c1  #important for SAPT in psi4, default
}

set PROPERTIES_ORIGIN ["COM"]
properties('MP2/aug-cc-pvtz', properties = ['dipole'])
--------------------------------------------------------------------------

    Molecular point group: c1
  Charge       = -1
  Multiplicity = 1
  Basis Set: AUG-CC-PVTZ
    Blend: AUG-CC-PVTZ
  Basis Set: (AUG-CC-PVTZ AUX)
    Blend: AUG-CC-PVTZ-JKFIT

    Orbital Energies [Eh]
    ---------------------

    Doubly Occupied:

       1A    -92.015013     2A    -20.351963     3A    -20.351444
       4A    -20.350334     5A    -11.133614     6A    -11.129768
       7A    -11.129569     8A    -11.126140     9A    -11.122422
      10A    -11.122213    11A     -8.975765    12A     -6.661481
      13A     -6.660703    14A     -6.660601    15A     -1.270992
      16A     -1.127119    17A     -1.125208    18A     -1.038285
      19A     -0.907431    20A     -0.902346    21A     -0.733728
      22A     -0.713718    23A     -0.642552    24A     -0.582955
      25A     -0.523689    26A     -0.514433    27A     -0.496292
      28A     -0.475062    29A     -0.464545    30A     -0.458609
      31A     -0.410809    32A     -0.392671    33A     -0.380663
      34A     -0.332398    35A     -0.331768    36A     -0.299347
      37A     -0.291434    38A     -0.272055    39A     -0.249283
      40A     -0.225632    41A     -0.215802

  @DF-RHF Final Energy:  -852.43801272739529

   => Energetics <=

    Nuclear Repulsion Energy =            618.9136081841380701
    One-Electron Energy =               -2414.3635272120068294
    Two-Electron Energy =                 943.0119063004735835
    Total Energy =                       -852.4380127273952894
  Basis Set: (AUG-CC-PVTZ AUX)
    Blend: AUG-CC-PVTZ-RI
    Molecular point group: c1

    Geometry (in Angstrom), charge = -1, multiplicity = 1:

       Center              X                  Y                   Z               Mass
    ------------   -----------------  -----------------  -----------------  -----------------
         S           -1.480139501350     0.000480677791     0.004678083480    31.972071174400
         O           -1.797800501350    -0.003473322209     1.455987083480    15.994914619570
         O           -1.872491701350     1.249918177791    -0.698431416520    15.994914619570
         O           -1.848033501350    -1.249897322209    -0.709924916520    15.994914619570
         C            0.327627498650     0.000617677791    -0.038846916520    12.000000000000
         C            1.029782498650    -1.207687322209    -0.027281916520    12.000000000000
         C            1.030024498650     1.208805677791    -0.027511916520    12.000000000000
         C            2.425601498650    -1.207357322209     0.001671083480    12.000000000000
         C            2.425871498650     1.208308677791     0.001351083480    12.000000000000
         C            3.129318498650     0.000435677791     0.020959083480    12.000000000000
         H            0.463905498650    -2.134852322209    -0.063781916520     1.007825032230
         H            0.464184498650     2.135994677791    -0.064089916520     1.007825032230
         H            2.968135498650    -2.151887322209     0.005557083480     1.007825032230
         H            2.968596498650     2.152744677791     0.005009083480     1.007825032230
         H            4.218016498650     0.000358677791     0.042388083480     1.007825032230

  Basis Set: AUG-CC-PVTZ
    Blend: AUG-CC-PVTZ
  Basis Set: (AUG-CC-PVTZ AUX)
    Blend: AUG-CC-PVTZ-JKFIT
	 Reference Energy          =    -852.4380127273952894 [Eh]
	 Singles Energy            =      -0.0000000000000000 [Eh]
	 Same-Spin Energy          =      -0.5388988997246452 [Eh]
	 Opposite-Spin Energy      =      -1.5550289518445490 [Eh]
	 Correlation Energy        =      -2.0939278515691941 [Eh]
	 Total Energy              =    -854.5319405789645089 [Eh]

	 ================> DF-SCS-MP2 Energies <==================
	-----------------------------------------------------------
	 SCS Same-Spin Scale       =       0.3333333333333333 [-]
	 SCS Opposite-Spin Scale   =       1.2000000000000000 [-]
	 SCS Same-Spin Energy      =      -0.1796329665748817 [Eh]
	 SCS Opposite-Spin Energy  =      -1.8660347422134587 [Eh]
	 SCS Correlation Energy    =      -2.0456677087883404 [Eh]
	 SCS Total Energy          =    -854.4836804361835902 [Eh]
	-----------------------------------------------------------

  Dipole Moment: [D]
     X:     8.0369      Y:     0.0061      Z:    -0.1178     Total:     8.0378

*** Psi4 exiting successfully. Buy a developer a beer!
