                               Psi4 1.3.2 release

  ==> Input File <==

--------------------------------------------------------------------------
#psi4
#
memory 32 gb

molecule  {
-1 1
  S       -1.5500650    -0.0000770     0.0055040
  O       -1.8677260    -0.0040310     1.4568130
  O       -1.8926329     1.1704332    -0.6537907
  O       -1.9179590    -1.2504550    -0.7090990
  C        0.2577020     0.0000600    -0.0380210
  C        0.9598570    -1.2082450    -0.0264560
  C        0.9600990     1.2082480    -0.0266860
  C        2.3556760    -1.2079150     0.0024970
  C        2.3559460     1.2077510     0.0021770
  C        3.0593930    -0.0001220     0.0217850
  H        0.3939800    -2.1354100    -0.0629560
  H        0.3942590     2.1354370    -0.0632640
  H        2.8982100    -2.1524450     0.0063830
  H        2.8986710     2.1521870     0.0058350
  H        4.1480910    -0.0001990     0.0432140
units angstrom
no_reorient  #important for SAPT in psi4, default
symmetry c1  #important for SAPT in psi4, default
}

set PROPERTIES_ORIGIN ["COM"]
properties('MP2/aug-cc-pvtz', properties = ['dipole'])
--------------------------------------------------------------------------

    Molecular point group: c1
  Charge       = -1
  Multiplicity = 1
  Basis Set: AUG-CC-PVTZ
    Blend: AUG-CC-PVTZ
  Basis Set: (AUG-CC-PVTZ AUX)
    Blend: AUG-CC-PVTZ-JKFIT

    Orbital Energies [Eh]
    ---------------------

    Doubly Occupied:

       1A    -92.002979     2A    -20.353472     3A    -20.343196
       4A    -20.342018     5A    -11.130233     6A    -11.127178
       7A    -11.126420     8A    -11.119664     9A    -11.118518
      10A    -11.117224    11A     -8.966267    12A     -6.652262
      13A     -6.651580    14A     -6.650792    15A     -1.302533
      16A     -1.152287    17A     -1.119740    18A     -1.034727
      19A     -0.903476    20A     -0.899062    21A     -0.728689
      22A     -0.710361    23A     -0.636619    24A     -0.580882
      25A     -0.525478    26A     -0.511427    27A     -0.497890
      28A     -0.474565    29A     -0.471969    30A     -0.467105
      31A     -0.409934    32A     -0.390140    33A     -0.377572
      34A     -0.340515    35A     -0.339993    36A     -0.306177
      37A     -0.292610    38A     -0.268841    39A     -0.247791
      40A     -0.222755    41A     -0.211615

  @DF-RHF Final Energy:  -852.43720848427733

   => Energetics <=

    Nuclear Repulsion Energy =            624.0632374462480811
    One-Electron Energy =               -2424.7477710359321463
    Two-Electron Energy =                 948.2473251054068442
    Total Energy =                       -852.4372084842773347
  Basis Set: (AUG-CC-PVTZ AUX)
    Blend: AUG-CC-PVTZ-RI
    Molecular point group: c1

    Geometry (in Angstrom), charge = -1, multiplicity = 1:

       Center              X                  Y                   Z               Mass
    ------------   -----------------  -----------------  -----------------  -----------------
         S           -1.485211579181     0.008521875691     0.000214184705    31.972071174400
         O           -1.802872579181     0.004567875691     1.451523184705    15.994914619570
         O           -1.827779479181     1.179032075691    -0.659080515295    15.994914619570
         O           -1.853105579181    -1.241856124309    -0.714388815295    15.994914619570
         C            0.322555420819     0.008658875691    -0.043310815295    12.000000000000
         C            1.024710420819    -1.199646124309    -0.031745815295    12.000000000000
         C            1.024952420819     1.216846875691    -0.031975815295    12.000000000000
         C            2.420529420819    -1.199316124309    -0.002792815295    12.000000000000
         C            2.420799420819     1.216349875691    -0.003112815295    12.000000000000
         C            3.124246420819     0.008476875691     0.016495184705    12.000000000000
         H            0.458833420819    -2.126811124309    -0.068245815295     1.007825032230
         H            0.459112420819     2.144035875691    -0.068553815295     1.007825032230
         H            2.963063420819    -2.143846124309     0.001093184705     1.007825032230
         H            2.963524420819     2.160785875691     0.000545184705     1.007825032230
         H            4.212944420819     0.008399875691     0.037924184705     1.007825032230

  Basis Set: AUG-CC-PVTZ
    Blend: AUG-CC-PVTZ
  Basis Set: (AUG-CC-PVTZ AUX)
    Blend: AUG-CC-PVTZ-JKFIT
	 Reference Energy          =    -852.4372084842773347 [Eh]
	 Singles Energy            =      -0.0000000000000000 [Eh]
	 Same-Spin Energy          =      -0.5368333528001301 [Eh]
	 Opposite-Spin Energy      =      -1.5497036516462193 [Eh]
	 Correlation Energy        =      -2.0865370044463494 [Eh]
	 Total Energy              =    -854.5237454887236481 [Eh]

	 ================> DF-SCS-MP2 Energies <==================
	-----------------------------------------------------------
	 SCS Same-Spin Scale       =       0.3333333333333333 [-]
	 SCS Opposite-Spin Scale   =       1.2000000000000000 [-]
	 SCS Same-Spin Energy      =      -0.1789444509333767 [Eh]
	 SCS Opposite-Spin Energy  =      -1.8596443819754631 [Eh]
	 SCS Correlation Energy    =      -2.0385888329088400 [Eh]
	 SCS Total Energy          =    -854.4757973171862204 [Eh]
	-----------------------------------------------------------

  Dipole Moment: [D]
     X:     7.6608      Y:     0.4906      Z:    -0.4043     Total:     7.6872

*** Psi4 exiting successfully. Buy a developer a beer!
