                               Psi4 1.3.2 release

  ==> Input File <==

--------------------------------------------------------------------------
#psi4
#
memory 32 gb

molecule  {
-1 1
  S       -1.5400404    -0.1890417     0.0097149
  O       -1.8677260    -0.0040310     1.4568130
  O       -1.9173420     1.2548610    -0.7013450
  O       -1.9179590    -1.2504550    -0.7090990
  C        0.2577020     0.0000600    -0.0380210
  C        0.9598570    -1.2082450    -0.0264560
  C        0.9600990     1.2082480    -0.0266860
  C        2.3556760    -1.2079150     0.0024970
  C        2.3559460     1.2077510     0.0021770
  C        3.0593930    -0.0001220     0.0217850
  H        0.3939800    -2.1354100    -0.0629560
  H        0.3942590     2.1354370    -0.0632640
  H        2.8982100    -2.1524450     0.0063830
  H        2.8986710     2.1521870     0.0058350
  H        4.1480910    -0.0001990     0.0432140
units angstrom
no_reorient  #important for SAPT in psi4, default
symmetry c1  #important for SAPT in psi4, default
}

set PROPERTIES_ORIGIN ["COM"]
properties('MP2/aug-cc-pvtz', properties = ['dipole'])
--------------------------------------------------------------------------

    Molecular point group: c1
  Charge       = -1
  Multiplicity = 1
  Basis Set: AUG-CC-PVTZ
    Blend: AUG-CC-PVTZ
  Basis Set: (AUG-CC-PVTZ AUX)
    Blend: AUG-CC-PVTZ-JKFIT

    Orbital Energies [Eh]
    ---------------------

    Doubly Occupied:

       1A    -92.007608     2A    -20.391822     3A    -20.352049
       4A    -20.311139     5A    -11.133464     6A    -11.129927
       7A    -11.129157     8A    -11.126682     9A    -11.122649
      10A    -11.121692    11A     -8.973085    12A     -6.659321
      13A     -6.657843    14A     -6.656702    15A     -1.333707
      16A     -1.160489    17A     -1.044069    18A     -1.033603
      19A     -0.908696    20A     -0.901102    21A     -0.735735
      22A     -0.712924    23A     -0.644473    24A     -0.586493
      25A     -0.534890    26A     -0.516919    27A     -0.501352
      28A     -0.489136    29A     -0.475874    30A     -0.471316
      31A     -0.416390    32A     -0.394532    33A     -0.381350
      34A     -0.349553    35A     -0.332542    36A     -0.312704
      37A     -0.260542    38A     -0.241220    39A     -0.226626
      40A     -0.224879    41A     -0.209680

  @DF-RHF Final Energy:  -852.38138986346507

   => Energetics <=

    Nuclear Repulsion Energy =            619.5012849154716150
    One-Electron Energy =               -2415.4174803341925326
    Two-Electron Energy =                 943.5348055552558435
    Total Energy =                       -852.3813898634650741
  Basis Set: (AUG-CC-PVTZ AUX)
    Blend: AUG-CC-PVTZ-RI
    Molecular point group: c1

    Geometry (in Angstrom), charge = -1, multiplicity = 1:

       Center              X                  Y                   Z               Mass
    ------------   -----------------  -----------------  -----------------  -----------------
         S           -1.474711089677    -0.150561940895     0.008412422040    31.972071174400
         O           -1.802396689677     0.034448759105     1.455510522040    15.994914619570
         O           -1.852012689677     1.293340759105    -0.702647477960    15.994914619570
         O           -1.852629689677    -1.211975240895    -0.710401477960    15.994914619570
         C            0.323031310323     0.038539759105    -0.039323477960    12.000000000000
         C            1.025186310323    -1.169765240895    -0.027758477960    12.000000000000
         C            1.025428310323     1.246727759105    -0.027988477960    12.000000000000
         C            2.421005310323    -1.169435240895     0.001194522040    12.000000000000
         C            2.421275310323     1.246230759105     0.000874522040    12.000000000000
         C            3.124722310323     0.038357759105     0.020482522040    12.000000000000
         H            0.459309310323    -2.096930240895    -0.064258477960     1.007825032230
         H            0.459588310323     2.173916759105    -0.064566477960     1.007825032230
         H            2.963539310323    -2.113965240895     0.005080522040     1.007825032230
         H            2.964000310323     2.190666759105     0.004532522040     1.007825032230
         H            4.213420310323     0.038280759105     0.041911522040     1.007825032230

  Basis Set: AUG-CC-PVTZ
    Blend: AUG-CC-PVTZ
  Basis Set: (AUG-CC-PVTZ AUX)
    Blend: AUG-CC-PVTZ-JKFIT
	 Reference Energy          =    -852.3813898634650741 [Eh]
	 Singles Energy            =      -0.0000000000000000 [Eh]
	 Same-Spin Energy          =      -0.5389034158886565 [Eh]
	 Opposite-Spin Energy      =      -1.5563983240321491 [Eh]
	 Correlation Energy        =      -2.0953017399208056 [Eh]
	 Total Energy              =    -854.4766916033859161 [Eh]

	 ================> DF-SCS-MP2 Energies <==================
	-----------------------------------------------------------
	 SCS Same-Spin Scale       =       0.3333333333333333 [-]
	 SCS Opposite-Spin Scale   =       1.2000000000000000 [-]
	 SCS Same-Spin Energy      =      -0.1796344719628855 [Eh]
	 SCS Opposite-Spin Energy  =      -1.8676779888385788 [Eh]
	 SCS Correlation Energy    =      -2.0473124608014643 [Eh]
	 SCS Total Energy          =    -854.4287023242665100 [Eh]
	-----------------------------------------------------------

  Dipole Moment: [D]
     X:     8.1224      Y:    -1.9797      Z:     0.0076     Total:     8.3601

*** Psi4 exiting successfully. Buy a developer a beer!
