                               Psi4 1.3.2 release

  ==> Input File <==

--------------------------------------------------------------------------
#psi4
#
memory 32 gb

molecule  {
-1 1
  S       -1.5500650    -0.0000770     0.0055040
  O       -1.8677260    -0.0040310     1.4568130
  O       -1.9273326     1.2407678    -0.7206989
  O       -1.9179590    -1.2504550    -0.7090990
  C        0.2577020     0.0000600    -0.0380210
  C        0.9598570    -1.2082450    -0.0264560
  C        0.9600990     1.2082480    -0.0266860
  C        2.3556760    -1.2079150     0.0024970
  C        2.3559460     1.2077510     0.0021770
  C        3.0593930    -0.0001220     0.0217850
  H        0.3939800    -2.1354100    -0.0629560
  H        0.3942590     2.1354370    -0.0632640
  H        2.8982100    -2.1524450     0.0063830
  H        2.8986710     2.1521870     0.0058350
  H        4.1480910    -0.0001990     0.0432140
units angstrom
no_reorient  #important for SAPT in psi4, default
symmetry c1  #important for SAPT in psi4, default
}

set PROPERTIES_ORIGIN ["COM"]
properties('MP2/aug-cc-pvtz', properties = ['dipole'])
--------------------------------------------------------------------------

    Molecular point group: c1
  Charge       = -1
  Multiplicity = 1
  Basis Set: AUG-CC-PVTZ
    Blend: AUG-CC-PVTZ
  Basis Set: (AUG-CC-PVTZ AUX)
    Blend: AUG-CC-PVTZ-JKFIT

    Orbital Energies [Eh]
    ---------------------

    Doubly Occupied:

       1A    -92.015276     2A    -20.352340     3A    -20.352189
       4A    -20.350622     5A    -11.133193     6A    -11.129402
       7A    -11.129195     8A    -11.125463     9A    -11.121949
      10A    -11.121699    11A     -8.976009    12A     -6.661728
      13A     -6.660961    14A     -6.660830    15A     -1.271269
      16A     -1.127379    17A     -1.126052    18A     -1.037842
      19A     -0.906945    20A     -0.901936    21A     -0.733281
      22A     -0.713300    23A     -0.642328    24A     -0.582778
      25A     -0.523635    26A     -0.514031    27A     -0.496066
      28A     -0.474679    29A     -0.465358    30A     -0.458492
      31A     -0.410514    32A     -0.392375    33A     -0.380266
      34A     -0.332845    35A     -0.332047    36A     -0.300562
      37A     -0.291106    38A     -0.271674    39A     -0.249864
      40A     -0.225246    41A     -0.215465

  @DF-RHF Final Energy:  -852.43780958914203

   => Energetics <=

    Nuclear Repulsion Energy =            619.0199773060303414
    One-Electron Energy =               -2414.5791963460455918
    Two-Electron Energy =                 943.1214094508732160
    Total Energy =                       -852.4378095891420344
  Basis Set: (AUG-CC-PVTZ AUX)
    Blend: AUG-CC-PVTZ-RI
    Molecular point group: c1

    Geometry (in Angstrom), charge = -1, multiplicity = 1:

       Center              X                  Y                   Z               Mass
    ------------   -----------------  -----------------  -----------------  -----------------
         S           -1.481676336562     0.001356111275     0.007030863818    31.972071174400
         O           -1.799337336562    -0.002597888725     1.458339863818    15.994914619570
         O           -1.858943936562     1.242200911275    -0.719172036182    15.994914619570
         O           -1.849570336562    -1.249021888725    -0.707572136182    15.994914619570
         C            0.326090663438     0.001493111275    -0.036494136182    12.000000000000
         C            1.028245663438    -1.206811888725    -0.024929136182    12.000000000000
         C            1.028487663438     1.209681111275    -0.025159136182    12.000000000000
         C            2.424064663438    -1.206481888725     0.004023863818    12.000000000000
         C            2.424334663438     1.209184111275     0.003703863818    12.000000000000
         C            3.127781663438     0.001311111275     0.023311863818    12.000000000000
         H            0.462368663438    -2.133976888725    -0.061429136182     1.007825032230
         H            0.462647663438     2.136870111275    -0.061737136182     1.007825032230
         H            2.966598663438    -2.151011888725     0.007909863818     1.007825032230
         H            2.967059663438     2.153620111275     0.007361863818     1.007825032230
         H            4.216479663438     0.001234111275     0.044740863818     1.007825032230

  Basis Set: AUG-CC-PVTZ
    Blend: AUG-CC-PVTZ
  Basis Set: (AUG-CC-PVTZ AUX)
    Blend: AUG-CC-PVTZ-JKFIT
	 Reference Energy          =    -852.4378095891420344 [Eh]
	 Singles Energy            =      -0.0000000000000000 [Eh]
	 Same-Spin Energy          =      -0.5389434482239608 [Eh]
	 Opposite-Spin Energy      =      -1.5551201985223941 [Eh]
	 Correlation Energy        =      -2.0940636467463549 [Eh]
	 Total Energy              =    -854.5318732358883835 [Eh]

	 ================> DF-SCS-MP2 Energies <==================
	-----------------------------------------------------------
	 SCS Same-Spin Scale       =       0.3333333333333333 [-]
	 SCS Opposite-Spin Scale   =       1.2000000000000000 [-]
	 SCS Same-Spin Energy      =      -0.1796478160746536 [Eh]
	 SCS Opposite-Spin Energy  =      -1.8661442382268729 [Eh]
	 SCS Correlation Energy    =      -2.0457920543015264 [Eh]
	 SCS Total Energy          =    -854.4836016434435351 [Eh]
	-----------------------------------------------------------

  Dipole Moment: [D]
     X:     7.9859      Y:     0.0283      Z:    -0.0633     Total:     7.9862

*** Psi4 exiting successfully. Buy a developer a beer!
