                               Psi4 1.3.2 release

  ==> Input File <==

--------------------------------------------------------------------------
#psi4
#
memory 32 gb

molecule  {
-1 1
  S       -1.5500650    -0.0000770     0.0055040
  O       -1.8677260    -0.0040310     1.4568130
  O       -1.9420511     1.3392888    -0.7488993
  O       -1.9179590    -1.2504550    -0.7090990
  C        0.2577020     0.0000600    -0.0380210
  C        0.9598570    -1.2082450    -0.0264560
  C        0.9600990     1.2082480    -0.0266860
  C        2.3556760    -1.2079150     0.0024970
  C        2.3559460     1.2077510     0.0021770
  C        3.0593930    -0.0001220     0.0217850
  H        0.3939800    -2.1354100    -0.0629560
  H        0.3942590     2.1354370    -0.0632640
  H        2.8982100    -2.1524450     0.0063830
  H        2.8986710     2.1521870     0.0058350
  H        4.1480910    -0.0001990     0.0432140
units angstrom
no_reorient  #important for SAPT in psi4, default
symmetry c1  #important for SAPT in psi4, default
}

set PROPERTIES_ORIGIN ["COM"]
properties('MP2/aug-cc-pvtz', properties = ['dipole'])
--------------------------------------------------------------------------

    Molecular point group: c1
  Charge       = -1
  Multiplicity = 1
  Basis Set: AUG-CC-PVTZ
    Blend: AUG-CC-PVTZ
  Basis Set: (AUG-CC-PVTZ AUX)
    Blend: AUG-CC-PVTZ-JKFIT

    Orbital Energies [Eh]
    ---------------------

    Doubly Occupied:

       1A    -92.022580     2A    -20.360422     3A    -20.359302
       4A    -20.351969     5A    -11.135449     6A    -11.131396
       7A    -11.130755     8A    -11.130089     9A    -11.125188
      10A    -11.123722    11A     -8.982826    12A     -6.668431
      13A     -6.667630    14A     -6.667164    15A     -1.259112
      16A     -1.132629    17A     -1.093313    18A     -1.040015
      19A     -0.909554    20A     -0.903991    21A     -0.737442
      22A     -0.715460    23A     -0.647644    24A     -0.584899
      25A     -0.524096    26A     -0.516319    27A     -0.495186
      28A     -0.476546    29A     -0.461425    30A     -0.454229
      31A     -0.411609    32A     -0.393908    33A     -0.382241
      34A     -0.327450    35A     -0.325533    36A     -0.301761
      37A     -0.282224    38A     -0.270326    39A     -0.250479
      40A     -0.227044    41A     -0.218203

  @DF-RHF Final Energy:  -852.42065413783132

   => Energetics <=

    Nuclear Repulsion Energy =            614.6270067275788733
    One-Electron Energy =               -2405.6962024425602067
    Two-Electron Energy =                 938.6485415771500129
    Total Energy =                       -852.4206541378313204
  Basis Set: (AUG-CC-PVTZ AUX)
    Blend: AUG-CC-PVTZ-RI
    Molecular point group: c1

    Geometry (in Angstrom), charge = -1, multiplicity = 1:

       Center              X                  Y                   Z               Mass
    ------------   -----------------  -----------------  -----------------  -----------------
         S           -1.480176800010    -0.008681313778     0.009903950789    31.972071174400
         O           -1.797837800010    -0.012635313778     1.461212950789    15.994914619570
         O           -1.872162900010     1.330684486222    -0.744499349211    15.994914619570
         O           -1.848070800010    -1.259059313778    -0.704699049211    15.994914619570
         C            0.327590199990    -0.008544313778    -0.033621049211    12.000000000000
         C            1.029745199990    -1.216849313778    -0.022056049211    12.000000000000
         C            1.029987199990     1.199643686222    -0.022286049211    12.000000000000
         C            2.425564199990    -1.216519313778     0.006896950789    12.000000000000
         C            2.425834199990     1.199146686222     0.006576950789    12.000000000000
         C            3.129281199990    -0.008726313778     0.026184950789    12.000000000000
         H            0.463868199990    -2.144014313778    -0.058556049211     1.007825032230
         H            0.464147199990     2.126832686222    -0.058864049211     1.007825032230
         H            2.968098199990    -2.161049313778     0.010782950789     1.007825032230
         H            2.968559199990     2.143582686222     0.010234950789     1.007825032230
         H            4.217979199990    -0.008803313778     0.047613950789     1.007825032230

  Basis Set: AUG-CC-PVTZ
    Blend: AUG-CC-PVTZ
  Basis Set: (AUG-CC-PVTZ AUX)
    Blend: AUG-CC-PVTZ-JKFIT
	 Reference Energy          =    -852.4206541378313204 [Eh]
	 Singles Energy            =      -0.0000000000000000 [Eh]
	 Same-Spin Energy          =      -0.5406566352991420 [Eh]
	 Opposite-Spin Energy      =      -1.5600920037523316 [Eh]
	 Correlation Energy        =      -2.1007486390514734 [Eh]
	 Total Energy              =    -854.5214027768828373 [Eh]

	 ================> DF-SCS-MP2 Energies <==================
	-----------------------------------------------------------
	 SCS Same-Spin Scale       =       0.3333333333333333 [-]
	 SCS Opposite-Spin Scale   =       1.2000000000000000 [-]
	 SCS Same-Spin Energy      =      -0.1802188784330473 [Eh]
	 SCS Opposite-Spin Energy  =      -1.8721104045027979 [Eh]
	 SCS Correlation Energy    =      -2.0523292829358453 [Eh]
	 SCS Total Energy          =    -854.4729834207671502 [Eh]
	-----------------------------------------------------------

  Dipole Moment: [D]
     X:     8.2472      Y:    -0.4994      Z:     0.1855     Total:     8.2644

*** Psi4 exiting successfully. Buy a developer a beer!
