                               Psi4 1.3.2 release

  ==> Input File <==

--------------------------------------------------------------------------
#psi4
#
memory 32 gb

molecule  {
-1 1
  S       -1.5457424     0.1260284     0.0024287
  O       -1.8677260    -0.0040310     1.4568130
  O       -1.9173420     1.2548610    -0.7013450
  O       -1.9179590    -1.2504550    -0.7090990
  C        0.2577020     0.0000600    -0.0380210
  C        0.9598570    -1.2082450    -0.0264560
  C        0.9600990     1.2082480    -0.0266860
  C        2.3556760    -1.2079150     0.0024970
  C        2.3559460     1.2077510     0.0021770
  C        3.0593930    -0.0001220     0.0217850
  H        0.3939800    -2.1354100    -0.0629560
  H        0.3942590     2.1354370    -0.0632640
  H        2.8982100    -2.1524450     0.0063830
  H        2.8986710     2.1521870     0.0058350
  H        4.1480910    -0.0001990     0.0432140
units angstrom
no_reorient  #important for SAPT in psi4, default
symmetry c1  #important for SAPT in psi4, default
}

set PROPERTIES_ORIGIN ["COM"]
properties('MP2/aug-cc-pvtz', properties = ['dipole'])
--------------------------------------------------------------------------

    Molecular point group: c1
  Charge       = -1
  Multiplicity = 1
  Basis Set: AUG-CC-PVTZ
    Blend: AUG-CC-PVTZ
  Basis Set: (AUG-CC-PVTZ AUX)
    Blend: AUG-CC-PVTZ-JKFIT

    Orbital Energies [Eh]
    ---------------------

    Doubly Occupied:

       1A    -92.011671     2A    -20.379947     3A    -20.350226
       4A    -20.325370     5A    -11.133160     6A    -11.129534
       7A    -11.128988     8A    -11.125742     9A    -11.122109
      10A    -11.121476    11A     -8.974593    12A     -6.660407
      13A     -6.659742    14A     -6.658721    15A     -1.303620
      16A     -1.154812    17A     -1.071433    18A     -1.037452
      19A     -0.907593    20A     -0.901364    21A     -0.734226
      22A     -0.712963    23A     -0.643208    24A     -0.584431
      25A     -0.528640    26A     -0.515040    27A     -0.499219
      28A     -0.476927    29A     -0.474536    30A     -0.464786
      31A     -0.412951    32A     -0.393314    33A     -0.380599
      34A     -0.342630    35A     -0.331768    36A     -0.311557
      37A     -0.273690    38A     -0.255209    39A     -0.237441
      40A     -0.225417    41A     -0.213240

  @DF-RHF Final Energy:  -852.41269200642034

   => Energetics <=

    Nuclear Repulsion Energy =            619.2967204748964605
    One-Electron Energy =               -2415.0793198260398640
    Two-Electron Energy =                 943.3699073447229466
    Total Energy =                       -852.4126920064203432
  Basis Set: (AUG-CC-PVTZ AUX)
    Blend: AUG-CC-PVTZ-RI
    Molecular point group: c1

    Geometry (in Angstrom), charge = -1, multiplicity = 1:

       Center              X                  Y                   Z               Mass
    ------------   -----------------  -----------------  -----------------  -----------------
         S           -1.479251882900     0.100344438376     0.002610049614    31.972071174400
         O           -1.801235482900    -0.029714961624     1.456994349614    15.994914619570
         O           -1.850851482900     1.229177038376    -0.701163650386    15.994914619570
         O           -1.851468482900    -1.276138961624    -0.708917650386    15.994914619570
         C            0.324192517100    -0.025623961624    -0.037839650386    12.000000000000
         C            1.026347517100    -1.233928961624    -0.026274650386    12.000000000000
         C            1.026589517100     1.182564038376    -0.026504650386    12.000000000000
         C            2.422166517100    -1.233598961624     0.002678349614    12.000000000000
         C            2.422436517100     1.182067038376     0.002358349614    12.000000000000
         C            3.125883517100    -0.025805961624     0.021966349614    12.000000000000
         H            0.460470517100    -2.161093961624    -0.062774650386     1.007825032230
         H            0.460749517100     2.109753038376    -0.063082650386     1.007825032230
         H            2.964700517100    -2.178128961624     0.006564349614     1.007825032230
         H            2.965161517100     2.126503038376     0.006016349614     1.007825032230
         H            4.214581517100    -0.025882961624     0.043395349614     1.007825032230

  Basis Set: AUG-CC-PVTZ
    Blend: AUG-CC-PVTZ
  Basis Set: (AUG-CC-PVTZ AUX)
    Blend: AUG-CC-PVTZ-JKFIT
	 Reference Energy          =    -852.4126920064203432 [Eh]
	 Singles Energy            =      -0.0000000000000000 [Eh]
	 Same-Spin Energy          =      -0.5388891973702643 [Eh]
	 Opposite-Spin Energy      =      -1.5556204483617768 [Eh]
	 Correlation Energy        =      -2.0945096457320411 [Eh]
	 Total Energy              =    -854.5072016521523892 [Eh]

	 ================> DF-SCS-MP2 Energies <==================
	-----------------------------------------------------------
	 SCS Same-Spin Scale       =       0.3333333333333333 [-]
	 SCS Opposite-Spin Scale   =       1.2000000000000000 [-]
	 SCS Same-Spin Energy      =      -0.1796297324567548 [Eh]
	 SCS Opposite-Spin Energy  =      -1.8667445380341321 [Eh]
	 SCS Correlation Energy    =      -2.0463742704908867 [Eh]
	 SCS Total Energy          =    -854.4590662769112441 [Eh]
	-----------------------------------------------------------

  Dipole Moment: [D]
     X:     8.0260      Y:     1.3203      Z:    -0.1125     Total:     8.1346

*** Psi4 exiting successfully. Buy a developer a beer!
