                               Psi4 1.3.2 release

  ==> Input File <==

--------------------------------------------------------------------------
#psi4
#
memory 32 gb

molecule  {
-1 1
  S       -1.5500650    -0.0000770     0.0055040
  O       -1.8677260    -0.0040310     1.4568130
  O       -1.9173420     1.2548610    -0.7013450
  O       -1.9179590    -1.2504550    -0.7090990
  C        0.1577310     0.0000524    -0.0356140
  C        0.9598570    -1.2082450    -0.0264560
  C        0.9600990     1.2082480    -0.0266860
  C        2.3556760    -1.2079150     0.0024970
  C        2.3559460     1.2077510     0.0021770
  C        3.0593930    -0.0001220     0.0217850
  H        0.3939800    -2.1354100    -0.0629560
  H        0.3942590     2.1354370    -0.0632640
  H        2.8982100    -2.1524450     0.0063830
  H        2.8986710     2.1521870     0.0058350
  H        4.1480910    -0.0001990     0.0432140
units angstrom
no_reorient  #important for SAPT in psi4, default
symmetry c1  #important for SAPT in psi4, default
}

set PROPERTIES_ORIGIN ["COM"]
properties('MP2/aug-cc-pvtz', properties = ['dipole'])
--------------------------------------------------------------------------

    Molecular point group: c1
  Charge       = -1
  Multiplicity = 1
  Basis Set: AUG-CC-PVTZ
    Blend: AUG-CC-PVTZ
  Basis Set: (AUG-CC-PVTZ AUX)
    Blend: AUG-CC-PVTZ-JKFIT

    Orbital Energies [Eh]
    ---------------------

    Doubly Occupied:

       1A    -92.014672     2A    -20.351657     3A    -20.351569
       4A    -20.350926     5A    -11.135929     6A    -11.133052
       7A    -11.130503     8A    -11.130325     9A    -11.129269
      10A    -11.129160    11A     -8.976601    12A     -6.662586
      13A     -6.661495    14A     -6.661394    15A     -1.275252
      16A     -1.128773    17A     -1.126875    18A     -1.030245
      19A     -0.906837    20A     -0.898591    21A     -0.751122
      22A     -0.707068    23A     -0.644348    24A     -0.582041
      25A     -0.529710    26A     -0.512295    27A     -0.495436
      28A     -0.470568    29A     -0.467563    30A     -0.458966
      31A     -0.413409    32A     -0.387271    33A     -0.366409
      34A     -0.333458    35A     -0.332711    36A     -0.302233
      37A     -0.291822    38A     -0.285246    39A     -0.249948
      40A     -0.224869    41A     -0.207314

  @DF-RHF Final Energy:  -852.42421182203759

   => Energetics <=

    Nuclear Repulsion Energy =            619.8715104494418711
    One-Electron Energy =               -2416.1924063465457948
    Two-Electron Energy =                 943.8966840750664460
    Total Energy =                       -852.4242118220375914
  Basis Set: (AUG-CC-PVTZ AUX)
    Blend: AUG-CC-PVTZ-RI
    Molecular point group: c1

    Geometry (in Angstrom), charge = -1, multiplicity = 1:

       Center              X                  Y                   Z               Mass
    ------------   -----------------  -----------------  -----------------  -----------------
         S           -1.475052896461    -0.000079138136     0.004875088467    31.972071174400
         O           -1.792713896461    -0.004033138136     1.456184088467    15.994914619570
         O           -1.842329896461     1.254858861864    -0.701973911533    15.994914619570
         O           -1.842946896461    -1.250457138136    -0.709727911533    15.994914619570
         C            0.232743103539     0.000050261864    -0.036242911533    12.000000000000
         C            1.034869103539    -1.208247138136    -0.027084911533    12.000000000000
         C            1.035111103539     1.208245861864    -0.027314911533    12.000000000000
         C            2.430688103539    -1.207917138136     0.001868088467    12.000000000000
         C            2.430958103539     1.207748861864     0.001548088467    12.000000000000
         C            3.134405103539    -0.000124138136     0.021156088467    12.000000000000
         H            0.468992103539    -2.135412138136    -0.063584911533     1.007825032230
         H            0.469271103539     2.135434861864    -0.063892911533     1.007825032230
         H            2.973222103539    -2.152447138136     0.005754088467     1.007825032230
         H            2.973683103539     2.152184861864     0.005206088467     1.007825032230
         H            4.223103103539    -0.000201138136     0.042585088467     1.007825032230

  Basis Set: AUG-CC-PVTZ
    Blend: AUG-CC-PVTZ
  Basis Set: (AUG-CC-PVTZ AUX)
    Blend: AUG-CC-PVTZ-JKFIT
	 Reference Energy          =    -852.4242118220375914 [Eh]
	 Singles Energy            =      -0.0000000000000000 [Eh]
	 Same-Spin Energy          =      -0.5398472630697194 [Eh]
	 Opposite-Spin Energy      =      -1.5569093470828255 [Eh]
	 Correlation Energy        =      -2.0967566101525450 [Eh]
	 Total Energy              =    -854.5209684321901022 [Eh]

	 ================> DF-SCS-MP2 Energies <==================
	-----------------------------------------------------------
	 SCS Same-Spin Scale       =       0.3333333333333333 [-]
	 SCS Opposite-Spin Scale   =       1.2000000000000000 [-]
	 SCS Same-Spin Energy      =      -0.1799490876899065 [Eh]
	 SCS Opposite-Spin Energy  =      -1.8682912164993906 [Eh]
	 SCS Correlation Energy    =      -2.0482403041892971 [Eh]
	 SCS Total Energy          =    -854.4724521262269263 [Eh]
	-----------------------------------------------------------

  Dipole Moment: [D]
     X:     7.9846      Y:    -0.0015      Z:    -0.0937     Total:     7.9851

*** Psi4 exiting successfully. Buy a developer a beer!
