                               Psi4 1.3.2 release

  ==> Input File <==

--------------------------------------------------------------------------
#psi4
#
memory 32 gb

molecule  {
-1 1
  S       -1.5500650    -0.0000770     0.0055040
  O       -1.8677260    -0.0040310     1.4568130
  O       -1.7648111     1.2797859    -0.7192252
  O       -1.9179590    -1.2504550    -0.7090990
  C        0.2577020     0.0000600    -0.0380210
  C        0.9598570    -1.2082450    -0.0264560
  C        0.9600990     1.2082480    -0.0266860
  C        2.3556760    -1.2079150     0.0024970
  C        2.3559460     1.2077510     0.0021770
  C        3.0593930    -0.0001220     0.0217850
  H        0.3939800    -2.1354100    -0.0629560
  H        0.3942590     2.1354370    -0.0632640
  H        2.8982100    -2.1524450     0.0063830
  H        2.8986710     2.1521870     0.0058350
  H        4.1480910    -0.0001990     0.0432140
units angstrom
no_reorient  #important for SAPT in psi4, default
symmetry c1  #important for SAPT in psi4, default
}

set PROPERTIES_ORIGIN ["COM"]
properties('MP2/aug-cc-pvtz', properties = ['dipole'])
--------------------------------------------------------------------------

    Molecular point group: c1
  Charge       = -1
  Multiplicity = 1
  Basis Set: AUG-CC-PVTZ
    Blend: AUG-CC-PVTZ
  Basis Set: (AUG-CC-PVTZ AUX)
    Blend: AUG-CC-PVTZ-JKFIT

    Orbital Energies [Eh]
    ---------------------

    Doubly Occupied:

       1A    -92.017939     2A    -20.358198     3A    -20.356799
       4A    -20.354181     5A    -11.128636     6A    -11.125035
       7A    -11.124741     8A    -11.117930     9A    -11.116300
      10A    -11.115674    11A     -8.978517    12A     -6.664303
      13A     -6.663437    14A     -6.663316    15A     -1.274385
      16A     -1.134215    17A     -1.130685    18A     -1.032738
      19A     -0.901340    20A     -0.897122    21A     -0.728360
      22A     -0.708394    23A     -0.639799    24A     -0.581583
      25A     -0.521962    26A     -0.509660    27A     -0.493861
      28A     -0.470563    29A     -0.468266    30A     -0.463063
      31A     -0.406292    32A     -0.388073    33A     -0.375675
      34A     -0.338384    35A     -0.334380    36A     -0.304403
      37A     -0.297380    38A     -0.266540    39A     -0.255789
      40A     -0.220784    41A     -0.210495

  @DF-RHF Final Energy:  -852.43297413386540

   => Energetics <=

    Nuclear Repulsion Energy =            620.4512390600518756
    One-Electron Energy =               -2417.4900354917294862
    Two-Electron Energy =                 944.6058222978122103
    Total Energy =                       -852.4329741338654003
  Basis Set: (AUG-CC-PVTZ AUX)
    Blend: AUG-CC-PVTZ-RI
    Molecular point group: c1

    Geometry (in Angstrom), charge = -1, multiplicity = 1:

       Center              X                  Y                   Z               Mass
    ------------   -----------------  -----------------  -----------------  -----------------
         S           -1.498234201136    -0.002619094564     0.006880721683    31.972071174400
         O           -1.815895201136    -0.006573094564     1.458189721683    15.994914619570
         O           -1.712980301136     1.277243805436    -0.717848478317    15.994914619570
         O           -1.866128201136    -1.252997094564    -0.707722278317    15.994914619570
         C            0.309532798864    -0.002482094564    -0.036644278317    12.000000000000
         C            1.011687798864    -1.210787094564    -0.025079278317    12.000000000000
         C            1.011929798864     1.205705905436    -0.025309278317    12.000000000000
         C            2.407506798864    -1.210457094564     0.003873721683    12.000000000000
         C            2.407776798864     1.205208905436     0.003553721683    12.000000000000
         C            3.111223798864    -0.002664094564     0.023161721683    12.000000000000
         H            0.445810798864    -2.137952094564    -0.061579278317     1.007825032230
         H            0.446089798864     2.132894905436    -0.061887278317     1.007825032230
         H            2.950040798864    -2.154987094564     0.007759721683     1.007825032230
         H            2.950501798864     2.149644905436     0.007211721683     1.007825032230
         H            4.199921798864    -0.002741094564     0.044590721683     1.007825032230

  Basis Set: AUG-CC-PVTZ
    Blend: AUG-CC-PVTZ
  Basis Set: (AUG-CC-PVTZ AUX)
    Blend: AUG-CC-PVTZ-JKFIT
	 Reference Energy          =    -852.4329741338654003 [Eh]
	 Singles Energy            =      -0.0000000000000000 [Eh]
	 Same-Spin Energy          =      -0.5396339865428857 [Eh]
	 Opposite-Spin Energy      =      -1.5562942016373209 [Eh]
	 Correlation Energy        =      -2.0959281881802068 [Eh]
	 Total Energy              =    -854.5289023220456102 [Eh]

	 ================> DF-SCS-MP2 Energies <==================
	-----------------------------------------------------------
	 SCS Same-Spin Scale       =       0.3333333333333333 [-]
	 SCS Opposite-Spin Scale   =       1.2000000000000000 [-]
	 SCS Same-Spin Energy      =      -0.1798779955142952 [Eh]
	 SCS Opposite-Spin Energy  =      -1.8675530419647850 [Eh]
	 SCS Correlation Energy    =      -2.0474310374790803 [Eh]
	 SCS Total Energy          =    -854.4804051713445006 [Eh]
	-----------------------------------------------------------

  Dipole Moment: [D]
     X:     7.4193      Y:    -0.0285      Z:    -0.0796     Total:     7.4198

*** Psi4 exiting successfully. Buy a developer a beer!
