                               Psi4 1.4a3.dev225

  ==> Input File <==

--------------------------------------------------------------------------
#psi4
#
memory 32 gb

molecule  {
-1 1
  S       -1.5257420     0.0005400     0.0049580
  O       -1.8754660    -0.0921210     1.4513090
  O       -1.9509474     1.3315008    -0.6412670
  O       -1.9322140    -1.2001240    -0.7773890
  C        0.2621030     0.0036010    -0.0456020
  C        0.9554030    -1.2107120    -0.0284930
  C        0.9595290     1.2147240    -0.0278400
  C        2.3511900    -1.2103390     0.0023180
  C        2.3559220     1.2088420     0.0015130
  C        3.0539450    -0.0018320     0.0226760
  H        0.4020620    -2.1452990    -0.0612980
  H        0.4079720     2.1501410    -0.0584560
  H        2.8913160    -2.1541860     0.0103160
  H        2.8995330     2.1507040     0.0084210
  H        4.1409790    -0.0039320     0.0451330
units angstrom
no_reorient  #important for SAPT in psi4, default
symmetry c1  #important for SAPT in psi4, default
}

set PROPERTIES_ORIGIN ["COM"]
properties('MP2/aug-cc-pvtz', properties = ['dipole'])
--------------------------------------------------------------------------

    Molecular point group: c1
  Charge       = -1
  Multiplicity = 1
  Basis Set: AUG-CC-PVTZ
    Blend: AUG-CC-PVTZ
  Basis Set: (AUG-CC-PVTZ AUX)
    Blend: AUG-CC-PVTZ-JKFIT

    Orbital Energies [Eh]
    ---------------------

    Doubly Occupied:

       1A    -92.016799     2A    -20.352265     3A    -20.351333
       4A    -20.348170     5A    -11.137157     6A    -11.132851
       7A    -11.132465     8A    -11.132164     9A    -11.127993
      10A    -11.126790    11A     -8.977455    12A     -6.663116
      13A     -6.662279    14A     -6.662038    15A     -1.258838
      16A     -1.122960    17A     -1.105099    18A     -1.042503
      19A     -0.912633    20A     -0.906961    21A     -0.741710
      22A     -0.717685    23A     -0.647617    24A     -0.584967
      25A     -0.525349    26A     -0.518574    27A     -0.496259
      28A     -0.479917    29A     -0.459148    30A     -0.451865
      31A     -0.411639    32A     -0.395655    33A     -0.386651
      34A     -0.325465    35A     -0.324229    36A     -0.296103
      37A     -0.282201    38A     -0.274451    39A     -0.245460
      40A     -0.229232    41A     -0.219467

  @DF-RHF Final Energy:  -852.42982010886067

   => Energetics <=

    Nuclear Repulsion Energy =            617.0502037012236087
    One-Electron Energy =               -2410.5890186472543064
    Two-Electron Energy =                 941.1089948371700302
    Total Energy =                       -852.4298201088606675
  Basis Set: (AUG-CC-PVTZ AUX)
    Blend: AUG-CC-PVTZ-RI
    Molecular point group: c1

    Geometry (in Angstrom), charge = -1, multiplicity = 1:

       Center              X                  Y                   Z               Mass
    ------------   -----------------  -----------------  -----------------  -----------------
         S           -1.456906691412    -0.003880330621     0.006745675642    31.972071174400
         O           -1.806630691412    -0.096541330621     1.453096675642    15.994914619570
         O           -1.882112091412     1.327080469379    -0.639479324358    15.994914619570
         O           -1.863378691412    -1.204544330621    -0.775601324358    15.994914619570
         C            0.330938308588    -0.000819330621    -0.043814324358    12.000000000000
         C            1.024238308588    -1.215132330621    -0.026705324358    12.000000000000
         C            1.028364308588     1.210303669379    -0.026052324358    12.000000000000
         C            2.420025308588    -1.214759330621     0.004105675642    12.000000000000
         C            2.424757308588     1.204421669379     0.003300675642    12.000000000000
         C            3.122780308588    -0.006252330621     0.024463675642    12.000000000000
         H            0.470897308588    -2.149719330621    -0.059510324358     1.007825032230
         H            0.476807308588     2.145720669379    -0.056668324358     1.007825032230
         H            2.960151308588    -2.158606330621     0.012103675642     1.007825032230
         H            2.968368308588     2.146283669379     0.010208675642     1.007825032230
         H            4.209814308588    -0.008352330621     0.046920675642     1.007825032230

  Basis Set: AUG-CC-PVTZ
    Blend: AUG-CC-PVTZ
  Basis Set: (AUG-CC-PVTZ AUX)
    Blend: AUG-CC-PVTZ-JKFIT
	 Reference Energy          =    -852.4298201088606675 [Eh]
	 Singles Energy            =      -0.0000000000000000 [Eh]
	 Same-Spin Energy          =      -0.5398597844076993 [Eh]
	 Opposite-Spin Energy      =      -1.5575961958609881 [Eh]
	 Correlation Energy        =      -2.0974559802686876 [Eh]
	 Total Energy              =    -854.5272760891293728 [Eh]

	 ================> DF-SCS-MP2 Energies <==================
	-----------------------------------------------------------
	 SCS Same-Spin Scale       =       0.3333333333333333 [-]
	 SCS Opposite-Spin Scale   =       1.2000000000000000 [-]
	 SCS Same-Spin Energy      =      -0.1799532614692331 [Eh]
	 SCS Opposite-Spin Energy  =      -1.8691154350331856 [Eh]
	 SCS Correlation Energy    =      -2.0490686965024185 [Eh]
	 SCS Total Energy          =    -854.4788888053631126 [Eh]
	-----------------------------------------------------------

  Dipole Moment: [D]
     X:     8.5428      Y:    -0.2500      Z:     0.0077     Total:     8.5464

*** Psi4 exiting successfully. Buy a developer a beer!
