                               Psi4 1.3.2 release

  ==> Input File <==

--------------------------------------------------------------------------
#psi4
#
memory 32 gb

molecule  {
-1 1
  S       -1.5500650    -0.0000770     0.0055040
  O       -1.8677260    -0.0040310     1.4568130
  O       -1.8970282     1.2818964    -0.6619972
  O       -1.9179590    -1.2504550    -0.7090990
  C        0.2577020     0.0000600    -0.0380210
  C        0.9598570    -1.2082450    -0.0264560
  C        0.9600990     1.2082480    -0.0266860
  C        2.3556760    -1.2079150     0.0024970
  C        2.3559460     1.2077510     0.0021770
  C        3.0593930    -0.0001220     0.0217850
  H        0.3939800    -2.1354100    -0.0629560
  H        0.3942590     2.1354370    -0.0632640
  H        2.8982100    -2.1524450     0.0063830
  H        2.8986710     2.1521870     0.0058350
  H        4.1480910    -0.0001990     0.0432140
units angstrom
no_reorient  #important for SAPT in psi4, default
symmetry c1  #important for SAPT in psi4, default
}

set PROPERTIES_ORIGIN ["COM"]
properties('MP2/aug-cc-pvtz', properties = ['dipole'])
--------------------------------------------------------------------------

    Molecular point group: c1
  Charge       = -1
  Multiplicity = 1
  Basis Set: AUG-CC-PVTZ
    Blend: AUG-CC-PVTZ
  Basis Set: (AUG-CC-PVTZ AUX)
    Blend: AUG-CC-PVTZ-JKFIT

    Orbital Energies [Eh]
    ---------------------

    Doubly Occupied:

       1A    -92.015716     2A    -20.355898     3A    -20.352502
       4A    -20.349052     5A    -11.132438     6A    -11.128571
       7A    -11.128341     8A    -11.124027     9A    -11.120960
      10A    -11.120543    11A     -8.976420    12A     -6.662159
      13A     -6.661320    14A     -6.661283    15A     -1.271816
      16A     -1.131459    17A     -1.123892    18A     -1.036912
      19A     -0.905922    20A     -0.901038    21A     -0.732404
      22A     -0.712360    23A     -0.641796    24A     -0.582676
      25A     -0.523074    26A     -0.513253    27A     -0.495826
      28A     -0.473844    29A     -0.464710    30A     -0.460644
      31A     -0.409530    32A     -0.391348    33A     -0.379372
      34A     -0.334585    35A     -0.331904    36A     -0.299333
      37A     -0.294406    38A     -0.270833    39A     -0.250646
      40A     -0.224415    41A     -0.214466

  @DF-RHF Final Energy:  -852.43729363399814

   => Energetics <=

    Nuclear Repulsion Energy =            619.3100753349779097
    One-Electron Energy =               -2415.1713477134526329
    Two-Electron Energy =                 943.4239787444765852
    Total Energy =                       -852.4372936339981379
  Basis Set: (AUG-CC-PVTZ AUX)
    Blend: AUG-CC-PVTZ-RI
    Molecular point group: c1

    Geometry (in Angstrom), charge = -1, multiplicity = 1:

       Center              X                  Y                   Z               Mass
    ------------   -----------------  -----------------  -----------------  -----------------
         S           -1.484763781308    -0.002834114566     0.001050271719    31.972071174400
         O           -1.802424781308    -0.006788114566     1.452359271719    15.994914619570
         O           -1.831726981308     1.279139285434    -0.666450928281    15.994914619570
         O           -1.852657781308    -1.253212114566    -0.713552728281    15.994914619570
         C            0.323003218692    -0.002697114566    -0.042474728281    12.000000000000
         C            1.025158218692    -1.211002114566    -0.030909728281    12.000000000000
         C            1.025400218692     1.205490885434    -0.031139728281    12.000000000000
         C            2.420977218692    -1.210672114566    -0.001956728281    12.000000000000
         C            2.421247218692     1.204993885434    -0.002276728281    12.000000000000
         C            3.124694218692    -0.002879114566     0.017331271719    12.000000000000
         H            0.459281218692    -2.138167114566    -0.067409728281     1.007825032230
         H            0.459560218692     2.132679885434    -0.067717728281     1.007825032230
         H            2.963511218692    -2.155202114566     0.001929271719     1.007825032230
         H            2.963972218692     2.149429885434     0.001381271719     1.007825032230
         H            4.213392218692    -0.002956114566     0.038760271719     1.007825032230

  Basis Set: AUG-CC-PVTZ
    Blend: AUG-CC-PVTZ
  Basis Set: (AUG-CC-PVTZ AUX)
    Blend: AUG-CC-PVTZ-JKFIT
	 Reference Energy          =    -852.4372936339981379 [Eh]
	 Singles Energy            =      -0.0000000000000000 [Eh]
	 Same-Spin Energy          =      -0.5390591018754904 [Eh]
	 Opposite-Spin Energy      =      -1.5552682442222712 [Eh]
	 Correlation Energy        =      -2.0943273460977618 [Eh]
	 Total Energy              =    -854.5316209800959086 [Eh]

	 ================> DF-SCS-MP2 Energies <==================
	-----------------------------------------------------------
	 SCS Same-Spin Scale       =       0.3333333333333333 [-]
	 SCS Opposite-Spin Scale   =       1.2000000000000000 [-]
	 SCS Same-Spin Energy      =      -0.1796863672918301 [Eh]
	 SCS Opposite-Spin Energy  =      -1.8663218930667254 [Eh]
	 SCS Correlation Energy    =      -2.0460082603585557 [Eh]
	 SCS Total Energy          =    -854.4833018943567140 [Eh]
	-----------------------------------------------------------

  Dipole Moment: [D]
     X:     7.8839      Y:    -0.0581      Z:    -0.2072     Total:     7.8868

*** Psi4 exiting successfully. Buy a developer a beer!
