                               Psi4 1.3.2 release

  ==> Input File <==

--------------------------------------------------------------------------
#psi4
#
memory 32 gb

molecule  {
-1 1
  S       -1.5500650    -0.0000770     0.0055040
  O       -1.8677260    -0.0040310     1.4568130
  O       -2.0658489     1.2161868    -0.6757204
  O       -1.9179590    -1.2504550    -0.7090990
  C        0.2577020     0.0000600    -0.0380210
  C        0.9598570    -1.2082450    -0.0264560
  C        0.9600990     1.2082480    -0.0266860
  C        2.3556760    -1.2079150     0.0024970
  C        2.3559460     1.2077510     0.0021770
  C        3.0593930    -0.0001220     0.0217850
  H        0.3939800    -2.1354100    -0.0629560
  H        0.3942590     2.1354370    -0.0632640
  H        2.8982100    -2.1524450     0.0063830
  H        2.8986710     2.1521870     0.0058350
  H        4.1480910    -0.0001990     0.0432140
units angstrom
no_reorient  #important for SAPT in psi4, default
symmetry c1  #important for SAPT in psi4, default
}

set PROPERTIES_ORIGIN ["COM"]
properties('MP2/aug-cc-pvtz', properties = ['dipole'])
--------------------------------------------------------------------------

    Molecular point group: c1
  Charge       = -1
  Multiplicity = 1
  Basis Set: AUG-CC-PVTZ
    Blend: AUG-CC-PVTZ
  Basis Set: (AUG-CC-PVTZ AUX)
    Blend: AUG-CC-PVTZ-JKFIT

    Orbital Energies [Eh]
    ---------------------

    Doubly Occupied:

       1A    -92.012873     2A    -20.349926     3A    -20.346645
       4A    -20.345752     5A    -11.136770     6A    -11.132860
       7A    -11.132605     8A    -11.131751     9A    -11.126553
      10A    -11.126030    11A     -8.973823    12A     -6.659505
      13A     -6.658786    14A     -6.658618    15A     -1.268867
      16A     -1.122675    17A     -1.120517    18A     -1.041820
      19A     -0.911328    20A     -0.905678    21A     -0.737264
      22A     -0.717186    23A     -0.644579    24A     -0.584092
      25A     -0.524829    26A     -0.517576    27A     -0.497562
      28A     -0.478211    29A     -0.461639    30A     -0.455305
      31A     -0.413754    32A     -0.395707    33A     -0.383967
      34A     -0.331130    35A     -0.326710    36A     -0.295584
      37A     -0.286940    38A     -0.274437    39A     -0.244427
      40A     -0.228751    41A     -0.218706

  @DF-RHF Final Energy:  -852.43657104585736

   => Energetics <=

    Nuclear Repulsion Energy =            618.0262499405770313
    One-Electron Energy =               -2412.5621610489997693
    Two-Electron Energy =                 942.0993400625652612
    Total Energy =                       -852.4365710458573631
  Basis Set: (AUG-CC-PVTZ AUX)
    Blend: AUG-CC-PVTZ-RI
    Molecular point group: c1

    Geometry (in Angstrom), charge = -1, multiplicity = 1:

       Center              X                  Y                   Z               Mass
    ------------   -----------------  -----------------  -----------------  -----------------
         S           -1.467564147488     0.003860449895     0.002448406041    31.972071174400
         O           -1.785225147488    -0.000093550105     1.453757406041    15.994914619570
         O           -1.983348047488     1.220124249895    -0.678775993959    15.994914619570
         O           -1.835458147488    -1.246517550105    -0.712154593959    15.994914619570
         C            0.340202852512     0.003997449895    -0.041076593959    12.000000000000
         C            1.042357852512    -1.204307550105    -0.029511593959    12.000000000000
         C            1.042599852512     1.212185449895    -0.029741593959    12.000000000000
         C            2.438176852512    -1.203977550105    -0.000558593959    12.000000000000
         C            2.438446852512     1.211688449895    -0.000878593959    12.000000000000
         C            3.141893852512     0.003815449895     0.018729406041    12.000000000000
         H            0.476480852512    -2.131472550105    -0.066011593959     1.007825032230
         H            0.476759852512     2.139374449895    -0.066319593959     1.007825032230
         H            2.980710852512    -2.148507550105     0.003327406041     1.007825032230
         H            2.981171852512     2.156124449895     0.002779406041     1.007825032230
         H            4.230591852512     0.003738449895     0.040158406041     1.007825032230

  Basis Set: AUG-CC-PVTZ
    Blend: AUG-CC-PVTZ
  Basis Set: (AUG-CC-PVTZ AUX)
    Blend: AUG-CC-PVTZ-JKFIT
	 Reference Energy          =    -852.4365710458573631 [Eh]
	 Singles Energy            =      -0.0000000000000000 [Eh]
	 Same-Spin Energy          =      -0.5386668364622420 [Eh]
	 Opposite-Spin Energy      =      -1.5546724454583973 [Eh]
	 Correlation Energy        =      -2.0933392819206391 [Eh]
	 Total Energy              =    -854.5299103277779977 [Eh]

	 ================> DF-SCS-MP2 Energies <==================
	-----------------------------------------------------------
	 SCS Same-Spin Scale       =       0.3333333333333333 [-]
	 SCS Opposite-Spin Scale   =       1.2000000000000000 [-]
	 SCS Same-Spin Energy      =      -0.1795556121540807 [Eh]
	 SCS Opposite-Spin Energy  =      -1.8656069345500768 [Eh]
	 SCS Correlation Energy    =      -2.0451625467041574 [Eh]
	 SCS Total Energy          =    -854.4817335925615680 [Eh]
	-----------------------------------------------------------

  Dipole Moment: [D]
     X:     8.4422      Y:     0.0549      Z:    -0.1581     Total:     8.4439

*** Psi4 exiting successfully. Buy a developer a beer!
