                               Psi4 1.3.2 release

  ==> Input File <==

--------------------------------------------------------------------------
#psi4
#
memory 32 gb

molecule  {
-1 1
  S       -1.5500650    -0.0000770     0.0055040
  O       -1.8677260    -0.0040310     1.4568130
  O       -1.9755022     1.1647220    -0.8140347
  O       -1.9179590    -1.2504550    -0.7090990
  C        0.2577020     0.0000600    -0.0380210
  C        0.9598570    -1.2082450    -0.0264560
  C        0.9600990     1.2082480    -0.0266860
  C        2.3556760    -1.2079150     0.0024970
  C        2.3559460     1.2077510     0.0021770
  C        3.0593930    -0.0001220     0.0217850
  H        0.3939800    -2.1354100    -0.0629560
  H        0.3942590     2.1354370    -0.0632640
  H        2.8982100    -2.1524450     0.0063830
  H        2.8986710     2.1521870     0.0058350
  H        4.1480910    -0.0001990     0.0432140
units angstrom
no_reorient  #important for SAPT in psi4, default
symmetry c1  #important for SAPT in psi4, default
}

set PROPERTIES_ORIGIN ["COM"]
properties('MP2/aug-cc-pvtz', properties = ['dipole'])
--------------------------------------------------------------------------

    Molecular point group: c1
  Charge       = -1
  Multiplicity = 1
  Basis Set: AUG-CC-PVTZ
    Blend: AUG-CC-PVTZ
  Basis Set: (AUG-CC-PVTZ AUX)
    Blend: AUG-CC-PVTZ-JKFIT

    Orbital Energies [Eh]
    ---------------------

    Doubly Occupied:

       1A    -92.014306     2A    -20.357581     3A    -20.351048
       4A    -20.341307     5A    -11.134412     6A    -11.130829
       7A    -11.130445     8A    -11.127856     9A    -11.123997
      10A    -11.123061    11A     -8.975160    12A     -6.660843
      13A     -6.660211    14A     -6.659866    15A     -1.270504
      16A     -1.132292    17A     -1.116693    18A     -1.039330
      19A     -0.908599    20A     -0.903356    21A     -0.734729
      22A     -0.714809    23A     -0.643255    24A     -0.583008
      25A     -0.524516    26A     -0.515247    27A     -0.496388
      28A     -0.476029    29A     -0.466464    30A     -0.454294
      31A     -0.412078    32A     -0.394017    33A     -0.381674
      34A     -0.334547    35A     -0.327891    36A     -0.302937
      37A     -0.284255    38A     -0.272650    39A     -0.246310
      40A     -0.226571    41A     -0.217026

  @DF-RHF Final Energy:  -852.43495093716581

   => Energetics <=

    Nuclear Repulsion Energy =            618.6386061285754749
    One-Electron Energy =               -2413.8063365117341164
    Two-Electron Energy =                 942.7327794459928327
    Total Energy =                       -852.4349509371658087
  Basis Set: (AUG-CC-PVTZ AUX)
    Blend: AUG-CC-PVTZ-RI
    Molecular point group: c1

    Geometry (in Angstrom), charge = -1, multiplicity = 1:

       Center              X                  Y                   Z               Mass
    ------------   -----------------  -----------------  -----------------  -----------------
         S           -1.476768766097     0.009103738867     0.016540015138    31.972071174400
         O           -1.794429766097     0.005149738867     1.467849015138    15.994914619570
         O           -1.902205966097     1.173902738867    -0.802998684862    15.994914619570
         O           -1.844662766097    -1.241274261133    -0.698062984862    15.994914619570
         C            0.330998233903     0.009240738867    -0.026984984862    12.000000000000
         C            1.033153233903    -1.199064261133    -0.015419984862    12.000000000000
         C            1.033395233903     1.217428738867    -0.015649984862    12.000000000000
         C            2.428972233903    -1.198734261133     0.013533015138    12.000000000000
         C            2.429242233903     1.216931738867     0.013213015138    12.000000000000
         C            3.132689233903     0.009058738867     0.032821015138    12.000000000000
         H            0.467276233903    -2.126229261133    -0.051919984862     1.007825032230
         H            0.467555233903     2.144617738867    -0.052227984862     1.007825032230
         H            2.971506233903    -2.143264261133     0.017419015138     1.007825032230
         H            2.971967233903     2.161367738867     0.016871015138     1.007825032230
         H            4.221387233903     0.008981738867     0.054250015138     1.007825032230

  Basis Set: AUG-CC-PVTZ
    Blend: AUG-CC-PVTZ
  Basis Set: (AUG-CC-PVTZ AUX)
    Blend: AUG-CC-PVTZ-JKFIT
	 Reference Energy          =    -852.4349509371658087 [Eh]
	 Singles Energy            =      -0.0000000000000000 [Eh]
	 Same-Spin Energy          =      -0.5389265874656709 [Eh]
	 Opposite-Spin Energy      =      -1.5552081140481815 [Eh]
	 Correlation Energy        =      -2.0941347015138523 [Eh]
	 Total Energy              =    -854.5290856386797032 [Eh]

	 ================> DF-SCS-MP2 Energies <==================
	-----------------------------------------------------------
	 SCS Same-Spin Scale       =       0.3333333333333333 [-]
	 SCS Opposite-Spin Scale   =       1.2000000000000000 [-]
	 SCS Same-Spin Energy      =      -0.1796421958218903 [Eh]
	 SCS Opposite-Spin Energy  =      -1.8662497368578177 [Eh]
	 SCS Correlation Energy    =      -2.0458919326797078 [Eh]
	 SCS Total Energy          =    -854.4808428698455600 [Eh]
	-----------------------------------------------------------

  Dipole Moment: [D]
     X:     8.1505      Y:     0.1877      Z:     0.1684     Total:     8.1544

*** Psi4 exiting successfully. Buy a developer a beer!
