                               Psi4 1.3.2 release

  ==> Input File <==

--------------------------------------------------------------------------
#psi4
#
memory 32 gb

molecule  {
-1 1
  S       -1.5500650    -0.0000770     0.0055040
  O       -1.8677260    -0.0040310     1.4568130
  O       -1.9372083     1.2262966    -0.7398316
  O       -1.9179590    -1.2504550    -0.7090990
  C        0.2577020     0.0000600    -0.0380210
  C        0.9598570    -1.2082450    -0.0264560
  C        0.9600990     1.2082480    -0.0266860
  C        2.3556760    -1.2079150     0.0024970
  C        2.3559460     1.2077510     0.0021770
  C        3.0593930    -0.0001220     0.0217850
  H        0.3939800    -2.1354100    -0.0629560
  H        0.3942590     2.1354370    -0.0632640
  H        2.8982100    -2.1524450     0.0063830
  H        2.8986710     2.1521870     0.0058350
  H        4.1480910    -0.0001990     0.0432140
units angstrom
no_reorient  #important for SAPT in psi4, default
symmetry c1  #important for SAPT in psi4, default
}

set PROPERTIES_ORIGIN ["COM"]
properties('MP2/aug-cc-pvtz', properties = ['dipole'])
--------------------------------------------------------------------------

    Molecular point group: c1
  Charge       = -1
  Multiplicity = 1
  Basis Set: AUG-CC-PVTZ
    Blend: AUG-CC-PVTZ
  Basis Set: (AUG-CC-PVTZ AUX)
    Blend: AUG-CC-PVTZ-JKFIT

    Orbital Energies [Eh]
    ---------------------

    Doubly Occupied:

       1A    -92.015105     2A    -20.353411     3A    -20.352024
       4A    -20.348811     5A    -11.133441     6A    -11.129687
       7A    -11.129459     8A    -11.125942     9A    -11.122352
      10A    -11.121995    11A     -8.975855    12A     -6.661567
      13A     -6.660828    14A     -6.660655    15A     -1.271101
      16A     -1.128315    17A     -1.124352    18A     -1.038146
      19A     -0.907281    20A     -0.902228    21A     -0.733572
      22A     -0.713608    23A     -0.642509    24A     -0.582818
      25A     -0.523817    26A     -0.514282    27A     -0.496138
      28A     -0.474954    29A     -0.465593    30A     -0.457698
      31A     -0.410835    32A     -0.392711    33A     -0.380556
      34A     -0.333169    35A     -0.331210    36A     -0.301050
      37A     -0.289815    38A     -0.271918    39A     -0.249384
      40A     -0.225518    41A     -0.215788

  @DF-RHF Final Energy:  -852.43761397509843

   => Energetics <=

    Nuclear Repulsion Energy =            618.9333837883987144
    One-Electron Energy =               -2414.4030005393628926
    Two-Electron Energy =                 943.0320027758657488
    Total Energy =                       -852.4376139750984294
  Basis Set: (AUG-CC-PVTZ AUX)
    Blend: AUG-CC-PVTZ-RI
    Molecular point group: c1

    Geometry (in Angstrom), charge = -1, multiplicity = 1:

       Center              X                  Y                   Z               Mass
    ------------   -----------------  -----------------  -----------------  -----------------
         S           -1.480670189664     0.002830452638     0.008980123796    31.972071174400
         O           -1.798331189664    -0.001123547362     1.460289123796    15.994914619570
         O           -1.867813489664     1.229204052638    -0.736355476204    15.994914619570
         O           -1.848564189664    -1.247547547362    -0.705622876204    15.994914619570
         C            0.327096810336     0.002967452638    -0.034544876204    12.000000000000
         C            1.029251810336    -1.205337547362    -0.022979876204    12.000000000000
         C            1.029493810336     1.211155452638    -0.023209876204    12.000000000000
         C            2.425070810336    -1.205007547362     0.005973123796    12.000000000000
         C            2.425340810336     1.210658452638     0.005653123796    12.000000000000
         C            3.128787810336     0.002785452638     0.025261123796    12.000000000000
         H            0.463374810336    -2.132502547362    -0.059479876204     1.007825032230
         H            0.463653810336     2.138344452638    -0.059787876204     1.007825032230
         H            2.967604810336    -2.149537547362     0.009859123796     1.007825032230
         H            2.968065810336     2.155094452638     0.009311123796     1.007825032230
         H            4.217485810336     0.002708452638     0.046690123796     1.007825032230

  Basis Set: AUG-CC-PVTZ
    Blend: AUG-CC-PVTZ
  Basis Set: (AUG-CC-PVTZ AUX)
    Blend: AUG-CC-PVTZ-JKFIT
	 Reference Energy          =    -852.4376139750984294 [Eh]
	 Singles Energy            =      -0.0000000000000000 [Eh]
	 Same-Spin Energy          =      -0.5389222965812740 [Eh]
	 Opposite-Spin Energy      =      -1.5551042560888928 [Eh]
	 Correlation Energy        =      -2.0940265526701669 [Eh]
	 Total Energy              =    -854.5316405277685590 [Eh]

	 ================> DF-SCS-MP2 Energies <==================
	-----------------------------------------------------------
	 SCS Same-Spin Scale       =       0.3333333333333333 [-]
	 SCS Opposite-Spin Scale   =       1.2000000000000000 [-]
	 SCS Same-Spin Energy      =      -0.1796407655270913 [Eh]
	 SCS Opposite-Spin Energy  =      -1.8661251073066714 [Eh]
	 SCS Correlation Energy    =      -2.0457658728337629 [Eh]
	 SCS Total Energy          =    -854.4833798479321558 [Eh]
	-----------------------------------------------------------

  Dipole Moment: [D]
     X:     8.0194      Y:     0.0586      Z:    -0.0161     Total:     8.0196

*** Psi4 exiting successfully. Buy a developer a beer!
