                               Psi4 1.3.2 release

  ==> Input File <==

--------------------------------------------------------------------------
#psi4
#
memory 32 gb

molecule  {
-1 1
  S       -1.5500650    -0.0000770     0.0055040
  O       -1.8677260    -0.0040310     1.4568130
  O       -1.8159994     1.2730253    -0.7141395
  O       -1.9179590    -1.2504550    -0.7090990
  C        0.2577020     0.0000600    -0.0380210
  C        0.9598570    -1.2082450    -0.0264560
  C        0.9600990     1.2082480    -0.0266860
  C        2.3556760    -1.2079150     0.0024970
  C        2.3559460     1.2077510     0.0021770
  C        3.0593930    -0.0001220     0.0217850
  H        0.3939800    -2.1354100    -0.0629560
  H        0.3942590     2.1354370    -0.0632640
  H        2.8982100    -2.1524450     0.0063830
  H        2.8986710     2.1521870     0.0058350
  H        4.1480910    -0.0001990     0.0432140
units angstrom
no_reorient  #important for SAPT in psi4, default
symmetry c1  #important for SAPT in psi4, default
}

set PROPERTIES_ORIGIN ["COM"]
properties('MP2/aug-cc-pvtz', properties = ['dipole'])
--------------------------------------------------------------------------

    Molecular point group: c1
  Charge       = -1
  Multiplicity = 1
  Basis Set: AUG-CC-PVTZ
    Blend: AUG-CC-PVTZ
  Basis Set: (AUG-CC-PVTZ AUX)
    Blend: AUG-CC-PVTZ-JKFIT

    Orbital Energies [Eh]
    ---------------------

    Doubly Occupied:

       1A    -92.017107     2A    -20.356265     3A    -20.354947
       4A    -20.353622     5A    -11.130126     6A    -11.126436
       7A    -11.126189     8A    -11.120289     9A    -11.118133
      10A    -11.117660    11A     -8.977723    12A     -6.663488
      13A     -6.662641    14A     -6.662547    15A     -1.273361
      16A     -1.132145    17A     -1.129170    18A     -1.034393
      19A     -0.903154    20A     -0.898682    21A     -0.729937
      22A     -0.709966    23A     -0.640563    24A     -0.581942
      25A     -0.522466    26A     -0.511062    27A     -0.494630
      28A     -0.471726    29A     -0.467375    30A     -0.461808
      31A     -0.407622    32A     -0.389418    33A     -0.377128
      34A     -0.336587    35A     -0.333758    36A     -0.302993
      37A     -0.295770    38A     -0.268352    39A     -0.253963
      40A     -0.222222    41A     -0.212173

  @DF-RHF Final Energy:  -852.43532456115963

   => Energetics <=

    Nuclear Repulsion Energy =            619.9752549208608343
    One-Electron Energy =               -2416.5220861756042723
    Two-Electron Energy =                 944.1115066935838058
    Total Energy =                       -852.4353245611596321
  Basis Set: (AUG-CC-PVTZ AUX)
    Blend: AUG-CC-PVTZ-RI
    Molecular point group: c1

    Geometry (in Angstrom), charge = -1, multiplicity = 1:

       Center              X                  Y                   Z               Mass
    ------------   -----------------  -----------------  -----------------  -----------------
         S           -1.493019082280    -0.001930317392     0.006362585117    31.972071174400
         O           -1.810680082280    -0.005884317392     1.457671585117    15.994914619570
         O           -1.758953482280     1.271171982608    -0.713280914883    15.994914619570
         O           -1.860913082280    -1.252308317392    -0.708240414883    15.994914619570
         C            0.314747917720    -0.001793317392    -0.037162414883    12.000000000000
         C            1.016902917720    -1.210098317392    -0.025597414883    12.000000000000
         C            1.017144917720     1.206394682608    -0.025827414883    12.000000000000
         C            2.412721917720    -1.209768317392     0.003355585117    12.000000000000
         C            2.412991917720     1.205897682608     0.003035585117    12.000000000000
         C            3.116438917720    -0.001975317392     0.022643585117    12.000000000000
         H            0.451025917720    -2.137263317392    -0.062097414883     1.007825032230
         H            0.451304917720     2.133583682608    -0.062405414883     1.007825032230
         H            2.955255917720    -2.154298317392     0.007241585117     1.007825032230
         H            2.955716917720     2.150333682608     0.006693585117     1.007825032230
         H            4.205136917720    -0.002052317392     0.044072585117     1.007825032230

  Basis Set: AUG-CC-PVTZ
    Blend: AUG-CC-PVTZ
  Basis Set: (AUG-CC-PVTZ AUX)
    Blend: AUG-CC-PVTZ-JKFIT
	 Reference Energy          =    -852.4353245611596321 [Eh]
	 Singles Energy            =      -0.0000000000000000 [Eh]
	 Same-Spin Energy          =      -0.5393713210042044 [Eh]
	 Opposite-Spin Energy      =      -1.5558351410175451 [Eh]
	 Correlation Energy        =      -2.0952064620217494 [Eh]
	 Total Energy              =    -854.5305310231814246 [Eh]

	 ================> DF-SCS-MP2 Energies <==================
	-----------------------------------------------------------
	 SCS Same-Spin Scale       =       0.3333333333333333 [-]
	 SCS Opposite-Spin Scale   =       1.2000000000000000 [-]
	 SCS Same-Spin Energy      =      -0.1797904403347348 [Eh]
	 SCS Opposite-Spin Energy  =      -1.8670021692210539 [Eh]
	 SCS Correlation Energy    =      -2.0467926095557889 [Eh]
	 SCS Total Energy          =    -854.4821171707154690 [Eh]
	-----------------------------------------------------------

  Dipole Moment: [D]
     X:     7.6014      Y:    -0.0228      Z:    -0.0882     Total:     7.6020

*** Psi4 exiting successfully. Buy a developer a beer!
