                               Psi4 1.3.2 release

  ==> Input File <==

--------------------------------------------------------------------------
#psi4
#
memory 32 gb

molecule  {
-1 1
  S       -1.5402833     0.1888892     0.0008162
  O       -1.8677260    -0.0040310     1.4568130
  O       -1.9173420     1.2548610    -0.7013450
  O       -1.9179590    -1.2504550    -0.7090990
  C        0.2577020     0.0000600    -0.0380210
  C        0.9598570    -1.2082450    -0.0264560
  C        0.9600990     1.2082480    -0.0266860
  C        2.3556760    -1.2079150     0.0024970
  C        2.3559460     1.2077510     0.0021770
  C        3.0593930    -0.0001220     0.0217850
  H        0.3939800    -2.1354100    -0.0629560
  H        0.3942590     2.1354370    -0.0632640
  H        2.8982100    -2.1524450     0.0063830
  H        2.8986710     2.1521870     0.0058350
  H        4.1480910    -0.0001990     0.0432140
units angstrom
no_reorient  #important for SAPT in psi4, default
symmetry c1  #important for SAPT in psi4, default
}

set PROPERTIES_ORIGIN ["COM"]
properties('MP2/aug-cc-pvtz', properties = ['dipole'])
--------------------------------------------------------------------------

    Molecular point group: c1
  Charge       = -1
  Multiplicity = 1
  Basis Set: AUG-CC-PVTZ
    Blend: AUG-CC-PVTZ
  Basis Set: (AUG-CC-PVTZ AUX)
    Blend: AUG-CC-PVTZ-JKFIT

    Orbital Energies [Eh]
    ---------------------

    Doubly Occupied:

       1A    -92.007304     2A    -20.392925     3A    -20.349666
       4A    -20.312391     5A    -11.133447     6A    -11.129951
       7A    -11.129182     8A    -11.126719     9A    -11.122664
      10A    -11.121735    11A     -8.972994    12A     -6.659308
      13A     -6.657695    14A     -6.656541    15A     -1.337305
      16A     -1.155407    17A     -1.044955    18A     -1.034578
      19A     -0.908701    20A     -0.901149    21A     -0.735765
      22A     -0.712968    23A     -0.644562    24A     -0.586797
      25A     -0.535418    26A     -0.517111    27A     -0.501610
      28A     -0.490087    29A     -0.476111    30A     -0.471912
      31A     -0.416578    32A     -0.394412    33A     -0.381418
      34A     -0.349023    35A     -0.331382    36A     -0.310491
      37A     -0.261198    38A     -0.241919    39A     -0.226850
      40A     -0.225057    41A     -0.209809

  @DF-RHF Final Energy:  -852.37978704025920

   => Energetics <=

    Nuclear Repulsion Energy =            619.5272538664140711
    One-Electron Energy =               -2415.4638938965508714
    Two-Electron Energy =                 943.5568529898777115
    Total Energy =                       -852.3797870402592025
  Basis Set: (AUG-CC-PVTZ AUX)
    Blend: AUG-CC-PVTZ-RI
    Molecular point group: c1

    Geometry (in Angstrom), charge = -1, multiplicity = 1:

       Center              X                  Y                   Z               Mass
    ------------   -----------------  -----------------  -----------------  -----------------
         S           -1.474904523328     0.150403697335     0.001325933677    31.972071174400
         O           -1.802347223328    -0.042516502665     1.457322733677    15.994914619570
         O           -1.851963223328     1.216375497335    -0.700835266323    15.994914619570
         O           -1.852580223328    -1.288940502665    -0.708589266323    15.994914619570
         C            0.323080776672    -0.038425502665    -0.037511266323    12.000000000000
         C            1.025235776672    -1.246730502665    -0.025946266323    12.000000000000
         C            1.025477776672     1.169762497335    -0.026176266323    12.000000000000
         C            2.421054776672    -1.246400502665     0.003006733677    12.000000000000
         C            2.421324776672     1.169265497335     0.002686733677    12.000000000000
         C            3.124771776672    -0.038607502665     0.022294733677    12.000000000000
         H            0.459358776672    -2.173895502665    -0.062446266323     1.007825032230
         H            0.459637776672     2.096951497335    -0.062754266323     1.007825032230
         H            2.963588776672    -2.190930502665     0.006892733677     1.007825032230
         H            2.964049776672     2.113701497335     0.006344733677     1.007825032230
         H            4.213469776672    -0.038684502665     0.043723733677     1.007825032230

  Basis Set: AUG-CC-PVTZ
    Blend: AUG-CC-PVTZ
  Basis Set: (AUG-CC-PVTZ AUX)
    Blend: AUG-CC-PVTZ-JKFIT
	 Reference Energy          =    -852.3797870402592025 [Eh]
	 Singles Energy            =      -0.0000000000000000 [Eh]
	 Same-Spin Energy          =      -0.5388667832032012 [Eh]
	 Opposite-Spin Energy      =      -1.5563182854236020 [Eh]
	 Correlation Energy        =      -2.0951850686268032 [Eh]
	 Total Energy              =    -854.4749721088860497 [Eh]

	 ================> DF-SCS-MP2 Energies <==================
	-----------------------------------------------------------
	 SCS Same-Spin Scale       =       0.3333333333333333 [-]
	 SCS Opposite-Spin Scale   =       1.2000000000000000 [-]
	 SCS Same-Spin Energy      =      -0.1796222610677337 [Eh]
	 SCS Opposite-Spin Energy  =      -1.8675819425083222 [Eh]
	 SCS Correlation Energy    =      -2.0472042035760558 [Eh]
	 SCS Total Energy          =    -854.4269912438352321 [Eh]
	-----------------------------------------------------------

  Dipole Moment: [D]
     X:     8.1175      Y:     1.9705      Z:    -0.0905     Total:     8.3537

*** Psi4 exiting successfully. Buy a developer a beer!
