                               Psi4 1.3.2 release

  ==> Input File <==

--------------------------------------------------------------------------
#psi4
#
memory 32 gb

molecule  {
-1 1
  S       -1.5500650    -0.0000770     0.0055040
  O       -1.8677260    -0.0040310     1.4568130
  O       -1.9072395     1.2685719    -0.6817758
  O       -1.9179590    -1.2504550    -0.7090990
  C        0.2577020     0.0000600    -0.0380210
  C        0.9598570    -1.2082450    -0.0264560
  C        0.9600990     1.2082480    -0.0266860
  C        2.3556760    -1.2079150     0.0024970
  C        2.3559460     1.2077510     0.0021770
  C        3.0593930    -0.0001220     0.0217850
  H        0.3939800    -2.1354100    -0.0629560
  H        0.3942590     2.1354370    -0.0632640
  H        2.8982100    -2.1524450     0.0063830
  H        2.8986710     2.1521870     0.0058350
  H        4.1480910    -0.0001990     0.0432140
units angstrom
no_reorient  #important for SAPT in psi4, default
symmetry c1  #important for SAPT in psi4, default
}

set PROPERTIES_ORIGIN ["COM"]
properties('MP2/aug-cc-pvtz', properties = ['dipole'])
--------------------------------------------------------------------------

    Molecular point group: c1
  Charge       = -1
  Multiplicity = 1
  Basis Set: AUG-CC-PVTZ
    Blend: AUG-CC-PVTZ
  Basis Set: (AUG-CC-PVTZ AUX)
    Blend: AUG-CC-PVTZ-JKFIT

    Orbital Energies [Eh]
    ---------------------

    Doubly Occupied:

       1A    -92.015581     2A    -20.354165     3A    -20.352429
       4A    -20.350159     5A    -11.132692     6A    -11.128844
       7A    -11.128636     8A    -11.124505     9A    -11.121259
      10A    -11.120967    11A     -8.976291    12A     -6.662024
      13A     -6.661203    14A     -6.661147    15A     -1.271627
      16A     -1.129776    17A     -1.124997    18A     -1.037225
      19A     -0.906265    20A     -0.901341    21A     -0.732697
      22A     -0.712676    23A     -0.641971    24A     -0.582707
      25A     -0.523263    26A     -0.513516    27A     -0.495910
      28A     -0.474124    29A     -0.464903    30A     -0.459979
      31A     -0.409861    32A     -0.391694    33A     -0.379674
      34A     -0.333739    35A     -0.332209    36A     -0.299657
      37A     -0.293451    38A     -0.271130    39A     -0.250492
      40A     -0.224695    41A     -0.214804

  @DF-RHF Final Energy:  -852.43764822599871

   => Energetics <=

    Nuclear Repulsion Energy =            619.2083618083501051
    One-Electron Energy =               -2414.9634506990878435
    Two-Electron Energy =                 943.3174406647389105
    Total Energy =                       -852.4376482259987142
  Basis Set: (AUG-CC-PVTZ AUX)
    Blend: AUG-CC-PVTZ-RI
    Molecular point group: c1

    Geometry (in Angstrom), charge = -1, multiplicity = 1:

       Center              X                  Y                   Z               Mass
    ------------   -----------------  -----------------  -----------------  -----------------
         S           -1.483723443121    -0.001476600227     0.003065336681    31.972071174400
         O           -1.801384443121    -0.005430600227     1.454374336681    15.994914619570
         O           -1.840897943121     1.267172299773    -0.684214463319    15.994914619570
         O           -1.851617443121    -1.251854600227    -0.711537663319    15.994914619570
         C            0.324043556879    -0.001339600227    -0.040459663319    12.000000000000
         C            1.026198556879    -1.209644600227    -0.028894663319    12.000000000000
         C            1.026440556879     1.206848399773    -0.029124663319    12.000000000000
         C            2.422017556879    -1.209314600227     0.000058336681    12.000000000000
         C            2.422287556879     1.206351399773    -0.000261663319    12.000000000000
         C            3.125734556879    -0.001521600227     0.019346336681    12.000000000000
         H            0.460321556879    -2.136809600227    -0.065394663319     1.007825032230
         H            0.460600556879     2.134037399773    -0.065702663319     1.007825032230
         H            2.964551556879    -2.153844600227     0.003944336681     1.007825032230
         H            2.965012556879     2.150787399773     0.003396336681     1.007825032230
         H            4.214432556879    -0.001598600227     0.040775336681     1.007825032230

  Basis Set: AUG-CC-PVTZ
    Blend: AUG-CC-PVTZ
  Basis Set: (AUG-CC-PVTZ AUX)
    Blend: AUG-CC-PVTZ-JKFIT
	 Reference Energy          =    -852.4376482259987142 [Eh]
	 Singles Energy            =      -0.0000000000000000 [Eh]
	 Same-Spin Energy          =      -0.5390119081914448 [Eh]
	 Opposite-Spin Energy      =      -1.5552021687048536 [Eh]
	 Correlation Energy        =      -2.0942140768962982 [Eh]
	 Total Energy              =    -854.5318623028949787 [Eh]

	 ================> DF-SCS-MP2 Energies <==================
	-----------------------------------------------------------
	 SCS Same-Spin Scale       =       0.3333333333333333 [-]
	 SCS Opposite-Spin Scale   =       1.2000000000000000 [-]
	 SCS Same-Spin Energy      =      -0.1796706360638149 [Eh]
	 SCS Opposite-Spin Energy  =      -1.8662426024458243 [Eh]
	 SCS Correlation Energy    =      -2.0459132385096392 [Eh]
	 SCS Total Energy          =    -854.4835614645083979 [Eh]
	-----------------------------------------------------------

  Dipole Moment: [D]
     X:     7.9181      Y:    -0.0302      Z:    -0.1589     Total:     7.9198

*** Psi4 exiting successfully. Buy a developer a beer!
