                               Psi4 1.4a3.dev225

  ==> Input File <==

--------------------------------------------------------------------------
#psi4
#
memory 32 gb

molecule  {
-1 1
  S       -1.5257420     0.0005400     0.0049580
  O       -1.8754660    -0.0921210     1.4513090
  O       -1.9371370     1.2882720    -0.6202780
  O       -1.9322140    -1.2001240    -0.7773890
  C        0.3120829     0.0036866    -0.0470154
  C        0.9554030    -1.2107120    -0.0284930
  C        0.9595290     1.2147240    -0.0278400
  C        2.3511900    -1.2103390     0.0023180
  C        2.3559220     1.2088420     0.0015130
  C        3.0539450    -0.0018320     0.0226760
  H        0.4020620    -2.1452990    -0.0612980
  H        0.4079720     2.1501410    -0.0584560
  H        2.8913160    -2.1541860     0.0103160
  H        2.8995330     2.1507040     0.0084210
  H        4.1409790    -0.0039320     0.0451330
units angstrom
no_reorient  #important for SAPT in psi4, default
symmetry c1  #important for SAPT in psi4, default
}

set PROPERTIES_ORIGIN ["COM"]
properties('MP2/aug-cc-pvtz', properties = ['dipole'])
--------------------------------------------------------------------------

    Molecular point group: c1
  Charge       = -1
  Multiplicity = 1
  Basis Set: AUG-CC-PVTZ
    Blend: AUG-CC-PVTZ
  Basis Set: (AUG-CC-PVTZ AUX)
    Blend: AUG-CC-PVTZ-JKFIT

    Orbital Energies [Eh]
    ---------------------

    Doubly Occupied:

       1A    -92.011889     2A    -20.348512     3A    -20.348058
       4A    -20.346991     5A    -11.134558     6A    -11.131519
       7A    -11.131270     8A    -11.126327     9A    -11.122671
      10A    -11.122108    11A     -8.972626    12A     -6.658198
      13A     -6.657526    14A     -6.657409    15A     -1.264876
      16A     -1.121390    17A     -1.118592    18A     -1.045746
      19A     -0.911033    20A     -0.908124    21A     -0.731696
      22A     -0.719555    23A     -0.643498    24A     -0.584162
      25A     -0.522823    26A     -0.519272    27A     -0.495730
      28A     -0.481115    29A     -0.460111    30A     -0.454271
      31A     -0.409585    32A     -0.397728    33A     -0.391420
      34A     -0.327858    35A     -0.327333    36A     -0.294126
      37A     -0.286623    38A     -0.266301    39A     -0.244827
      40A     -0.228633    41A     -0.221384

  @DF-RHF Final Energy:  -852.43545523253613

   => Energetics <=

    Nuclear Repulsion Energy =            619.0402404296369241
    One-Electron Energy =               -2414.6564428504066200
    Two-Electron Energy =                 943.1807471882335676
    Total Energy =                       -852.4354552325361283
  Basis Set: (AUG-CC-PVTZ AUX)
    Blend: AUG-CC-PVTZ-RI
    Molecular point group: c1

    Geometry (in Angstrom), charge = -1, multiplicity = 1:

       Center              X                  Y                   Z               Mass
    ------------   -----------------  -----------------  -----------------  -----------------
         S           -1.462133928294     0.000517323002     0.004715327197    31.972071174400
         O           -1.811857928294    -0.092143676998     1.451066327197    15.994914619570
         O           -1.873528928294     1.288249323002    -0.620520672803    15.994914619570
         O           -1.868605928294    -1.200146676998    -0.777631672803    15.994914619570
         C            0.375690971706     0.003663923002    -0.047258072803    12.000000000000
         C            1.019011071706    -1.210734676998    -0.028735672803    12.000000000000
         C            1.023137071706     1.214701323002    -0.028082672803    12.000000000000
         C            2.414798071706    -1.210361676998     0.002075327197    12.000000000000
         C            2.419530071706     1.208819323002     0.001270327197    12.000000000000
         C            3.117553071706    -0.001854676998     0.022433327197    12.000000000000
         H            0.465670071706    -2.145321676998    -0.061540672803     1.007825032230
         H            0.471580071706     2.150118323002    -0.058698672803     1.007825032230
         H            2.954924071706    -2.154208676998     0.010073327197     1.007825032230
         H            2.963141071706     2.150681323002     0.008178327197     1.007825032230
         H            4.204587071706    -0.003954676998     0.044890327197     1.007825032230

  Basis Set: AUG-CC-PVTZ
    Blend: AUG-CC-PVTZ
  Basis Set: (AUG-CC-PVTZ AUX)
    Blend: AUG-CC-PVTZ-JKFIT
	 Reference Energy          =    -852.4354552325361283 [Eh]
	 Singles Energy            =      -0.0000000000000000 [Eh]
	 Same-Spin Energy          =      -0.5389775004286388 [Eh]
	 Opposite-Spin Energy      =      -1.5550052548350517 [Eh]
	 Correlation Energy        =      -2.0939827552636903 [Eh]
	 Total Energy              =    -854.5294379877998381 [Eh]

	 ================> DF-SCS-MP2 Energies <==================
	-----------------------------------------------------------
	 SCS Same-Spin Scale       =       0.3333333333333333 [-]
	 SCS Opposite-Spin Scale   =       1.2000000000000000 [-]
	 SCS Same-Spin Energy      =      -0.1796591668095462 [Eh]
	 SCS Opposite-Spin Energy  =      -1.8660063058020619 [Eh]
	 SCS Correlation Energy    =      -2.0456654726116081 [Eh]
	 SCS Total Energy          =    -854.4811207051477595 [Eh]
	-----------------------------------------------------------

  Dipole Moment: [D]
     X:     8.3797      Y:     0.0088      Z:    -0.1318     Total:     8.3807

*** Psi4 exiting successfully. Buy a developer a beer!
