                               Psi4 1.3.2 release

  ==> Input File <==

--------------------------------------------------------------------------
#psi4
#
memory 32 gb

molecule  {
-1 1
  S       -1.5500650    -0.0000770     0.0055040
  O       -1.8677260    -0.0040310     1.4568130
  O       -1.8762918     1.3073700    -0.6218362
  O       -1.9179590    -1.2504550    -0.7090990
  C        0.2577020     0.0000600    -0.0380210
  C        0.9598570    -1.2082450    -0.0264560
  C        0.9600990     1.2082480    -0.0266860
  C        2.3556760    -1.2079150     0.0024970
  C        2.3559460     1.2077510     0.0021770
  C        3.0593930    -0.0001220     0.0217850
  H        0.3939800    -2.1354100    -0.0629560
  H        0.3942590     2.1354370    -0.0632640
  H        2.8982100    -2.1524450     0.0063830
  H        2.8986710     2.1521870     0.0058350
  H        4.1480910    -0.0001990     0.0432140
units angstrom
no_reorient  #important for SAPT in psi4, default
symmetry c1  #important for SAPT in psi4, default
}

set PROPERTIES_ORIGIN ["COM"]
properties('MP2/aug-cc-pvtz', properties = ['dipole'])
--------------------------------------------------------------------------

    Molecular point group: c1
  Charge       = -1
  Multiplicity = 1
  Basis Set: AUG-CC-PVTZ
    Blend: AUG-CC-PVTZ
  Basis Set: (AUG-CC-PVTZ AUX)
    Blend: AUG-CC-PVTZ-JKFIT

    Orbital Energies [Eh]
    ---------------------

    Doubly Occupied:

       1A    -92.015951     2A    -20.359283     3A    -20.352554
       4A    -20.346806     5A    -11.131926     6A    -11.128031
       7A    -11.127727     8A    -11.123075     9A    -11.120371
      10A    -11.119662    11A     -8.976653    12A     -6.662405
      13A     -6.661570    14A     -6.661482    15A     -1.272212
      16A     -1.134731    17A     -1.121594    18A     -1.036279
      19A     -0.905230    20A     -0.900422    21A     -0.731817
      22A     -0.711721    23A     -0.641452    24A     -0.582624
      25A     -0.522691    26A     -0.512713    27A     -0.495647
      28A     -0.473282    29A     -0.464564    30A     -0.461646
      31A     -0.408858    32A     -0.390648    33A     -0.378759
      34A     -0.336283    35A     -0.331309    36A     -0.299507
      37A     -0.295308    38A     -0.270194    39A     -0.250643
      40A     -0.223847    41A     -0.213777

  @DF-RHF Final Energy:  -852.43604103707594

   => Energetics <=

    Nuclear Repulsion Energy =            619.5283542499298619
    One-Electron Energy =               -2415.6182771227304329
    Two-Electron Energy =                 943.6538818357246328
    Total Energy =                       -852.4360410370759382
  Basis Set: (AUG-CC-PVTZ AUX)
    Blend: AUG-CC-PVTZ-RI
    Molecular point group: c1

    Geometry (in Angstrom), charge = -1, multiplicity = 1:

       Center              X                  Y                   Z               Mass
    ------------   -----------------  -----------------  -----------------  -----------------
         S           -1.486876427960    -0.005429392230    -0.003041373996    31.972071174400
         O           -1.804537427960    -0.009383392230     1.448267626004    15.994914619570
         O           -1.813103227960     1.302017607770    -0.630381573996    15.994914619570
         O           -1.854770427960    -1.255807392230    -0.717644373996    15.994914619570
         C            0.320890572040    -0.005292392230    -0.046566373996    12.000000000000
         C            1.023045572040    -1.213597392230    -0.035001373996    12.000000000000
         C            1.023287572040     1.202895607770    -0.035231373996    12.000000000000
         C            2.418864572040    -1.213267392230    -0.006048373996    12.000000000000
         C            2.419134572040     1.202398607770    -0.006368373996    12.000000000000
         C            3.122581572040    -0.005474392230     0.013239626004    12.000000000000
         H            0.457168572040    -2.140762392230    -0.071501373996     1.007825032230
         H            0.457447572040     2.130084607770    -0.071809373996     1.007825032230
         H            2.961398572040    -2.157797392230    -0.002162373996     1.007825032230
         H            2.961859572040     2.146834607770    -0.002710373996     1.007825032230
         H            4.211279572040    -0.005551392230     0.034668626004     1.007825032230

  Basis Set: AUG-CC-PVTZ
    Blend: AUG-CC-PVTZ
  Basis Set: (AUG-CC-PVTZ AUX)
    Blend: AUG-CC-PVTZ-JKFIT
	 Reference Energy          =    -852.4360410370759382 [Eh]
	 Singles Energy            =      -0.0000000000000000 [Eh]
	 Same-Spin Energy          =      -0.5391791880270220 [Eh]
	 Opposite-Spin Energy      =      -1.5554508769516127 [Eh]
	 Correlation Energy        =      -2.0946300649786345 [Eh]
	 Total Energy              =    -854.5306711020546118 [Eh]

	 ================> DF-SCS-MP2 Energies <==================
	-----------------------------------------------------------
	 SCS Same-Spin Scale       =       0.3333333333333333 [-]
	 SCS Opposite-Spin Scale   =       1.2000000000000000 [-]
	 SCS Same-Spin Energy      =      -0.1797263960090073 [Eh]
	 SCS Opposite-Spin Energy  =      -1.8665410523419350 [Eh]
	 SCS Correlation Energy    =      -2.0462674483509424 [Eh]
	 SCS Total Energy          =    -854.4823084854268700 [Eh]
	-----------------------------------------------------------

  Dipole Moment: [D]
     X:     7.8148      Y:    -0.1116      Z:    -0.3047     Total:     7.8215

*** Psi4 exiting successfully. Buy a developer a beer!
