                               Psi4 1.3.2 release

  ==> Input File <==

--------------------------------------------------------------------------
#psi4
#
memory 32 gb

molecule  {
-1 1
  S       -1.5500650    -0.0000770     0.0055040
  O       -1.8677260    -0.0040310     1.4568130
  O       -1.9173420     1.2548610    -0.7013450
  O       -1.9179590    -1.2504550    -0.7090990
  C        0.3576730     0.0000676    -0.0404280
  C        0.9598570    -1.2082450    -0.0264560
  C        0.9600990     1.2082480    -0.0266860
  C        2.3556760    -1.2079150     0.0024970
  C        2.3559460     1.2077510     0.0021770
  C        3.0593930    -0.0001220     0.0217850
  H        0.3939800    -2.1354100    -0.0629560
  H        0.3942590     2.1354370    -0.0632640
  H        2.8982100    -2.1524450     0.0063830
  H        2.8986710     2.1521870     0.0058350
  H        4.1480910    -0.0001990     0.0432140
units angstrom
no_reorient  #important for SAPT in psi4, default
symmetry c1  #important for SAPT in psi4, default
}

set PROPERTIES_ORIGIN ["COM"]
properties('MP2/aug-cc-pvtz', properties = ['dipole'])
--------------------------------------------------------------------------

    Molecular point group: c1
  Charge       = -1
  Multiplicity = 1
  Basis Set: AUG-CC-PVTZ
    Blend: AUG-CC-PVTZ
  Basis Set: (AUG-CC-PVTZ AUX)
    Blend: AUG-CC-PVTZ-JKFIT

    Orbital Energies [Eh]
    ---------------------

    Doubly Occupied:

       1A    -92.013285     2A    -20.352427     3A    -20.352346
       4A    -20.350933     5A    -11.130694     6A    -11.128924
       7A    -11.128510     8A    -11.117751     9A    -11.115071
      10A    -11.114630    11A     -8.973599    12A     -6.659110
      13A     -6.658477    14A     -6.658390    15A     -1.267875
      16A     -1.126808    17A     -1.124619    18A     -1.047024
      19A     -0.907046    20A     -0.906832    21A     -0.719312
      22A     -0.719055    23A     -0.639035    24A     -0.584076
      25A     -0.518412    26A     -0.517831    27A     -0.493607
      28A     -0.479496    29A     -0.462607    30A     -0.458313
      31A     -0.408016    32A     -0.398211    33A     -0.391554
      34A     -0.331915    35A     -0.331110    36A     -0.297694
      37A     -0.291616    38A     -0.252092    39A     -0.249904
      40A     -0.226019    41A     -0.222084

  @DF-RHF Final Energy:  -852.42921429285570

   => Energetics <=

    Nuclear Repulsion Energy =            618.5831433281334739
    One-Electron Energy =               -2413.7720931889989515
    Two-Electron Energy =                 942.7597355680097735
    Total Energy =                       -852.4292142928557041
  Basis Set: (AUG-CC-PVTZ AUX)
    Blend: AUG-CC-PVTZ-RI
    Molecular point group: c1

    Geometry (in Angstrom), charge = -1, multiplicity = 1:

       Center              X                  Y                   Z               Mass
    ------------   -----------------  -----------------  -----------------  -----------------
         S           -1.490335482731    -0.000080299950     0.005243047027    31.972071174400
         O           -1.807996482731    -0.004034299950     1.456552047027    15.994914619570
         O           -1.857612482731     1.254857700050    -0.701605952973    15.994914619570
         O           -1.858229482731    -1.250458299950    -0.709359952973    15.994914619570
         C            0.417402517269     0.000064300050    -0.040688952973    12.000000000000
         C            1.019586517269    -1.208248299950    -0.026716952973    12.000000000000
         C            1.019828517269     1.208244700050    -0.026946952973    12.000000000000
         C            2.415405517269    -1.207918299950     0.002236047027    12.000000000000
         C            2.415675517269     1.207747700050     0.001916047027    12.000000000000
         C            3.119122517269    -0.000125299950     0.021524047027    12.000000000000
         H            0.453709517269    -2.135413299950    -0.063216952973     1.007825032230
         H            0.453988517269     2.135433700050    -0.063524952973     1.007825032230
         H            2.957939517269    -2.152448299950     0.006122047027     1.007825032230
         H            2.958400517269     2.152183700050     0.005574047027     1.007825032230
         H            4.207820517269    -0.000202299950     0.042953047027     1.007825032230

  Basis Set: AUG-CC-PVTZ
    Blend: AUG-CC-PVTZ
  Basis Set: (AUG-CC-PVTZ AUX)
    Blend: AUG-CC-PVTZ-JKFIT
	 Reference Energy          =    -852.4292142928557041 [Eh]
	 Singles Energy            =      -0.0000000000000000 [Eh]
	 Same-Spin Energy          =      -0.5393306011519891 [Eh]
	 Opposite-Spin Energy      =      -1.5555554667705569 [Eh]
	 Correlation Energy        =      -2.0948860679225461 [Eh]
	 Total Energy              =    -854.5241003607782204 [Eh]

	 ================> DF-SCS-MP2 Energies <==================
	-----------------------------------------------------------
	 SCS Same-Spin Scale       =       0.3333333333333333 [-]
	 SCS Opposite-Spin Scale   =       1.2000000000000000 [-]
	 SCS Same-Spin Energy      =      -0.1797768670506630 [Eh]
	 SCS Opposite-Spin Energy  =      -1.8666665601246681 [Eh]
	 SCS Correlation Energy    =      -2.0464434271753311 [Eh]
	 SCS Total Energy          =    -854.4756577200309948 [Eh]
	-----------------------------------------------------------

  Dipole Moment: [D]
     X:     7.9167      Y:    -0.0012      Z:    -0.1242     Total:     7.9176

*** Psi4 exiting successfully. Buy a developer a beer!
