                               Psi4 1.3.2 release

  ==> Input File <==

--------------------------------------------------------------------------
#psi4
#
memory 32 gb

molecule  {
-1 1
  S       -1.5500650    -0.0000770     0.0055040
  O       -1.8677260    -0.0040310     1.4568130
  O       -1.8668637     1.2647136    -0.7081770
  O       -1.9179590    -1.2504550    -0.7090990
  C        0.2577020     0.0000600    -0.0380210
  C        0.9598570    -1.2082450    -0.0264560
  C        0.9600990     1.2082480    -0.0266860
  C        2.3556760    -1.2079150     0.0024970
  C        2.3559460     1.2077510     0.0021770
  C        3.0593930    -0.0001220     0.0217850
  H        0.3939800    -2.1354100    -0.0629560
  H        0.3942590     2.1354370    -0.0632640
  H        2.8982100    -2.1524450     0.0063830
  H        2.8986710     2.1521870     0.0058350
  H        4.1480910    -0.0001990     0.0432140
units angstrom
no_reorient  #important for SAPT in psi4, default
symmetry c1  #important for SAPT in psi4, default
}

set PROPERTIES_ORIGIN ["COM"]
properties('MP2/aug-cc-pvtz', properties = ['dipole'])
--------------------------------------------------------------------------

    Molecular point group: c1
  Charge       = -1
  Multiplicity = 1
  Basis Set: AUG-CC-PVTZ
    Blend: AUG-CC-PVTZ
  Basis Set: (AUG-CC-PVTZ AUX)
    Blend: AUG-CC-PVTZ-JKFIT

    Orbital Energies [Eh]
    ---------------------

    Doubly Occupied:

       1A    -92.016273     2A    -20.354334     3A    -20.353100
       4A    -20.353003     5A    -11.131562     6A    -11.127797
       7A    -11.127583     8A    -11.122647     9A    -11.119885
      10A    -11.119559    11A     -8.976936    12A     -6.662681
      13A     -6.661857    14A     -6.661774    15A     -1.272382
      16A     -1.130101    17A     -1.127628    18A     -1.035992
      19A     -0.904910    20A     -0.900188    21A     -0.731481
      22A     -0.711499    23A     -0.641348    24A     -0.582329
      25A     -0.522964    26A     -0.512435    27A     -0.495340
      28A     -0.473063    29A     -0.466272    30A     -0.460539
      31A     -0.408923    32A     -0.390742    33A     -0.378564
      34A     -0.334734    35A     -0.333160    36A     -0.301553
      37A     -0.294081    38A     -0.269977    39A     -0.252111
      40A     -0.223618    41A     -0.213717

  @DF-RHF Final Energy:  -852.43692678508023

   => Energetics <=

    Nuclear Repulsion Energy =            619.5289816086908559
    One-Electron Energy =               -2415.6145383403249980
    Two-Electron Energy =                 943.6486299465539105
    Total Energy =                       -852.4369267850802316
  Basis Set: (AUG-CC-PVTZ AUX)
    Blend: AUG-CC-PVTZ-RI
    Molecular point group: c1

    Geometry (in Angstrom), charge = -1, multiplicity = 1:

       Center              X                  Y                   Z               Mass
    ------------   -----------------  -----------------  -----------------  -----------------
         S           -1.487836972891    -0.001083512489     0.005755119228    31.972071174400
         O           -1.805497972891    -0.005037512489     1.457064119228    15.994914619570
         O           -1.804635672891     1.263707087511    -0.707925880772    15.994914619570
         O           -1.855730972891    -1.251461512489    -0.708847880772    15.994914619570
         C            0.319930027109    -0.000946512489    -0.037769880772    12.000000000000
         C            1.022085027109    -1.209251512489    -0.026204880772    12.000000000000
         C            1.022327027109     1.207241487511    -0.026434880772    12.000000000000
         C            2.417904027109    -1.208921512489     0.002748119228    12.000000000000
         C            2.418174027109     1.206744487511     0.002428119228    12.000000000000
         C            3.121621027109    -0.001128512489     0.022036119228    12.000000000000
         H            0.456208027109    -2.136416512489    -0.062704880772     1.007825032230
         H            0.456487027109     2.134430487511    -0.063012880772     1.007825032230
         H            2.960438027109    -2.153451512489     0.006634119228     1.007825032230
         H            2.960899027109     2.151180487511     0.006086119228     1.007825032230
         H            4.210319027109    -0.001205512489     0.043465119228     1.007825032230

  Basis Set: AUG-CC-PVTZ
    Blend: AUG-CC-PVTZ
  Basis Set: (AUG-CC-PVTZ AUX)
    Blend: AUG-CC-PVTZ-JKFIT
	 Reference Energy          =    -852.4369267850802316 [Eh]
	 Singles Energy            =      -0.0000000000000000 [Eh]
	 Same-Spin Energy          =      -0.5391518153732218 [Eh]
	 Opposite-Spin Energy      =      -1.5554558440393014 [Eh]
	 Correlation Energy        =      -2.0946076594125231 [Eh]
	 Total Energy              =    -854.5315344444927632 [Eh]

	 ================> DF-SCS-MP2 Energies <==================
	-----------------------------------------------------------
	 SCS Same-Spin Scale       =       0.3333333333333333 [-]
	 SCS Opposite-Spin Scale   =       1.2000000000000000 [-]
	 SCS Same-Spin Energy      =      -0.1797172717910739 [Eh]
	 SCS Opposite-Spin Energy  =      -1.8665470128471615 [Eh]
	 SCS Correlation Energy    =      -2.0462642846382355 [Eh]
	 SCS Total Energy          =    -854.4831910697184867 [Eh]
	-----------------------------------------------------------

  Dipole Moment: [D]
     X:     7.7791      Y:    -0.0138      Z:    -0.0987     Total:     7.7797

*** Psi4 exiting successfully. Buy a developer a beer!
