                               Psi4 1.3.2 release

  ==> Input File <==

--------------------------------------------------------------------------
#psi4
#
memory 32 gb

molecule  {
-1 1
  S       -1.5500650    -0.0000770     0.0055040
  O       -1.8677260    -0.0040310     1.4568130
  O       -2.0168953     1.2305828    -0.6851068
  O       -1.9179590    -1.2504550    -0.7090990
  C        0.2577020     0.0000600    -0.0380210
  C        0.9598570    -1.2082450    -0.0264560
  C        0.9600990     1.2082480    -0.0266860
  C        2.3556760    -1.2079150     0.0024970
  C        2.3559460     1.2077510     0.0021770
  C        3.0593930    -0.0001220     0.0217850
  H        0.3939800    -2.1354100    -0.0629560
  H        0.3942590     2.1354370    -0.0632640
  H        2.8982100    -2.1524450     0.0063830
  H        2.8986710     2.1521870     0.0058350
  H        4.1480910    -0.0001990     0.0432140
units angstrom
no_reorient  #important for SAPT in psi4, default
symmetry c1  #important for SAPT in psi4, default
}

set PROPERTIES_ORIGIN ["COM"]
properties('MP2/aug-cc-pvtz', properties = ['dipole'])
--------------------------------------------------------------------------

    Molecular point group: c1
  Charge       = -1
  Multiplicity = 1
  Basis Set: AUG-CC-PVTZ
    Blend: AUG-CC-PVTZ
  Basis Set: (AUG-CC-PVTZ AUX)
    Blend: AUG-CC-PVTZ-JKFIT

    Orbital Energies [Eh]
    ---------------------

    Doubly Occupied:

       1A    -92.013736     2A    -20.350785     3A    -20.348562
       4A    -20.347581     5A    -11.135547     6A    -11.131654
       7A    -11.131429     8A    -11.129545     9A    -11.124934
      10A    -11.124573    11A     -8.974600    12A     -6.660293
      13A     -6.659556    14A     -6.659414    15A     -1.269689
      16A     -1.124354    17A     -1.122517    18A     -1.040449
      19A     -0.909816    20A     -0.904385    21A     -0.735883
      22A     -0.715835    23A     -0.643769    24A     -0.583626
      25A     -0.524384    26A     -0.516349    27A     -0.497101
      28A     -0.476984    29A     -0.462802    30A     -0.456641
      31A     -0.412608    32A     -0.394523    33A     -0.382679
      34A     -0.331599    35A     -0.328786    36A     -0.297100
      37A     -0.288717    38A     -0.273670    39A     -0.246392
      40A     -0.227541    41A     -0.217626

  @DF-RHF Final Energy:  -852.43761537043315

   => Energetics <=

    Nuclear Repulsion Energy =            618.3609487727383112
    One-Electron Energy =               -2413.2410646755333801
    Two-Electron Energy =                 942.4425005323619189
    Total Energy =                       -852.4376153704331500
  Basis Set: (AUG-CC-PVTZ AUX)
    Blend: AUG-CC-PVTZ-RI
    Molecular point group: c1

    Geometry (in Angstrom), charge = -1, multiplicity = 1:

       Center              X                  Y                   Z               Mass
    ------------   -----------------  -----------------  -----------------  -----------------
         S           -1.472551592713     0.002393769989     0.003404702531    31.972071174400
         O           -1.790212592713    -0.001560230011     1.454713702531    15.994914619570
         O           -1.939381892713     1.233053569989    -0.687206097469    15.994914619570
         O           -1.840445592713    -1.247984230011    -0.711198297469    15.994914619570
         C            0.335215407287     0.002530769989    -0.040120297469    12.000000000000
         C            1.037370407287    -1.205774230011    -0.028555297469    12.000000000000
         C            1.037612407287     1.210718769989    -0.028785297469    12.000000000000
         C            2.433189407287    -1.205444230011     0.000397702531    12.000000000000
         C            2.433459407287     1.210221769989     0.000077702531    12.000000000000
         C            3.136906407287     0.002348769989     0.019685702531    12.000000000000
         H            0.471493407287    -2.132939230011    -0.065055297469     1.007825032230
         H            0.471772407287     2.137907769989    -0.065363297469     1.007825032230
         H            2.975723407287    -2.149974230011     0.004283702531     1.007825032230
         H            2.976184407287     2.154657769989     0.003735702531     1.007825032230
         H            4.225604407287     0.002271769989     0.041114702531     1.007825032230

  Basis Set: AUG-CC-PVTZ
    Blend: AUG-CC-PVTZ
  Basis Set: (AUG-CC-PVTZ AUX)
    Blend: AUG-CC-PVTZ-JKFIT
	 Reference Energy          =    -852.4376153704331500 [Eh]
	 Singles Energy            =      -0.0000000000000000 [Eh]
	 Same-Spin Energy          =      -0.5387323369227177 [Eh]
	 Opposite-Spin Energy      =      -1.5547636674124392 [Eh]
	 Correlation Energy        =      -2.0934960043351571 [Eh]
	 Total Energy              =    -854.5311113747683294 [Eh]

	 ================> DF-SCS-MP2 Energies <==================
	-----------------------------------------------------------
	 SCS Same-Spin Scale       =       0.3333333333333333 [-]
	 SCS Opposite-Spin Scale   =       1.2000000000000000 [-]
	 SCS Same-Spin Energy      =      -0.1795774456409059 [Eh]
	 SCS Opposite-Spin Energy  =      -1.8657164008949270 [Eh]
	 SCS Correlation Energy    =      -2.0452938465358330 [Eh]
	 SCS Total Energy          =    -854.4829092169690057 [Eh]
	-----------------------------------------------------------

  Dipole Moment: [D]
     X:     8.2839      Y:     0.0331      Z:    -0.1408     Total:     8.2851

*** Psi4 exiting successfully. Buy a developer a beer!
