                               Psi4 1.3.2 release

  ==> Input File <==

--------------------------------------------------------------------------
#psi4
#
memory 32 gb

molecule  {
-1 1
  S       -1.5500650    -0.0000770     0.0055040
  O       -1.8677260    -0.0040310     1.4568130
  O       -1.9173420     1.2548610    -0.7013450
  O       -1.9179590    -1.2504550    -0.7090990
  C        0.4576441     0.0000752    -0.0428349
  C        0.9598570    -1.2082450    -0.0264560
  C        0.9600990     1.2082480    -0.0266860
  C        2.3556760    -1.2079150     0.0024970
  C        2.3559460     1.2077510     0.0021770
  C        3.0593930    -0.0001220     0.0217850
  H        0.3939800    -2.1354100    -0.0629560
  H        0.3942590     2.1354370    -0.0632640
  H        2.8982100    -2.1524450     0.0063830
  H        2.8986710     2.1521870     0.0058350
  H        4.1480910    -0.0001990     0.0432140
units angstrom
no_reorient  #important for SAPT in psi4, default
symmetry c1  #important for SAPT in psi4, default
}

set PROPERTIES_ORIGIN ["COM"]
properties('MP2/aug-cc-pvtz', properties = ['dipole'])
--------------------------------------------------------------------------

    Molecular point group: c1
  Charge       = -1
  Multiplicity = 1
  Basis Set: AUG-CC-PVTZ
    Blend: AUG-CC-PVTZ
  Basis Set: (AUG-CC-PVTZ AUX)
    Blend: AUG-CC-PVTZ-JKFIT

    Orbital Energies [Eh]
    ---------------------

    Doubly Occupied:

       1A    -92.008336     2A    -20.351603     3A    -20.351528
       4A    -20.349808     5A    -11.130121     6A    -11.129680
       7A    -11.128090     8A    -11.112952     9A    -11.110708
      10A    -11.109897    11A     -8.968896    12A     -6.654204
      13A     -6.653667    14A     -6.653581    15A     -1.264175
      16A     -1.124821    17A     -1.122519    18A     -1.058648
      19A     -0.914674    20A     -0.907473    21A     -0.725674
      22A     -0.709372    23A     -0.635829    24A     -0.585859
      25A     -0.525810    26A     -0.515748    27A     -0.488605
      28A     -0.483559    29A     -0.459793    30A     -0.456454
      31A     -0.408715    32A     -0.404323    33A     -0.400508
      34A     -0.330105    35A     -0.329126    36A     -0.294950
      37A     -0.289964    38A     -0.248853    39A     -0.228718
      40A     -0.228180    41A     -0.227426

  @DF-RHF Final Energy:  -852.40131202364148

   => Energetics <=

    Nuclear Repulsion Energy =            618.2339165758540958
    One-Electron Energy =               -2413.1045571059430586
    Two-Electron Energy =                 942.4693285064475958
    Total Energy =                       -852.4013120236414807
  Basis Set: (AUG-CC-PVTZ AUX)
    Blend: AUG-CC-PVTZ-RI
    Molecular point group: c1

    Geometry (in Angstrom), charge = -1, multiplicity = 1:

       Center              X                  Y                   Z               Mass
    ------------   -----------------  -----------------  -----------------  -----------------
         S           -1.497976783509    -0.000080880857     0.005427018663    31.972071174400
         O           -1.815637783509    -0.004034880857     1.456736018663    15.994914619570
         O           -1.865253783509     1.254857119143    -0.701421981337    15.994914619570
         O           -1.865870783509    -1.250458880857    -0.709175981337    15.994914619570
         C            0.509732316491     0.000071319143    -0.042911881337    12.000000000000
         C            1.011945216491    -1.208248880857    -0.026532981337    12.000000000000
         C            1.012187216491     1.208244119143    -0.026762981337    12.000000000000
         C            2.407764216491    -1.207918880857     0.002420018663    12.000000000000
         C            2.408034216491     1.207747119143     0.002100018663    12.000000000000
         C            3.111481216491    -0.000125880857     0.021708018663    12.000000000000
         H            0.446068216491    -2.135413880857    -0.063032981337     1.007825032230
         H            0.446347216491     2.135433119143    -0.063340981337     1.007825032230
         H            2.950298216491    -2.152448880857     0.006306018663     1.007825032230
         H            2.950759216491     2.152183119143     0.005758018663     1.007825032230
         H            4.200179216491    -0.000202880857     0.043137018663     1.007825032230

  Basis Set: AUG-CC-PVTZ
    Blend: AUG-CC-PVTZ
  Basis Set: (AUG-CC-PVTZ AUX)
    Blend: AUG-CC-PVTZ-JKFIT
	 Reference Energy          =    -852.4013120236414807 [Eh]
	 Singles Energy            =      -0.0000000000000000 [Eh]
	 Same-Spin Energy          =      -0.5407562865290699 [Eh]
	 Opposite-Spin Energy      =      -1.5577766718050214 [Eh]
	 Correlation Energy        =      -2.0985329583340913 [Eh]
	 Total Energy              =    -854.4998449819755706 [Eh]

	 ================> DF-SCS-MP2 Energies <==================
	-----------------------------------------------------------
	 SCS Same-Spin Scale       =       0.3333333333333333 [-]
	 SCS Opposite-Spin Scale   =       1.2000000000000000 [-]
	 SCS Same-Spin Energy      =      -0.1802520955096900 [Eh]
	 SCS Opposite-Spin Energy  =      -1.8693320061660257 [Eh]
	 SCS Correlation Energy    =      -2.0495841016757157 [Eh]
	 SCS Total Energy          =    -854.4508961253171719 [Eh]
	-----------------------------------------------------------

  Dipole Moment: [D]
     X:     7.8942      Y:    -0.0011      Z:    -0.1351     Total:     7.8953

*** Psi4 exiting successfully. Buy a developer a beer!
