                               Psi4 1.3.2 release

  ==> Input File <==

--------------------------------------------------------------------------
#psi4
#
memory 32 gb

molecule  {
-1 1
  S       -1.5489232    -0.0631679     0.0069630
  O       -1.8677260    -0.0040310     1.4568130
  O       -1.9173420     1.2548610    -0.7013450
  O       -1.9179590    -1.2504550    -0.7090990
  C        0.2577020     0.0000600    -0.0380210
  C        0.9598570    -1.2082450    -0.0264560
  C        0.9600990     1.2082480    -0.0266860
  C        2.3556760    -1.2079150     0.0024970
  C        2.3559460     1.2077510     0.0021770
  C        3.0593930    -0.0001220     0.0217850
  H        0.3939800    -2.1354100    -0.0629560
  H        0.3942590     2.1354370    -0.0632640
  H        2.8982100    -2.1524450     0.0063830
  H        2.8986710     2.1521870     0.0058350
  H        4.1480910    -0.0001990     0.0432140
units angstrom
no_reorient  #important for SAPT in psi4, default
symmetry c1  #important for SAPT in psi4, default
}

set PROPERTIES_ORIGIN ["COM"]
properties('MP2/aug-cc-pvtz', properties = ['dipole'])
--------------------------------------------------------------------------

    Molecular point group: c1
  Charge       = -1
  Multiplicity = 1
  Basis Set: AUG-CC-PVTZ
    Blend: AUG-CC-PVTZ
  Basis Set: (AUG-CC-PVTZ AUX)
    Blend: AUG-CC-PVTZ-JKFIT

    Orbital Energies [Eh]
    ---------------------

    Doubly Occupied:

       1A    -92.014484     2A    -20.365983     3A    -20.351592
       4A    -20.338283     5A    -11.133000     6A    -11.129239
       7A    -11.128907     8A    -11.125156     9A    -11.121740
      10A    -11.121343    11A     -8.975743    12A     -6.661423
      13A     -6.660901    14A     -6.660305    15A     -1.279652
      16A     -1.146712    17A     -1.100235    18A     -1.037538
      19A     -0.906868    20A     -0.901543    21A     -0.733298
      22A     -0.712966    23A     -0.642403    24A     -0.583110
      25A     -0.524693    26A     -0.514052    27A     -0.496874
      28A     -0.474440    29A     -0.468519    30A     -0.460038
      31A     -0.410882    32A     -0.392401    33A     -0.380113
      34A     -0.336118    35A     -0.331809    36A     -0.307522
      37A     -0.283922    38A     -0.266686    39A     -0.246548
      40A     -0.225085    41A     -0.214770

  @DF-RHF Final Energy:  -852.43167431172583

   => Energetics <=

    Nuclear Repulsion Energy =            619.1567041344093241
    One-Electron Energy =               -2414.8429629302049761
    Two-Electron Energy =                 943.2545844840699374
    Total Energy =                       -852.4316743117258284
  Basis Set: (AUG-CC-PVTZ AUX)
    Blend: AUG-CC-PVTZ-RI
    Molecular point group: c1

    Geometry (in Angstrom), charge = -1, multiplicity = 1:

       Center              X                  Y                   Z               Mass
    ------------   -----------------  -----------------  -----------------  -----------------
         S           -1.481784916060    -0.050322218360     0.006220943810    31.972071174400
         O           -1.800587716060     0.008814681640     1.456070943810    15.994914619570
         O           -1.850203716060     1.267706681640    -0.702087056190    15.994914619570
         O           -1.850820716060    -1.237609318360    -0.709841056190    15.994914619570
         C            0.324840283940     0.012905681640    -0.038763056190    12.000000000000
         C            1.026995283940    -1.195399318360    -0.027198056190    12.000000000000
         C            1.027237283940     1.221093681640    -0.027428056190    12.000000000000
         C            2.422814283940    -1.195069318360     0.001754943810    12.000000000000
         C            2.423084283940     1.220596681640     0.001434943810    12.000000000000
         C            3.126531283940     0.012723681640     0.021042943810    12.000000000000
         H            0.461118283940    -2.122564318360    -0.063698056190     1.007825032230
         H            0.461397283940     2.148282681640    -0.064006056190     1.007825032230
         H            2.965348283940    -2.139599318360     0.005640943810     1.007825032230
         H            2.965809283940     2.165032681640     0.005092943810     1.007825032230
         H            4.215229283940     0.012646681640     0.042471943810     1.007825032230

  Basis Set: AUG-CC-PVTZ
    Blend: AUG-CC-PVTZ
  Basis Set: (AUG-CC-PVTZ AUX)
    Blend: AUG-CC-PVTZ-JKFIT
	 Reference Energy          =    -852.4316743117258284 [Eh]
	 Singles Energy            =      -0.0000000000000000 [Eh]
	 Same-Spin Energy          =      -0.5389488431509571 [Eh]
	 Opposite-Spin Energy      =      -1.5552683928359716 [Eh]
	 Correlation Energy        =      -2.0942172359869287 [Eh]
	 Total Energy              =    -854.5258915477127175 [Eh]

	 ================> DF-SCS-MP2 Energies <==================
	-----------------------------------------------------------
	 SCS Same-Spin Scale       =       0.3333333333333333 [-]
	 SCS Opposite-Spin Scale   =       1.2000000000000000 [-]
	 SCS Same-Spin Energy      =      -0.1796496143836524 [Eh]
	 SCS Opposite-Spin Energy  =      -1.8663220714031659 [Eh]
	 SCS Correlation Energy    =      -2.0459716857868182 [Eh]
	 SCS Total Energy          =    -854.4776459975126954 [Eh]
	-----------------------------------------------------------

  Dipole Moment: [D]
     X:     7.9720      Y:    -0.6652      Z:    -0.0866     Total:     8.0002

*** Psi4 exiting successfully. Buy a developer a beer!
