                               Psi4 1.3.2 release

  ==> Input File <==

--------------------------------------------------------------------------
#psi4
#
memory 32 gb

molecule  {
-1 1
  S       -1.5455803    -0.1261817     0.0083672
  O       -1.8677260    -0.0040310     1.4568130
  O       -1.9173420     1.2548610    -0.7013450
  O       -1.9179590    -1.2504550    -0.7090990
  C        0.2577020     0.0000600    -0.0380210
  C        0.9598570    -1.2082450    -0.0264560
  C        0.9600990     1.2082480    -0.0266860
  C        2.3556760    -1.2079150     0.0024970
  C        2.3559460     1.2077510     0.0021770
  C        3.0593930    -0.0001220     0.0217850
  H        0.3939800    -2.1354100    -0.0629560
  H        0.3942590     2.1354370    -0.0632640
  H        2.8982100    -2.1524450     0.0063830
  H        2.8986710     2.1521870     0.0058350
  H        4.1480910    -0.0001990     0.0432140
units angstrom
no_reorient  #important for SAPT in psi4, default
symmetry c1  #important for SAPT in psi4, default
}

set PROPERTIES_ORIGIN ["COM"]
properties('MP2/aug-cc-pvtz', properties = ['dipole'])
--------------------------------------------------------------------------

    Molecular point group: c1
  Charge       = -1
  Multiplicity = 1
  Basis Set: AUG-CC-PVTZ
    Blend: AUG-CC-PVTZ
  Basis Set: (AUG-CC-PVTZ AUX)
    Blend: AUG-CC-PVTZ-JKFIT

    Orbital Energies [Eh]
    ---------------------

    Doubly Occupied:

       1A    -92.011764     2A    -20.379207     3A    -20.351827
       4A    -20.324485     5A    -11.133170     6A    -11.129519
       7A    -11.128968     8A    -11.125708     9A    -11.122106
      10A    -11.121436    11A     -8.974620    12A     -6.660401
      13A     -6.659788    14A     -6.658779    15A     -1.302041
      16A     -1.157381    17A     -1.070330    18A     -1.037399
      19A     -0.907595    20A     -0.901329    21A     -0.734217
      22A     -0.712930    23A     -0.643174    24A     -0.584303
      25A     -0.528501    26A     -0.514985    27A     -0.499026
      28A     -0.476840    29A     -0.474521    30A     -0.464280
      31A     -0.412948    32A     -0.393354    33A     -0.380565
      34A     -0.342779    35A     -0.331865    36A     -0.312758
      37A     -0.273449    38A     -0.254655    39A     -0.237267
      40A     -0.225415    41A     -0.213320

  @DF-RHF Final Energy:  -852.41309602137721

   => Energetics <=

    Nuclear Repulsion Energy =            619.2888313734880512
    One-Electron Energy =               -2415.0658523954534758
    Two-Electron Energy =                 943.3639250005883241
    Total Energy =                       -852.4130960213772141
  Basis Set: (AUG-CC-PVTZ AUX)
    Blend: AUG-CC-PVTZ-RI
    Molecular point group: c1

    Geometry (in Angstrom), charge = -1, multiplicity = 1:

       Center              X                  Y                   Z               Mass
    ------------   -----------------  -----------------  -----------------  -----------------
         S           -1.479122794408    -0.100503319017     0.007339179840    31.972071174400
         O           -1.801268494408     0.021647380983     1.455784979840    15.994914619570
         O           -1.850884494408     1.280539380983    -0.702373020160    15.994914619570
         O           -1.851501494408    -1.224776619017    -0.710127020160    15.994914619570
         C            0.324159505592     0.025738380983    -0.039049020160    12.000000000000
         C            1.026314505592    -1.182566619017    -0.027484020160    12.000000000000
         C            1.026556505592     1.233926380983    -0.027714020160    12.000000000000
         C            2.422133505592    -1.182236619017     0.001468979840    12.000000000000
         C            2.422403505592     1.233429380983     0.001148979840    12.000000000000
         C            3.125850505592     0.025556380983     0.020756979840    12.000000000000
         H            0.460437505592    -2.109731619017    -0.063984020160     1.007825032230
         H            0.460716505592     2.161115380983    -0.064292020160     1.007825032230
         H            2.964667505592    -2.126766619017     0.005354979840     1.007825032230
         H            2.965128505592     2.177865380983     0.004806979840     1.007825032230
         H            4.214548505592     0.025479380983     0.042185979840     1.007825032230

  Basis Set: AUG-CC-PVTZ
    Blend: AUG-CC-PVTZ
  Basis Set: (AUG-CC-PVTZ AUX)
    Blend: AUG-CC-PVTZ-JKFIT
	 Reference Energy          =    -852.4130960213772141 [Eh]
	 Singles Energy            =      -0.0000000000000000 [Eh]
	 Same-Spin Energy          =      -0.5389013086314951 [Eh]
	 Opposite-Spin Energy      =      -1.5556495542556257 [Eh]
	 Correlation Energy        =      -2.0945508628871208 [Eh]
	 Total Energy              =    -854.5076468842643180 [Eh]

	 ================> DF-SCS-MP2 Energies <==================
	-----------------------------------------------------------
	 SCS Same-Spin Scale       =       0.3333333333333333 [-]
	 SCS Opposite-Spin Scale   =       1.2000000000000000 [-]
	 SCS Same-Spin Energy      =      -0.1796337695438317 [Eh]
	 SCS Opposite-Spin Energy  =      -1.8667794651067506 [Eh]
	 SCS Correlation Energy    =      -2.0464132346505823 [Eh]
	 SCS Total Energy          =    -854.4595092560277863 [Eh]
	-----------------------------------------------------------

  Dipole Moment: [D]
     X:     8.0293      Y:    -1.3260      Z:    -0.0468     Total:     8.1382

*** Psi4 exiting successfully. Buy a developer a beer!
