                               Psi4 1.4a2.dev612

  ==> Input File <==

--------------------------------------------------------------------------
#psi4
#
memory 32 gb

molecule  {
0 1
 Cl        1.4875760    -0.8585340    -1.4502940
 Cl        1.6673240     1.6297210    -0.0000070
 Cl        1.4875730    -0.8585200     1.4503030
  C       -0.5967930     0.0636340    -0.0000010
  C       -1.2815000    -1.1610580    -0.0000010
  C       -1.3211830     1.2579990    -0.0000020
  C        0.9157561     0.0178649    -0.3000010
  C       -2.6727010    -1.1855470     0.0000010
  C       -2.7178890     1.2245560     0.0000000
  C       -3.3986470     0.0087400    -0.0000010
  H       -0.7254190    -2.0945270     0.0000000
  H       -0.8108600     2.2139340    -0.0000010
  H       -3.1911200    -2.1409440     0.0000000
  H       -3.2714520     2.1600600    -0.0000020
  H       -4.4854430    -0.0109760     0.0000010
units angstrom
no_reorient  #important for SAPT in psi4, default
symmetry c1  #important for SAPT in psi4, default
}

set PROPERTIES_ORIGIN ["COM"]
properties('MP2/aug-cc-pvtz', properties = ['dipole'])
--------------------------------------------------------------------------

    Molecular point group: c1
  Charge       = 0
  Multiplicity = 1
  Basis Set: AUG-CC-PVTZ
    Blend: AUG-CC-PVTZ
  Basis Set: (AUG-CC-PVTZ AUX)
    Blend: AUG-CC-PVTZ-JKFIT

    Orbital Energies [Eh]
    ---------------------

    Doubly Occupied:

       1A   -104.892600     2A   -104.862073     3A   -104.811443
       4A    -11.451215     5A    -11.282256     6A    -11.258903
       7A    -11.257801     8A    -11.255677     9A    -11.253314
      10A    -11.252863    11A    -10.621769    12A    -10.586098
      13A    -10.535491    14A     -8.089127    15A     -8.086147
      16A     -8.085994    17A     -8.052765    18A     -8.050726
      19A     -8.050703    20A     -8.001847    21A     -8.000228
      22A     -8.000202    23A     -1.290033    24A     -1.172725
      25A     -1.133690    26A     -1.061525    27A     -1.037909
      28A     -1.032187    29A     -0.890628    30A     -0.846782
      31A     -0.801175    32A     -0.728598    33A     -0.677177
      34A     -0.664796    35A     -0.634847    36A     -0.628852
      37A     -0.612206    38A     -0.604211    39A     -0.540212
      40A     -0.524539    41A     -0.514830    42A     -0.503533
      43A     -0.485158    44A     -0.473102    45A     -0.444817
      46A     -0.428782    47A     -0.417905    48A     -0.355114
      49A     -0.346561

  @DF-RHF Final Energy: -1646.56110053009206

   => Energetics <=

    Nuclear Repulsion Energy =            773.6949833557923739
    One-Electron Energy =               -3807.3298965074927764
    Two-Electron Energy =                1387.0738126216083401
    Total Energy =                      -1646.5611005300920624
  Basis Set: (AUG-CC-PVTZ AUX)
    Blend: AUG-CC-PVTZ-RI
    Molecular point group: c1

    Geometry (in Angstrom), charge = 0, multiplicity = 1:

       Center              X                  Y                   Z               Mass
    ------------   -----------------  -----------------  -----------------  -----------------
         CL           1.400518183940    -0.857445432581    -1.431732142791    34.968852682000
         CL           1.580266183940     1.630809567419     0.018554857209    34.968852682000
         CL           1.400515183940    -0.857431432581     1.468864857209    34.968852682000
         C           -0.683850816060     0.064722567419     0.018560857209    12.000000000000
         C           -1.368557816060    -1.159969432581     0.018560857209    12.000000000000
         C           -1.408240816060     1.259087567419     0.018559857209    12.000000000000
         C            0.828698283940     0.018953467419    -0.281439142791    12.000000000000
         C           -2.759758816060    -1.184458432581     0.018562857209    12.000000000000
         C           -2.804946816060     1.225644567419     0.018561857209    12.000000000000
         C           -3.485704816060     0.009828567419     0.018560857209    12.000000000000
         H           -0.812476816060    -2.093438432581     0.018561857209     1.007825032230
         H           -0.897917816060     2.215022567419     0.018560857209     1.007825032230
         H           -3.278177816060    -2.139855432581     0.018561857209     1.007825032230
         H           -3.358509816060     2.161148567419     0.018559857209     1.007825032230
         H           -4.572500816060    -0.009887432581     0.018562857209     1.007825032230

  Basis Set: AUG-CC-PVTZ
    Blend: AUG-CC-PVTZ
  Basis Set: (AUG-CC-PVTZ AUX)
    Blend: AUG-CC-PVTZ-JKFIT
	 Reference Energy          =   -1646.5611005300920624 [Eh]
	 Singles Energy            =      -0.0000000000000000 [Eh]
	 Same-Spin Energy          =      -0.4996308145934755 [Eh]
	 Opposite-Spin Energy      =      -1.4683066463318020 [Eh]
	 Correlation Energy        =      -1.9679374609252775 [Eh]
	 Total Energy              =   -1648.5290379910172760 [Eh]

	 ================> DF-SCS-MP2 Energies <==================
	-----------------------------------------------------------
	 SCS Same-Spin Scale       =       0.3333333333333333 [-]
	 SCS Opposite-Spin Scale   =       1.2000000000000000 [-]
	 SCS Same-Spin Energy      =      -0.1665436048644918 [Eh]
	 SCS Opposite-Spin Energy  =      -1.7619679755981623 [Eh]
	 SCS Correlation Energy    =      -1.9285115804626543 [Eh]
	 SCS Total Energy          =   -1648.4896121105546172 [Eh]
	-----------------------------------------------------------

  Dipole Moment: [D]
     X:    -2.2804      Y:    -0.0047      Z:    -1.8194     Total:     2.9173

*** Psi4 exiting successfully. Buy a developer a beer!
