                               Psi4 1.4a2.dev612

  ==> Input File <==

--------------------------------------------------------------------------
#psi4
#
memory 32 gb

molecule  {
0 1
 Cl        1.4875760    -0.8585340    -1.4502940
 Cl        1.6673240     1.6297210    -0.0000070
 Cl        1.4875730    -0.8585200     1.4503030
  C       -0.5967930     0.0636340    -0.0000010
  C       -1.2815000    -1.1610580    -0.0000010
  C       -1.3211830     1.2579990    -0.0000020
  C        0.9157561     0.0178649    -0.2500010
  C       -2.6727010    -1.1855470     0.0000010
  C       -2.7178890     1.2245560     0.0000000
  C       -3.3986470     0.0087400    -0.0000010
  H       -0.7254190    -2.0945270     0.0000000
  H       -0.8108600     2.2139340    -0.0000010
  H       -3.1911200    -2.1409440     0.0000000
  H       -3.2714520     2.1600600    -0.0000020
  H       -4.4854430    -0.0109760     0.0000010
units angstrom
no_reorient  #important for SAPT in psi4, default
symmetry c1  #important for SAPT in psi4, default
}

set PROPERTIES_ORIGIN ["COM"]
properties('MP2/aug-cc-pvtz', properties = ['dipole'])
--------------------------------------------------------------------------

    Molecular point group: c1
  Charge       = 0
  Multiplicity = 1
  Basis Set: AUG-CC-PVTZ
    Blend: AUG-CC-PVTZ
  Basis Set: (AUG-CC-PVTZ AUX)
    Blend: AUG-CC-PVTZ-JKFIT

    Orbital Energies [Eh]
    ---------------------

    Doubly Occupied:

       1A   -104.886035     2A   -104.861820     3A   -104.820779
       4A    -11.448723     5A    -11.280304     6A    -11.258549
       7A    -11.257593     8A    -11.255436     9A    -11.253027
      10A    -11.252545    11A    -10.614095    12A    -10.585990
      13A    -10.544670    14A     -8.081322    15A     -8.078549
      16A     -8.078429    17A     -8.052677    18A     -8.050632
      19A     -8.050613    20A     -8.011070    21A     -8.009376
      22A     -8.009351    23A     -1.277015    24A     -1.170945
      25A     -1.132211    26A     -1.068268    27A     -1.040032
      28A     -1.032595    29A     -0.891185    30A     -0.846546
      31A     -0.799014    32A     -0.726122    33A     -0.673396
      34A     -0.663072    35A     -0.633013    36A     -0.627186
      37A     -0.609491    38A     -0.602607    39A     -0.538568
      40A     -0.524247    41A     -0.514278    42A     -0.503632
      43A     -0.486649    44A     -0.470835    45A     -0.450622
      46A     -0.434694    47A     -0.424828    48A     -0.355035
      49A     -0.347685

  @DF-RHF Final Energy: -1646.57607053948686

   => Energetics <=

    Nuclear Repulsion Energy =            773.6970765139137711
    One-Electron Energy =               -3807.3755852869239789
    Two-Electron Energy =                1387.1024382335235714
    Total Energy =                      -1646.5760705394868637
  Basis Set: (AUG-CC-PVTZ AUX)
    Blend: AUG-CC-PVTZ-RI
    Molecular point group: c1

    Geometry (in Angstrom), charge = 0, multiplicity = 1:

       Center              X                  Y                   Z               Mass
    ------------   -----------------  -----------------  -----------------  -----------------
         CL           1.400518183940    -0.857445432581    -1.434825792467    34.968852682000
         CL           1.580266183940     1.630809567419     0.015461207533    34.968852682000
         CL           1.400515183940    -0.857431432581     1.465771207533    34.968852682000
         C           -0.683850816060     0.064722567419     0.015467207533    12.000000000000
         C           -1.368557816060    -1.159969432581     0.015467207533    12.000000000000
         C           -1.408240816060     1.259087567419     0.015466207533    12.000000000000
         C            0.828698283940     0.018953467419    -0.234532792467    12.000000000000
         C           -2.759758816060    -1.184458432581     0.015469207533    12.000000000000
         C           -2.804946816060     1.225644567419     0.015468207533    12.000000000000
         C           -3.485704816060     0.009828567419     0.015467207533    12.000000000000
         H           -0.812476816060    -2.093438432581     0.015468207533     1.007825032230
         H           -0.897917816060     2.215022567419     0.015467207533     1.007825032230
         H           -3.278177816060    -2.139855432581     0.015468207533     1.007825032230
         H           -3.358509816060     2.161148567419     0.015466207533     1.007825032230
         H           -4.572500816060    -0.009887432581     0.015469207533     1.007825032230

  Basis Set: AUG-CC-PVTZ
    Blend: AUG-CC-PVTZ
  Basis Set: (AUG-CC-PVTZ AUX)
    Blend: AUG-CC-PVTZ-JKFIT
	 Reference Energy          =   -1646.5760705394868637 [Eh]
	 Singles Energy            =      -0.0000000000000000 [Eh]
	 Same-Spin Energy          =      -0.4987903181866195 [Eh]
	 Opposite-Spin Energy      =      -1.4672981476036906 [Eh]
	 Correlation Energy        =      -1.9660884657903099 [Eh]
	 Total Energy              =   -1648.5421590052771990 [Eh]

	 ================> DF-SCS-MP2 Energies <==================
	-----------------------------------------------------------
	 SCS Same-Spin Scale       =       0.3333333333333333 [-]
	 SCS Opposite-Spin Scale   =       1.2000000000000000 [-]
	 SCS Same-Spin Energy      =      -0.1662634393955398 [Eh]
	 SCS Opposite-Spin Energy  =      -1.7607577771244287 [Eh]
	 SCS Correlation Energy    =      -1.9270212165199685 [Eh]
	 SCS Total Energy          =   -1648.5030917560068247 [Eh]
	-----------------------------------------------------------

  Dipole Moment: [D]
     X:    -2.2788      Y:     0.0244      Z:    -1.4847     Total:     2.7199

*** Psi4 exiting successfully. Buy a developer a beer!
