                               Psi4 1.4a2.dev612

  ==> Input File <==

--------------------------------------------------------------------------
#psi4
#
memory 32 gb

molecule  {
0 1
 Cl        1.4875760    -0.8585340    -1.4502940
 Cl        1.6673240     1.6297210    -0.0000070
 Cl        1.4875730    -0.8585200     1.4503030
  C       -0.5967930     0.0636340    -0.0000010
  C       -1.2815000    -1.1610580    -0.0000010
  C       -1.3211830     1.2579990    -0.0000020
  C        0.9157560     0.0178649    -0.2000010
  C       -2.6727010    -1.1855470     0.0000010
  C       -2.7178890     1.2245560     0.0000000
  C       -3.3986470     0.0087400    -0.0000010
  H       -0.7254190    -2.0945270     0.0000000
  H       -0.8108600     2.2139340    -0.0000010
  H       -3.1911200    -2.1409440     0.0000000
  H       -3.2714520     2.1600600    -0.0000020
  H       -4.4854430    -0.0109760     0.0000010
units angstrom
no_reorient  #important for SAPT in psi4, default
symmetry c1  #important for SAPT in psi4, default
}

set PROPERTIES_ORIGIN ["COM"]
properties('MP2/aug-cc-pvtz', properties = ['dipole'])
--------------------------------------------------------------------------

    Molecular point group: c1
  Charge       = 0
  Multiplicity = 1
  Basis Set: AUG-CC-PVTZ
    Blend: AUG-CC-PVTZ
  Basis Set: (AUG-CC-PVTZ AUX)
    Blend: AUG-CC-PVTZ-JKFIT

    Orbital Energies [Eh]
    ---------------------

    Doubly Occupied:

       1A   -104.879923     2A   -104.861566     3A   -104.829307
       4A    -11.446547     5A    -11.278681     6A    -11.258246
       7A    -11.257420     8A    -11.255229     9A    -11.252787
      10A    -11.252276    11A    -10.607011    12A    -10.585862
      13A    -10.553123    14A     -8.074117    15A     -8.071524
      16A     -8.071430    17A     -8.052566    18A     -8.050515
      19A     -8.050499    20A     -8.019573    21A     -8.017806
      22A     -8.017781    23A     -1.266555    24A     -1.169110
      25A     -1.129603    26A     -1.075817    27A     -1.041463
      28A     -1.032603    29A     -0.891688    30A     -0.846346
      31A     -0.797378    32A     -0.724109    33A     -0.669701
      34A     -0.661819    35A     -0.631604    36A     -0.625765
      37A     -0.608006    38A     -0.600782    39A     -0.536874
      40A     -0.524416    41A     -0.513950    42A     -0.502922
      43A     -0.488013    44A     -0.468271    45A     -0.455936
      46A     -0.439873    47A     -0.430971    48A     -0.355016
      49A     -0.348479

  @DF-RHF Final Energy: -1646.58812058044168

   => Energetics <=

    Nuclear Repulsion Energy =            773.6996644294777070
    One-Electron Energy =               -3807.4138540928965995
    Two-Electron Energy =                1387.1260690829772102
    Total Energy =                      -1646.5881205804416823
  Basis Set: (AUG-CC-PVTZ AUX)
    Blend: AUG-CC-PVTZ-RI
    Molecular point group: c1

    Geometry (in Angstrom), charge = 0, multiplicity = 1:

       Center              X                  Y                   Z               Mass
    ------------   -----------------  -----------------  -----------------  -----------------
         CL           1.400518190127    -0.857445432581    -1.437919442143    34.968852682000
         CL           1.580266190127     1.630809567419     0.012367557857    34.968852682000
         CL           1.400515190127    -0.857431432581     1.462677557857    34.968852682000
         C           -0.683850809873     0.064722567419     0.012373557857    12.000000000000
         C           -1.368557809873    -1.159969432581     0.012373557857    12.000000000000
         C           -1.408240809873     1.259087567419     0.012372557857    12.000000000000
         C            0.828698190127     0.018953467419    -0.187626442143    12.000000000000
         C           -2.759758809873    -1.184458432581     0.012375557857    12.000000000000
         C           -2.804946809873     1.225644567419     0.012374557857    12.000000000000
         C           -3.485704809873     0.009828567419     0.012373557857    12.000000000000
         H           -0.812476809873    -2.093438432581     0.012374557857     1.007825032230
         H           -0.897917809873     2.215022567419     0.012373557857     1.007825032230
         H           -3.278177809873    -2.139855432581     0.012374557857     1.007825032230
         H           -3.358509809873     2.161148567419     0.012372557857     1.007825032230
         H           -4.572500809873    -0.009887432581     0.012375557857     1.007825032230

  Basis Set: AUG-CC-PVTZ
    Blend: AUG-CC-PVTZ
  Basis Set: (AUG-CC-PVTZ AUX)
    Blend: AUG-CC-PVTZ-JKFIT
	 Reference Energy          =   -1646.5881205804416823 [Eh]
	 Singles Energy            =      -0.0000000000000000 [Eh]
	 Same-Spin Energy          =      -0.4980669354896593 [Eh]
	 Opposite-Spin Energy      =      -1.4664165073729833 [Eh]
	 Correlation Energy        =      -1.9644834428626425 [Eh]
	 Total Energy              =   -1648.5526040233044114 [Eh]

	 ================> DF-SCS-MP2 Energies <==================
	-----------------------------------------------------------
	 SCS Same-Spin Scale       =       0.3333333333333333 [-]
	 SCS Opposite-Spin Scale   =       1.2000000000000000 [-]
	 SCS Same-Spin Energy      =      -0.1660223118298864 [Eh]
	 SCS Opposite-Spin Energy  =      -1.7596998088475799 [Eh]
	 SCS Correlation Energy    =      -1.9257221206774664 [Eh]
	 SCS Total Energy          =   -1648.5138427011190743 [Eh]
	-----------------------------------------------------------

  Dipole Moment: [D]
     X:    -2.2764      Y:     0.0470      Z:    -1.1655     Total:     2.5578

*** Psi4 exiting successfully. Buy a developer a beer!
