                               Psi4 1.4a2.dev612

  ==> Input File <==

--------------------------------------------------------------------------
#psi4
#
memory 32 gb

molecule  {
0 1
 Cl        1.4875760    -0.8585340    -1.4502940
 Cl        1.6673240     1.6297210    -0.0000070
 Cl        1.4875730    -0.8585200     1.4503030
  C       -0.5967930     0.0636340    -0.0000010
  C       -1.2815000    -1.1610580    -0.0000010
  C       -1.3211830     1.2579990    -0.0000020
  C        0.9157560     0.0178650    -0.1000010
  C       -2.6727010    -1.1855470     0.0000010
  C       -2.7178890     1.2245560     0.0000000
  C       -3.3986470     0.0087400    -0.0000010
  H       -0.7254190    -2.0945270     0.0000000
  H       -0.8108600     2.2139340    -0.0000010
  H       -3.1911200    -2.1409440     0.0000000
  H       -3.2714520     2.1600600    -0.0000020
  H       -4.4854430    -0.0109760     0.0000010
units angstrom
no_reorient  #important for SAPT in psi4, default
symmetry c1  #important for SAPT in psi4, default
}

set PROPERTIES_ORIGIN ["COM"]
properties('MP2/aug-cc-pvtz', properties = ['dipole'])
--------------------------------------------------------------------------

    Molecular point group: c1
  Charge       = 0
  Multiplicity = 1
  Basis Set: AUG-CC-PVTZ
    Blend: AUG-CC-PVTZ
  Basis Set: (AUG-CC-PVTZ AUX)
    Blend: AUG-CC-PVTZ-JKFIT

    Orbital Energies [Eh]
    ---------------------

    Doubly Occupied:

       1A   -104.868445     2A   -104.861160     3A   -104.844212
       4A    -11.443456     5A    -11.276483     6A    -11.257824
       7A    -11.257183     8A    -11.254937     9A    -11.252461
      10A    -11.251905    11A    -10.593990    12A    -10.585633
      13A    -10.568162    14A     -8.060880    15A     -8.058580
      16A     -8.058517    17A     -8.052360    18A     -8.050300
      19A     -8.050290    20A     -8.034728    21A     -8.032817
      22A     -8.032784    23A     -1.253201    24A     -1.166143
      25A     -1.120682    26A     -1.091626    27A     -1.042907
      28A     -1.032448    29A     -0.892423    30A     -0.846071
      31A     -0.795377    32A     -0.721501    33A     -0.663887
      34A     -0.660201    35A     -0.629292    36A     -0.624301
      37A     -0.606740    38A     -0.598101    39A     -0.533495
      40A     -0.526030    41A     -0.513835    42A     -0.499402
      43A     -0.490889    44A     -0.464672    45A     -0.461955
      46A     -0.448241    47A     -0.440225    48A     -0.355083
      49A     -0.349335

  @DF-RHF Final Energy: -1646.60389991884813

   => Energetics <=

    Nuclear Repulsion Energy =            773.7045125195576247
    One-Electron Energy =               -3807.4664850826607108
    Two-Electron Energy =                1387.1580726442548439
    Total Energy =                      -1646.6038999188481284
  Basis Set: (AUG-CC-PVTZ AUX)
    Blend: AUG-CC-PVTZ-RI
    Molecular point group: c1

    Geometry (in Angstrom), charge = 0, multiplicity = 1:

       Center              X                  Y                   Z               Mass
    ------------   -----------------  -----------------  -----------------  -----------------
         CL           1.400518190127    -0.857445438768    -1.444106741495    34.968852682000
         CL           1.580266190127     1.630809561232     0.006180258505    34.968852682000
         CL           1.400515190127    -0.857431438768     1.456490258505    34.968852682000
         C           -0.683850809873     0.064722561232     0.006186258505    12.000000000000
         C           -1.368557809873    -1.159969438768     0.006186258505    12.000000000000
         C           -1.408240809873     1.259087561232     0.006185258505    12.000000000000
         C            0.828698190127     0.018953561232    -0.093813741495    12.000000000000
         C           -2.759758809873    -1.184458438768     0.006188258505    12.000000000000
         C           -2.804946809873     1.225644561232     0.006187258505    12.000000000000
         C           -3.485704809873     0.009828561232     0.006186258505    12.000000000000
         H           -0.812476809873    -2.093438438768     0.006187258505     1.007825032230
         H           -0.897917809873     2.215022561232     0.006186258505     1.007825032230
         H           -3.278177809873    -2.139855438768     0.006187258505     1.007825032230
         H           -3.358509809873     2.161148561232     0.006185258505     1.007825032230
         H           -4.572500809873    -0.009887438768     0.006188258505     1.007825032230

  Basis Set: AUG-CC-PVTZ
    Blend: AUG-CC-PVTZ
  Basis Set: (AUG-CC-PVTZ AUX)
    Blend: AUG-CC-PVTZ-JKFIT
	 Reference Energy          =   -1646.6038999188481284 [Eh]
	 Singles Energy            =      -0.0000000000000000 [Eh]
	 Same-Spin Energy          =      -0.4970601338626148 [Eh]
	 Opposite-Spin Energy      =      -1.4651677198712143 [Eh]
	 Correlation Energy        =      -1.9622278537338291 [Eh]
	 Total Energy              =   -1648.5661277725819218 [Eh]

	 ================> DF-SCS-MP2 Energies <==================
	-----------------------------------------------------------
	 SCS Same-Spin Scale       =       0.3333333333333333 [-]
	 SCS Opposite-Spin Scale   =       1.2000000000000000 [-]
	 SCS Same-Spin Energy      =      -0.1656867112875383 [Eh]
	 SCS Opposite-Spin Energy  =      -1.7582012638454572 [Eh]
	 SCS Correlation Energy    =      -1.9238879751329954 [Eh]
	 SCS Total Energy          =   -1648.5277878939812126 [Eh]
	-----------------------------------------------------------

  Dipole Moment: [D]
     X:    -2.2710      Y:     0.0749      Z:    -0.5667     Total:     2.3418

*** Psi4 exiting successfully. Buy a developer a beer!
