                               Psi4 1.4a2.dev612

  ==> Input File <==

--------------------------------------------------------------------------
#psi4
#
memory 32 gb

molecule  {
0 1
 Cl        1.4875760    -0.8585340    -1.4502940
 Cl        1.6673240     1.6297210    -0.0000070
 Cl        1.4875730    -0.8585200     1.4503030
  C       -0.5967930     0.0636340    -0.0000010
  C       -1.2815000    -1.1610580    -0.0000010
  C       -1.3211830     1.2579990    -0.0000020
  C        0.9157560     0.0178649    -0.1500010
  C       -2.6727010    -1.1855470     0.0000010
  C       -2.7178890     1.2245560     0.0000000
  C       -3.3986470     0.0087400    -0.0000010
  H       -0.7254190    -2.0945270     0.0000000
  H       -0.8108600     2.2139340    -0.0000010
  H       -3.1911200    -2.1409440     0.0000000
  H       -3.2714520     2.1600600    -0.0000020
  H       -4.4854430    -0.0109760     0.0000010
units angstrom
no_reorient  #important for SAPT in psi4, default
symmetry c1  #important for SAPT in psi4, default
}

set PROPERTIES_ORIGIN ["COM"]
properties('MP2/aug-cc-pvtz', properties = ['dipole'])
--------------------------------------------------------------------------

    Molecular point group: c1
  Charge       = 0
  Multiplicity = 1
  Basis Set: AUG-CC-PVTZ
    Blend: AUG-CC-PVTZ
  Basis Set: (AUG-CC-PVTZ AUX)
    Blend: AUG-CC-PVTZ-JKFIT

    Orbital Energies [Eh]
    ---------------------

    Doubly Occupied:

       1A   -104.874113     2A   -104.861339     3A   -104.837088
       4A    -11.444770     5A    -11.277404     6A    -11.258002
       7A    -11.257282     8A    -11.255061     9A    -11.252597
      10A    -11.252061    11A    -10.600363    12A    -10.585737
      13A    -10.560921    14A     -8.067356    15A     -8.064921
      16A     -8.064845    17A     -8.052454    18A     -8.050397
      19A     -8.050385    20A     -8.027426    21A     -8.025589
      22A     -8.025560    23A     -1.258655    24A     -1.167442
      25A     -1.125749    26A     -1.083701    27A     -1.042361
      28A     -1.032527    29A     -0.892108    30A     -0.846187
      31A     -0.796186    32A     -0.722574    33A     -0.666415
      34A     -0.660900    35A     -0.630383    36A     -0.624790
      37A     -0.607200    38A     -0.599209    39A     -0.535163
      40A     -0.525045    41A     -0.513839    42A     -0.501435
      43A     -0.489377    44A     -0.465520    45A     -0.460494
      46A     -0.444341    47A     -0.436179    48A     -0.355040
      49A     -0.349008

  @DF-RHF Final Energy: -1646.59736587160569

   => Energetics <=

    Nuclear Repulsion Energy =            773.7022863680589353
    One-Electron Energy =               -3807.4443063001390328
    Two-Electron Energy =                1387.1446540604742950
    Total Energy =                      -1646.5973658716056889
  Basis Set: (AUG-CC-PVTZ AUX)
    Blend: AUG-CC-PVTZ-RI
    Molecular point group: c1

    Geometry (in Angstrom), charge = 0, multiplicity = 1:

       Center              X                  Y                   Z               Mass
    ------------   -----------------  -----------------  -----------------  -----------------
         CL           1.400518190127    -0.857445432581    -1.441013091819    34.968852682000
         CL           1.580266190127     1.630809567419     0.009273908181    34.968852682000
         CL           1.400515190127    -0.857431432581     1.459583908181    34.968852682000
         C           -0.683850809873     0.064722567419     0.009279908181    12.000000000000
         C           -1.368557809873    -1.159969432581     0.009279908181    12.000000000000
         C           -1.408240809873     1.259087567419     0.009278908181    12.000000000000
         C            0.828698190127     0.018953467419    -0.140720091819    12.000000000000
         C           -2.759758809873    -1.184458432581     0.009281908181    12.000000000000
         C           -2.804946809873     1.225644567419     0.009280908181    12.000000000000
         C           -3.485704809873     0.009828567419     0.009279908181    12.000000000000
         H           -0.812476809873    -2.093438432581     0.009280908181     1.007825032230
         H           -0.897917809873     2.215022567419     0.009279908181     1.007825032230
         H           -3.278177809873    -2.139855432581     0.009280908181     1.007825032230
         H           -3.358509809873     2.161148567419     0.009278908181     1.007825032230
         H           -4.572500809873    -0.009887432581     0.009281908181     1.007825032230

  Basis Set: AUG-CC-PVTZ
    Blend: AUG-CC-PVTZ
  Basis Set: (AUG-CC-PVTZ AUX)
    Blend: AUG-CC-PVTZ-JKFIT
	 Reference Energy          =   -1646.5973658716056889 [Eh]
	 Singles Energy            =      -0.0000000000000000 [Eh]
	 Same-Spin Energy          =      -0.4974849118713276 [Eh]
	 Opposite-Spin Energy      =      -1.4656977738429284 [Eh]
	 Correlation Energy        =      -1.9631826857142560 [Eh]
	 Total Energy              =   -1648.5605485573198621 [Eh]

	 ================> DF-SCS-MP2 Energies <==================
	-----------------------------------------------------------
	 SCS Same-Spin Scale       =       0.3333333333333333 [-]
	 SCS Opposite-Spin Scale   =       1.2000000000000000 [-]
	 SCS Same-Spin Energy      =      -0.1658283039571092 [Eh]
	 SCS Opposite-Spin Energy  =      -1.7588373286115140 [Eh]
	 SCS Correlation Energy    =      -1.9246656325686231 [Eh]
	 SCS Total Energy          =   -1648.5220315041742651 [Eh]
	-----------------------------------------------------------

  Dipole Moment: [D]
     X:    -2.2735      Y:     0.0636      Z:    -0.8603     Total:     2.4317

*** Psi4 exiting successfully. Buy a developer a beer!
