                               Psi4 1.4a2.dev612

  ==> Input File <==

--------------------------------------------------------------------------
#psi4
#
memory 32 gb

molecule  {
0 1
 Cl        1.4875760    -0.8585340    -1.4502940
 Cl        1.6673240     1.6297210    -0.0000070
 Cl        1.4875730    -0.8585200     1.4503030
  C       -0.5967930     0.0636340    -0.0000010
  C       -1.2815000    -1.1610580    -0.0000010
  C       -1.3211830     1.2579990    -0.0000020
  C        0.9157560     0.0178650    -0.0000010
  C       -2.6727010    -1.1855470     0.0000010
  C       -2.7178890     1.2245560     0.0000000
  C       -3.3986470     0.0087400    -0.0000010
  H       -0.7254190    -2.0945270     0.0000000
  H       -0.8108600     2.2139340    -0.0000010
  H       -3.1911200    -2.1409440     0.0000000
  H       -3.2714520     2.1600600    -0.0000020
  H       -4.4854430    -0.0109760     0.0000010
units angstrom
no_reorient  #important for SAPT in psi4, default
symmetry c1  #important for SAPT in psi4, default
}

set PROPERTIES_ORIGIN ["COM"]
properties('MP2/aug-cc-pvtz', properties = ['dipole'])
--------------------------------------------------------------------------

    Molecular point group: c1
  Charge       = 0
  Multiplicity = 1
  Basis Set: AUG-CC-PVTZ
    Blend: AUG-CC-PVTZ
  Basis Set: (AUG-CC-PVTZ AUX)
    Blend: AUG-CC-PVTZ-JKFIT

    Orbital Energies [Eh]
    ---------------------

    Doubly Occupied:

       1A   -104.861007     2A   -104.856926     3A   -104.856925
       4A    -11.442377     5A    -11.275742     6A    -11.257679
       7A    -11.257103     8A    -11.254837     9A    -11.252350
      10A    -11.251779    11A    -10.585542    12A    -10.581440
      13A    -10.581432    14A     -8.052276    15A     -8.050212
      16A     -8.050206    17A     -8.048147    18A     -8.048146
      19A     -8.046067    20A     -8.046067    21A     -8.046022
      22A     -8.046022    23A     -1.248985    24A     -1.165060
      25A     -1.109670    26A     -1.104843    27A     -1.043296
      28A     -1.032375    29A     -0.892682    30A     -0.845978
      31A     -0.794754    32A     -0.720661    33A     -0.661920
      34A     -0.659440    35A     -0.628102    36A     -0.624207
      37A     -0.606416    38A     -0.597261    39A     -0.531303
      40A     -0.527744    41A     -0.513864    42A     -0.494939
      43A     -0.494640    44A     -0.467633    45A     -0.456322
      46A     -0.454562    47A     -0.443686    48A     -0.355134
      49A     -0.349564

  @DF-RHF Final Energy: -1646.60908443580115

   => Energetics <=

    Nuclear Repulsion Energy =            773.7065191245879987
    One-Electron Energy =               -3807.4845144790579070
    Two-Electron Energy =                1387.1689109186688711
    Total Energy =                      -1646.6090844358011509
  Basis Set: (AUG-CC-PVTZ AUX)
    Blend: AUG-CC-PVTZ-RI
    Molecular point group: c1

    Geometry (in Angstrom), charge = 0, multiplicity = 1:

       Center              X                  Y                   Z               Mass
    ------------   -----------------  -----------------  -----------------  -----------------
         CL           1.400518190127    -0.857445438768    -1.450294040847    34.968852682000
         CL           1.580266190127     1.630809561232    -0.000007040847    34.968852682000
         CL           1.400515190127    -0.857431438768     1.450302959153    34.968852682000
         C           -0.683850809873     0.064722561232    -0.000001040847    12.000000000000
         C           -1.368557809873    -1.159969438768    -0.000001040847    12.000000000000
         C           -1.408240809873     1.259087561232    -0.000002040847    12.000000000000
         C            0.828698190127     0.018953561232    -0.000001040847    12.000000000000
         C           -2.759758809873    -1.184458438768     0.000000959153    12.000000000000
         C           -2.804946809873     1.225644561232    -0.000000040847    12.000000000000
         C           -3.485704809873     0.009828561232    -0.000001040847    12.000000000000
         H           -0.812476809873    -2.093438438768    -0.000000040847     1.007825032230
         H           -0.897917809873     2.215022561232    -0.000001040847     1.007825032230
         H           -3.278177809873    -2.139855438768    -0.000000040847     1.007825032230
         H           -3.358509809873     2.161148561232    -0.000002040847     1.007825032230
         H           -4.572500809873    -0.009887438768     0.000000959153     1.007825032230

  Basis Set: AUG-CC-PVTZ
    Blend: AUG-CC-PVTZ
  Basis Set: (AUG-CC-PVTZ AUX)
    Blend: AUG-CC-PVTZ-JKFIT
	 Reference Energy          =   -1646.6090844358011509 [Eh]
	 Singles Energy            =      -0.0000000000000000 [Eh]
	 Same-Spin Energy          =      -0.4967155484420795 [Eh]
	 Opposite-Spin Energy      =      -1.4647341429857947 [Eh]
	 Correlation Energy        =      -1.9614496914278743 [Eh]
	 Total Energy              =   -1648.5705341272289388 [Eh]

	 ================> DF-SCS-MP2 Energies <==================
	-----------------------------------------------------------
	 SCS Same-Spin Scale       =       0.3333333333333333 [-]
	 SCS Opposite-Spin Scale   =       1.2000000000000000 [-]
	 SCS Same-Spin Energy      =      -0.1655718494806932 [Eh]
	 SCS Opposite-Spin Energy  =      -1.7576809715829536 [Eh]
	 SCS Correlation Energy    =      -1.9232528210636468 [Eh]
	 SCS Total Energy          =   -1648.5323372568648210 [Eh]
	-----------------------------------------------------------

  Dipole Moment: [D]
     X:    -2.2686      Y:     0.0836      Z:    -0.0000     Total:     2.2701

*** Psi4 exiting successfully. Buy a developer a beer!
