                               Psi4 1.4a2.dev612

  ==> Input File <==

--------------------------------------------------------------------------
#psi4
#
memory 32 gb

molecule  {
0 1
 Cl        1.4875760    -0.8585340    -1.4502940
 Cl        1.6673240     1.6297210    -0.0000070
 Cl        1.4875730    -0.8585200     1.4503030
  C       -0.5967930     0.0636340    -0.0000010
  C       -1.2815000    -1.1610580    -0.0000010
  C       -1.3211830     1.2579990    -0.0000020
  C        0.9157560     0.0178650    -0.0500010
  C       -2.6727010    -1.1855470     0.0000010
  C       -2.7178890     1.2245560     0.0000000
  C       -3.3986470     0.0087400    -0.0000010
  H       -0.7254190    -2.0945270     0.0000000
  H       -0.8108600     2.2139340    -0.0000010
  H       -3.1911200    -2.1409440     0.0000000
  H       -3.2714520     2.1600600    -0.0000020
  H       -4.4854430    -0.0109760     0.0000010
units angstrom
no_reorient  #important for SAPT in psi4, default
symmetry c1  #important for SAPT in psi4, default
}

set PROPERTIES_ORIGIN ["COM"]
properties('MP2/aug-cc-pvtz', properties = ['dipole'])
--------------------------------------------------------------------------

    Molecular point group: c1
  Charge       = 0
  Multiplicity = 1
  Basis Set: AUG-CC-PVTZ
    Blend: AUG-CC-PVTZ
  Basis Set: (AUG-CC-PVTZ AUX)
    Blend: AUG-CC-PVTZ-JKFIT

    Orbital Energies [Eh]
    ---------------------

    Doubly Occupied:

       1A   -104.862766     2A   -104.861046     3A   -104.850784
       4A    -11.442649     5A    -11.275928     6A    -11.257715
       7A    -11.257123     8A    -11.254862     9A    -11.252378
      10A    -11.251811    11A    -10.587732    12A    -10.585566
      13A    -10.574958    14A     -8.054528    15A     -8.052346
      16A     -8.052297    17A     -8.052293    18A     -8.050235
      19A     -8.050228    20A     -8.041592    21A     -8.039602
      22A     -8.039564    23A     -1.250025    24A     -1.165333
      25A     -1.114664    26A     -1.099307    27A     -1.043202
      28A     -1.032394    29A     -0.892617    30A     -0.846001
      31A     -0.794907    32A     -0.720870    33A     -0.662386
      34A     -0.659669    35A     -0.628444    36A     -0.624188
      37A     -0.606494    38A     -0.597466    39A     -0.532026
      40A     -0.527135    41A     -0.513855    42A     -0.497104
      43A     -0.492679    44A     -0.466829    45A     -0.458954
      46A     -0.451813    47A     -0.442805    48A     -0.355120
      49A     -0.349510

  @DF-RHF Final Energy: -1646.60779191359188

   => Energetics <=

    Nuclear Repulsion Energy =            773.7059977399170521
    One-Electron Energy =               -3807.4799813873978565
    Two-Electron Energy =                1387.1661917338888088
    Total Energy =                      -1646.6077919135918819
  Basis Set: (AUG-CC-PVTZ AUX)
    Blend: AUG-CC-PVTZ-RI
    Molecular point group: c1

    Geometry (in Angstrom), charge = 0, multiplicity = 1:

       Center              X                  Y                   Z               Mass
    ------------   -----------------  -----------------  -----------------  -----------------
         CL           1.400518190127    -0.857445438768    -1.447200391171    34.968852682000
         CL           1.580266190127     1.630809561232     0.003086608829    34.968852682000
         CL           1.400515190127    -0.857431438768     1.453396608829    34.968852682000
         C           -0.683850809873     0.064722561232     0.003092608829    12.000000000000
         C           -1.368557809873    -1.159969438768     0.003092608829    12.000000000000
         C           -1.408240809873     1.259087561232     0.003091608829    12.000000000000
         C            0.828698190127     0.018953561232    -0.046907391171    12.000000000000
         C           -2.759758809873    -1.184458438768     0.003094608829    12.000000000000
         C           -2.804946809873     1.225644561232     0.003093608829    12.000000000000
         C           -3.485704809873     0.009828561232     0.003092608829    12.000000000000
         H           -0.812476809873    -2.093438438768     0.003093608829     1.007825032230
         H           -0.897917809873     2.215022561232     0.003092608829     1.007825032230
         H           -3.278177809873    -2.139855438768     0.003093608829     1.007825032230
         H           -3.358509809873     2.161148561232     0.003091608829     1.007825032230
         H           -4.572500809873    -0.009887438768     0.003094608829     1.007825032230

  Basis Set: AUG-CC-PVTZ
    Blend: AUG-CC-PVTZ
  Basis Set: (AUG-CC-PVTZ AUX)
    Blend: AUG-CC-PVTZ-JKFIT
	 Reference Energy          =   -1646.6077919135918819 [Eh]
	 Singles Energy            =      -0.0000000000000000 [Eh]
	 Same-Spin Energy          =      -0.4968020648045332 [Eh]
	 Opposite-Spin Energy      =      -1.4648433205997122 [Eh]
	 Correlation Energy        =      -1.9616453854042455 [Eh]
	 Total Energy              =   -1648.5694372989960357 [Eh]

	 ================> DF-SCS-MP2 Energies <==================
	-----------------------------------------------------------
	 SCS Same-Spin Scale       =       0.3333333333333333 [-]
	 SCS Opposite-Spin Scale   =       1.2000000000000000 [-]
	 SCS Same-Spin Energy      =      -0.1656006882681777 [Eh]
	 SCS Opposite-Spin Energy  =      -1.7578119847196547 [Eh]
	 SCS Correlation Energy    =      -1.9234126729878325 [Eh]
	 SCS Total Energy          =   -1648.5312045865796335 [Eh]
	-----------------------------------------------------------

  Dipole Moment: [D]
     X:    -2.2692      Y:     0.0814      Z:    -0.2812     Total:     2.2880

*** Psi4 exiting successfully. Buy a developer a beer!
