                               Psi4 1.3.2 release

  ==> Input File <==

--------------------------------------------------------------------------
#psi4
#
memory 32 gb

molecule  {
0 1
  C        1.9266460    -0.0001280    -0.5925190
  C        0.4398860    -0.0000660    -0.3444800
  C       -0.2606840    -1.2037490    -0.1915840
  C       -0.2786130     1.2036842    -0.2900315
  C        2.7216460     0.0000950     0.7169160
  C       -1.6267430    -1.2070050     0.0951370
  C       -1.6266430     1.2070770     0.0950500
  C       -2.3133840     0.0000700     0.2425720
  H        2.1979770    -0.8797810    -1.1880300
  H        2.1980020     0.8793040    -1.1883450
  H        0.2684350    -2.1485200    -0.3109970
  H        0.2686130     2.1484050    -0.3111530
  H        2.4776170     0.8842370     1.3127700
  H        3.7994840     0.0000410     0.5265790
  H        2.4775840    -0.8838220     1.3130890
  H       -2.1553560    -2.1514480     0.2031020
  H       -2.1551770     2.1515730     0.2029480
  H       -3.3780160     0.0001220     0.4635020
units angstrom
no_reorient  #important for SAPT in psi4, default
symmetry c1  #important for SAPT in psi4, default
}

set PROPERTIES_ORIGIN ["COM"]
properties('MP2/aug-cc-pvtz', properties = ['dipole'])
--------------------------------------------------------------------------

    Molecular point group: c1
  Charge       = 0
  Multiplicity = 1
  Basis Set: AUG-CC-PVTZ
    Blend: AUG-CC-PVTZ
  Basis Set: (AUG-CC-PVTZ AUX)
    Blend: AUG-CC-PVTZ-JKFIT

    Orbital Energies [Eh]
    ---------------------

    Doubly Occupied:

       1A    -11.239411     2A    -11.235553     3A    -11.235004
       4A    -11.230713     5A    -11.230342     6A    -11.229798
       7A    -11.228383     8A    -11.216999     9A     -1.150812
      10A     -1.061975    11A     -1.008941    12A     -0.980218
      13A     -0.862204    14A     -0.823426    15A     -0.785336
      16A     -0.689385    17A     -0.639396    18A     -0.634527
      19A     -0.592699    20A     -0.585463    21A     -0.576144
      22A     -0.543886    23A     -0.520315    24A     -0.499181
      25A     -0.483538    26A     -0.476806    27A     -0.471678
      28A     -0.333298    29A     -0.323055

  @DF-RHF Final Energy:  -308.87450799912676

   => Energetics <=

    Nuclear Repulsion Energy =            339.8086994551625821
    One-Electron Energy =               -1089.5894462346821001
    Two-Electron Energy =                 440.9062387803927550
    Total Energy =                       -308.8745079991267630
  Basis Set: (AUG-CC-PVTZ AUX)
    Blend: AUG-CC-PVTZ-RI
    Molecular point group: c1

    Geometry (in Angstrom), charge = 0, multiplicity = 1:

       Center              X                  Y                   Z               Mass
    ------------   -----------------  -----------------  -----------------  -----------------
         C            1.984797047339    -0.000126588481    -0.571819183150    12.000000000000
         C            0.498037047339    -0.000064588481    -0.323780183150    12.000000000000
         C           -0.202532952661    -1.203747588481    -0.170884183150    12.000000000000
         C           -0.220461952661     1.203685611519    -0.269331683150    12.000000000000
         C            2.779797047339     0.000096411519     0.737615816850    12.000000000000
         C           -1.568591952661    -1.207003588481     0.115836816850    12.000000000000
         C           -1.568491952661     1.207078411519     0.115749816850    12.000000000000
         C           -2.255232952661     0.000071411519     0.263271816850    12.000000000000
         H            2.256128047339    -0.879779588481    -1.167330183150     1.007825032230
         H            2.256153047339     0.879305411519    -1.167645183150     1.007825032230
         H            0.326586047339    -2.148518588481    -0.290297183150     1.007825032230
         H            0.326764047339     2.148406411519    -0.290453183150     1.007825032230
         H            2.535768047339     0.884238411519     1.333469816850     1.007825032230
         H            3.857635047339     0.000042411519     0.547278816850     1.007825032230
         H            2.535735047339    -0.883820588481     1.333788816850     1.007825032230
         H           -2.097204952661    -2.151446588481     0.223801816850     1.007825032230
         H           -2.097025952661     2.151574411519     0.223647816850     1.007825032230
         H           -3.319864952661     0.000123411519     0.484201816850     1.007825032230

  Basis Set: AUG-CC-PVTZ
    Blend: AUG-CC-PVTZ
  Basis Set: (AUG-CC-PVTZ AUX)
    Blend: AUG-CC-PVTZ-JKFIT
	 Reference Energy          =    -308.8745079991267630 [Eh]
	 Singles Energy            =      -0.0000000000000000 [Eh]
	 Same-Spin Energy          =      -0.3427969481575028 [Eh]
	 Opposite-Spin Energy      =      -1.1309601778043901 [Eh]
	 Correlation Energy        =      -1.4737571259618929 [Eh]
	 Total Energy              =    -310.3482651250886306 [Eh]

	 ================> DF-SCS-MP2 Energies <==================
	-----------------------------------------------------------
	 SCS Same-Spin Scale       =       0.3333333333333333 [-]
	 SCS Opposite-Spin Scale   =       1.2000000000000000 [-]
	 SCS Same-Spin Energy      =      -0.1142656493858343 [Eh]
	 SCS Opposite-Spin Energy  =      -1.3571522133652680 [Eh]
	 SCS Correlation Energy    =      -1.4714178627511023 [Eh]
	 SCS Total Energy          =    -310.3459258618778449 [Eh]
	-----------------------------------------------------------

  Dipole Moment: [D]
     X:     0.3948      Y:    -0.0179      Z:     0.0484     Total:     0.3982

*** Psi4 exiting successfully. Buy a developer a beer!
