                               Psi4 1.3.2 release

  ==> Input File <==

--------------------------------------------------------------------------
#psi4
#
memory 32 gb

molecule  {
0 1
  C        1.9266460    -0.0001280    -0.5925190
  C        0.4398860    -0.0000660    -0.3444800
  C       -0.2606840    -1.2037490    -0.1915840
  C       -0.2876270     1.2036828    -0.3392123
  C        2.7216460     0.0000950     0.7169160
  C       -1.6267430    -1.2070050     0.0951370
  C       -1.6266430     1.2070770     0.0950500
  C       -2.3133840     0.0000700     0.2425720
  H        2.1979770    -0.8797810    -1.1880300
  H        2.1980020     0.8793040    -1.1883450
  H        0.2684350    -2.1485200    -0.3109970
  H        0.2686130     2.1484050    -0.3111530
  H        2.4776170     0.8842370     1.3127700
  H        3.7994840     0.0000410     0.5265790
  H        2.4775840    -0.8838220     1.3130890
  H       -2.1553560    -2.1514480     0.2031020
  H       -2.1551770     2.1515730     0.2029480
  H       -3.3780160     0.0001220     0.4635020
units angstrom
no_reorient  #important for SAPT in psi4, default
symmetry c1  #important for SAPT in psi4, default
}

set PROPERTIES_ORIGIN ["COM"]
properties('MP2/aug-cc-pvtz', properties = ['dipole'])
--------------------------------------------------------------------------

    Molecular point group: c1
  Charge       = 0
  Multiplicity = 1
  Basis Set: AUG-CC-PVTZ
    Blend: AUG-CC-PVTZ
  Basis Set: (AUG-CC-PVTZ AUX)
    Blend: AUG-CC-PVTZ-JKFIT

    Orbital Energies [Eh]
    ---------------------

    Doubly Occupied:

       1A    -11.240476     2A    -11.236709     3A    -11.235671
       4A    -11.231712     5A    -11.230283     6A    -11.229729
       7A    -11.228424     8A    -11.217166     9A     -1.150393
      10A     -1.062010    11A     -1.008350    12A     -0.980279
      13A     -0.862131    14A     -0.823270    15A     -0.784635
      16A     -0.688715    17A     -0.638882    18A     -0.634492
      19A     -0.593051    20A     -0.585281    21A     -0.575388
      22A     -0.543225    23A     -0.520594    24A     -0.499001
      25A     -0.483522    26A     -0.476236    27A     -0.471023
      28A     -0.333148    29A     -0.322897

  @DF-RHF Final Energy:  -308.87079578446907

   => Energetics <=

    Nuclear Repulsion Energy =            339.6153409687261728
    One-Electron Energy =               -1089.1988871871435549
    Two-Electron Energy =                 440.7127504339483153
    Total Energy =                       -308.8707957844690668
  Basis Set: (AUG-CC-PVTZ AUX)
    Blend: AUG-CC-PVTZ-RI
    Molecular point group: c1

    Geometry (in Angstrom), charge = 0, multiplicity = 1:

       Center              X                  Y                   Z               Mass
    ------------   -----------------  -----------------  -----------------  -----------------
         C            1.985816747416    -0.000126430108    -0.566255652472    12.000000000000
         C            0.499056747416    -0.000064430108    -0.318216652472    12.000000000000
         C           -0.201513252584    -1.203747430108    -0.165320652472    12.000000000000
         C           -0.228456252584     1.203684369892    -0.312948952472    12.000000000000
         C            2.780816747416     0.000096569892     0.743179347528    12.000000000000
         C           -1.567572252584    -1.207003430108     0.121400347528    12.000000000000
         C           -1.567472252584     1.207078569892     0.121313347528    12.000000000000
         C           -2.254213252584     0.000071569892     0.268835347528    12.000000000000
         H            2.257147747416    -0.879779430108    -1.161766652472     1.007825032230
         H            2.257172747416     0.879305569892    -1.162081652472     1.007825032230
         H            0.327605747416    -2.148518430108    -0.284733652472     1.007825032230
         H            0.327783747416     2.148406569892    -0.284889652472     1.007825032230
         H            2.536787747416     0.884238569892     1.339033347528     1.007825032230
         H            3.858654747416     0.000042569892     0.552842347528     1.007825032230
         H            2.536754747416    -0.883820430108     1.339352347528     1.007825032230
         H           -2.096185252584    -2.151446430108     0.229365347528     1.007825032230
         H           -2.096006252584     2.151574569892     0.229211347528     1.007825032230
         H           -3.318845252584     0.000123569892     0.489765347528     1.007825032230

  Basis Set: AUG-CC-PVTZ
    Blend: AUG-CC-PVTZ
  Basis Set: (AUG-CC-PVTZ AUX)
    Blend: AUG-CC-PVTZ-JKFIT
	 Reference Energy          =    -308.8707957844690668 [Eh]
	 Singles Energy            =      -0.0000000000000000 [Eh]
	 Same-Spin Energy          =      -0.3429436547385202 [Eh]
	 Opposite-Spin Energy      =      -1.1314784922914267 [Eh]
	 Correlation Energy        =      -1.4744221470299470 [Eh]
	 Total Energy              =    -310.3452179314990076 [Eh]

	 ================> DF-SCS-MP2 Energies <==================
	-----------------------------------------------------------
	 SCS Same-Spin Scale       =       0.3333333333333333 [-]
	 SCS Opposite-Spin Scale   =       1.2000000000000000 [-]
	 SCS Same-Spin Energy      =      -0.1143145515795067 [Eh]
	 SCS Opposite-Spin Energy  =      -1.3577741907497121 [Eh]
	 SCS Correlation Energy    =      -1.4720887423292188 [Eh]
	 SCS Total Energy          =    -310.3428845267982865 [Eh]
	-----------------------------------------------------------

  Dipole Moment: [D]
     X:     0.3905      Y:    -0.0412      Z:     0.0800     Total:     0.4007

*** Psi4 exiting successfully. Buy a developer a beer!
