                               Psi4 1.3.2 release

  ==> Input File <==

--------------------------------------------------------------------------
#psi4
#
memory 32 gb

molecule  {
0 1
  C        1.9266460    -0.0001280    -0.5925190
  C        0.4398860    -0.0000660    -0.3444800
  C       -0.2606840    -1.2037490    -0.1915840
  C       -0.3056551     1.2036801    -0.4375738
  C        2.7216460     0.0000950     0.7169160
  C       -1.6267430    -1.2070050     0.0951370
  C       -1.6266430     1.2070770     0.0950500
  C       -2.3133840     0.0000700     0.2425720
  H        2.1979770    -0.8797810    -1.1880300
  H        2.1980020     0.8793040    -1.1883450
  H        0.2684350    -2.1485200    -0.3109970
  H        0.2686130     2.1484050    -0.3111530
  H        2.4776170     0.8842370     1.3127700
  H        3.7994840     0.0000410     0.5265790
  H        2.4775840    -0.8838220     1.3130890
  H       -2.1553560    -2.1514480     0.2031020
  H       -2.1551770     2.1515730     0.2029480
  H       -3.3780160     0.0001220     0.4635020
units angstrom
no_reorient  #important for SAPT in psi4, default
symmetry c1  #important for SAPT in psi4, default
}

set PROPERTIES_ORIGIN ["COM"]
properties('MP2/aug-cc-pvtz', properties = ['dipole'])
--------------------------------------------------------------------------

    Molecular point group: c1
  Charge       = 0
  Multiplicity = 1
  Basis Set: AUG-CC-PVTZ
    Blend: AUG-CC-PVTZ
  Basis Set: (AUG-CC-PVTZ AUX)
    Blend: AUG-CC-PVTZ-JKFIT

    Orbital Energies [Eh]
    ---------------------

    Doubly Occupied:

       1A    -11.243901     2A    -11.240196     3A    -11.237834
       4A    -11.234818     5A    -11.230072     6A    -11.229535
       7A    -11.228612     8A    -11.217645     9A     -1.149182
      10A     -1.062190    11A     -1.006638    12A     -0.980219
      13A     -0.861932    14A     -0.822674    15A     -0.782720
      16A     -0.686885    17A     -0.637435    18A     -0.634233
      19A     -0.593370    20A     -0.584729    21A     -0.573051
      22A     -0.541720    23A     -0.520987    24A     -0.498282
      25A     -0.483646    26A     -0.474154    27A     -0.469057
      28A     -0.333015    29A     -0.322246

  @DF-RHF Final Energy:  -308.85858208601888

   => Energetics <=

    Nuclear Repulsion Energy =            339.0726675943079158
    One-Electron Energy =               -1088.1005424982588465
    Two-Electron Energy =                 440.1692928179321029
    Total Energy =                       -308.8585820860188846
  Basis Set: (AUG-CC-PVTZ AUX)
    Blend: AUG-CC-PVTZ-RI
    Molecular point group: c1

    Geometry (in Angstrom), charge = 0, multiplicity = 1:

       Center              X                  Y                   Z               Mass
    ------------   -----------------  -----------------  -----------------  -----------------
         C            1.987856158882    -0.000126124673    -0.555128602427    12.000000000000
         C            0.501096158882    -0.000064124673    -0.307089602427    12.000000000000
         C           -0.199473841118    -1.203747124673    -0.154193602427    12.000000000000
         C           -0.244444941118     1.203681975327    -0.400183402427    12.000000000000
         C            2.782856158882     0.000096875327     0.754306397573    12.000000000000
         C           -1.565532841118    -1.207003124673     0.132527397573    12.000000000000
         C           -1.565432841118     1.207078875327     0.132440397573    12.000000000000
         C           -2.252173841118     0.000071875327     0.279962397573    12.000000000000
         H            2.259187158882    -0.879779124673    -1.150639602427     1.007825032230
         H            2.259212158882     0.879305875327    -1.150954602427     1.007825032230
         H            0.329645158882    -2.148518124673    -0.273606602427     1.007825032230
         H            0.329823158882     2.148406875327    -0.273762602427     1.007825032230
         H            2.538827158882     0.884238875327     1.350160397573     1.007825032230
         H            3.860694158882     0.000042875327     0.563969397573     1.007825032230
         H            2.538794158882    -0.883820124673     1.350479397573     1.007825032230
         H           -2.094145841118    -2.151446124673     0.240492397573     1.007825032230
         H           -2.093966841118     2.151574875327     0.240338397573     1.007825032230
         H           -3.316805841118     0.000123875327     0.500892397573     1.007825032230

  Basis Set: AUG-CC-PVTZ
    Blend: AUG-CC-PVTZ
  Basis Set: (AUG-CC-PVTZ AUX)
    Blend: AUG-CC-PVTZ-JKFIT
	 Reference Energy          =    -308.8585820860188846 [Eh]
	 Singles Energy            =      -0.0000000000000000 [Eh]
	 Same-Spin Energy          =      -0.3434288891288953 [Eh]
	 Opposite-Spin Energy      =      -1.1331660668007009 [Eh]
	 Correlation Energy        =      -1.4765949559295961 [Eh]
	 Total Energy              =    -310.3351770419484978 [Eh]

	 ================> DF-SCS-MP2 Energies <==================
	-----------------------------------------------------------
	 SCS Same-Spin Scale       =       0.3333333333333333 [-]
	 SCS Opposite-Spin Scale   =       1.2000000000000000 [-]
	 SCS Same-Spin Energy      =      -0.1144762963762984 [Eh]
	 SCS Opposite-Spin Energy  =      -1.3597992801608410 [Eh]
	 SCS Correlation Energy    =      -1.4742755765371394 [Eh]
	 SCS Total Energy          =    -310.3328576625560231 [Eh]
	-----------------------------------------------------------

  Dipole Moment: [D]
     X:     0.3706      Y:    -0.1157      Z:     0.1496     Total:     0.4161

*** Psi4 exiting successfully. Buy a developer a beer!
