                               Psi4 1.3.2 release

  ==> Input File <==

--------------------------------------------------------------------------
#psi4
#
memory 32 gb

molecule  {
0 1
  C        1.9266460    -0.0001280    -0.5925190
  C        0.4398860    -0.0000660    -0.3444800
  C       -0.2606840    -1.2037490    -0.1915840
  C       -0.3146691     1.2036787    -0.4867546
  C        2.7216460     0.0000950     0.7169160
  C       -1.6267430    -1.2070050     0.0951370
  C       -1.6266430     1.2070770     0.0950500
  C       -2.3133840     0.0000700     0.2425720
  H        2.1979770    -0.8797810    -1.1880300
  H        2.1980020     0.8793040    -1.1883450
  H        0.2684350    -2.1485200    -0.3109970
  H        0.2686130     2.1484050    -0.3111530
  H        2.4776170     0.8842370     1.3127700
  H        3.7994840     0.0000410     0.5265790
  H        2.4775840    -0.8838220     1.3130890
  H       -2.1553560    -2.1514480     0.2031020
  H       -2.1551770     2.1515730     0.2029480
  H       -3.3780160     0.0001220     0.4635020
units angstrom
no_reorient  #important for SAPT in psi4, default
symmetry c1  #important for SAPT in psi4, default
}

set PROPERTIES_ORIGIN ["COM"]
properties('MP2/aug-cc-pvtz', properties = ['dipole'])
--------------------------------------------------------------------------

    Molecular point group: c1
  Charge       = 0
  Multiplicity = 1
  Basis Set: AUG-CC-PVTZ
    Blend: AUG-CC-PVTZ
  Basis Set: (AUG-CC-PVTZ AUX)
    Blend: AUG-CC-PVTZ-JKFIT

    Orbital Energies [Eh]
    ---------------------

    Doubly Occupied:

       1A    -11.246214     2A    -11.242461     3A    -11.239347
       4A    -11.236845     5A    -11.229949     6A    -11.229431
       7A    -11.228760     8A    -11.217961     9A     -1.148426
      10A     -1.062348    11A     -1.005541    12A     -0.980074
      13A     -0.861809    14A     -0.822261    15A     -0.781579
      16A     -0.685883    17A     -0.636642    18A     -0.633975
      19A     -0.593371    20A     -0.584328    21A     -0.571547
      22A     -0.540884    23A     -0.521091    24A     -0.497731
      25A     -0.483807    26A     -0.472617    27A     -0.467629
      28A     -0.333103    29A     -0.321761

  @DF-RHF Final Energy:  -308.85003350960648

   => Energetics <=

    Nuclear Repulsion Energy =            338.7275792927247267
    One-Electron Energy =               -1087.4004747713522647
    Two-Electron Energy =                 439.8228619690210621
    Total Energy =                       -308.8500335096064759
  Basis Set: (AUG-CC-PVTZ AUX)
    Blend: AUG-CC-PVTZ-RI
    Molecular point group: c1

    Geometry (in Angstrom), charge = 0, multiplicity = 1:

       Center              X                  Y                   Z               Mass
    ------------   -----------------  -----------------  -----------------  -----------------
         C            1.988875858959    -0.000125966299    -0.549565071749    12.000000000000
         C            0.502115858959    -0.000063966299    -0.301526071749    12.000000000000
         C           -0.198454141041    -1.203746966299    -0.148630071749    12.000000000000
         C           -0.252439241041     1.203680733701    -0.443800671749    12.000000000000
         C            2.783875858959     0.000097033701     0.759869928251    12.000000000000
         C           -1.564513141041    -1.207002966299     0.138090928251    12.000000000000
         C           -1.564413141041     1.207079033701     0.138003928251    12.000000000000
         C           -2.251154141041     0.000072033701     0.285525928251    12.000000000000
         H            2.260206858959    -0.879778966299    -1.145076071749     1.007825032230
         H            2.260231858959     0.879306033701    -1.145391071748     1.007825032230
         H            0.330664858959    -2.148517966299    -0.268043071749     1.007825032230
         H            0.330842858959     2.148407033701    -0.268199071749     1.007825032230
         H            2.539846858959     0.884239033701     1.355723928252     1.007825032230
         H            3.861713858959     0.000043033701     0.569532928251     1.007825032230
         H            2.539813858959    -0.883819966299     1.356042928252     1.007825032230
         H           -2.093126141041    -2.151445966299     0.246055928251     1.007825032230
         H           -2.092947141041     2.151575033701     0.245901928251     1.007825032230
         H           -3.315786141041     0.000124033701     0.506455928251     1.007825032230

  Basis Set: AUG-CC-PVTZ
    Blend: AUG-CC-PVTZ
  Basis Set: (AUG-CC-PVTZ AUX)
    Blend: AUG-CC-PVTZ-JKFIT
	 Reference Energy          =    -308.8500335096064759 [Eh]
	 Singles Energy            =      -0.0000000000000000 [Eh]
	 Same-Spin Energy          =      -0.3437550359653612 [Eh]
	 Opposite-Spin Energy      =      -1.1343096131441159 [Eh]
	 Correlation Energy        =      -1.4780646491094771 [Eh]
	 Total Energy              =    -310.3280981587159317 [Eh]

	 ================> DF-SCS-MP2 Energies <==================
	-----------------------------------------------------------
	 SCS Same-Spin Scale       =       0.3333333333333333 [-]
	 SCS Opposite-Spin Scale   =       1.2000000000000000 [-]
	 SCS Same-Spin Energy      =      -0.1145850119884537 [Eh]
	 SCS Opposite-Spin Energy  =      -1.3611715357729390 [Eh]
	 SCS Correlation Energy    =      -1.4757565477613928 [Eh]
	 SCS Total Energy          =    -310.3257900573678967 [Eh]
	-----------------------------------------------------------

  Dipole Moment: [D]
     X:     0.3554      Y:    -0.1663      Z:     0.1874     Total:     0.4348

*** Psi4 exiting successfully. Buy a developer a beer!
