                               Psi4 1.3.2 release

  ==> Input File <==

--------------------------------------------------------------------------
#psi4
#
memory 32 gb

molecule  {
0 1
  C        1.9266460    -0.0001280    -0.5925190
  C        0.4398860    -0.0000660    -0.3444800
  C       -0.2606840    -1.2037490    -0.1915840
  C       -0.2966411     1.2036815    -0.3883931
  C        2.7216460     0.0000950     0.7169160
  C       -1.6267430    -1.2070050     0.0951370
  C       -1.6266430     1.2070770     0.0950500
  C       -2.3133840     0.0000700     0.2425720
  H        2.1979770    -0.8797810    -1.1880300
  H        2.1980020     0.8793040    -1.1883450
  H        0.2684350    -2.1485200    -0.3109970
  H        0.2686130     2.1484050    -0.3111530
  H        2.4776170     0.8842370     1.3127700
  H        3.7994840     0.0000410     0.5265790
  H        2.4775840    -0.8838220     1.3130890
  H       -2.1553560    -2.1514480     0.2031020
  H       -2.1551770     2.1515730     0.2029480
  H       -3.3780160     0.0001220     0.4635020
units angstrom
no_reorient  #important for SAPT in psi4, default
symmetry c1  #important for SAPT in psi4, default
}

set PROPERTIES_ORIGIN ["COM"]
properties('MP2/aug-cc-pvtz', properties = ['dipole'])
--------------------------------------------------------------------------

    Molecular point group: c1
  Charge       = 0
  Multiplicity = 1
  Basis Set: AUG-CC-PVTZ
    Blend: AUG-CC-PVTZ
  Basis Set: (AUG-CC-PVTZ AUX)
    Blend: AUG-CC-PVTZ-JKFIT

    Orbital Energies [Eh]
    ---------------------

    Doubly Occupied:

       1A    -11.241979     2A    -11.238267     3A    -11.236611
       4A    -11.233094     5A    -11.230188     6A    -11.229638
       7A    -11.228500     8A    -11.217380     9A     -1.149845
      10A     -1.062079    11A     -1.007580    12A     -0.980282
      13A     -0.862040    14A     -0.823015    15A     -0.783752
      16A     -0.687857    17A     -0.638212    18A     -0.634395
      19A     -0.593272    20A     -0.585039    21A     -0.574348
      22A     -0.542503    23A     -0.520820    24A     -0.498703
      25A     -0.483553    26A     -0.475358    27A     -0.470165
      28A     -0.333042    29A     -0.322627

  @DF-RHF Final Energy:  -308.86549546189121

   => Energetics <=

    Nuclear Repulsion Energy =            339.3693619471987972
    One-Electron Energy =               -1088.7014288483439941
    Two-Electron Energy =                 440.4665714392540394
    Total Energy =                       -308.8654954618912143
  Basis Set: (AUG-CC-PVTZ AUX)
    Blend: AUG-CC-PVTZ-RI
    Molecular point group: c1

    Geometry (in Angstrom), charge = 0, multiplicity = 1:

       Center              X                  Y                   Z               Mass
    ------------   -----------------  -----------------  -----------------  -----------------
         C            1.986836458805    -0.000126283047    -0.560692121793    12.000000000000
         C            0.500076458805    -0.000064283047    -0.312653121793    12.000000000000
         C           -0.200493541195    -1.203747283047    -0.159757121793    12.000000000000
         C           -0.236450641195     1.203683216953    -0.356566221793    12.000000000000
         C            2.781836458805     0.000096716953     0.748742878207    12.000000000000
         C           -1.566552541195    -1.207003283047     0.126963878207    12.000000000000
         C           -1.566452541195     1.207078716953     0.126876878207    12.000000000000
         C           -2.253193541195     0.000071716953     0.274398878207    12.000000000000
         H            2.258167458805    -0.879779283047    -1.156203121793     1.007825032230
         H            2.258192458805     0.879305716953    -1.156518121793     1.007825032230
         H            0.328625458805    -2.148518283047    -0.279170121793     1.007825032230
         H            0.328803458805     2.148406716953    -0.279326121793     1.007825032230
         H            2.537807458805     0.884238716953     1.344596878207     1.007825032230
         H            3.859674458805     0.000042716953     0.558405878207     1.007825032230
         H            2.537774458805    -0.883820283047     1.344915878207     1.007825032230
         H           -2.095165541195    -2.151446283047     0.234928878207     1.007825032230
         H           -2.094986541195     2.151574716953     0.234774878207     1.007825032230
         H           -3.317825541195     0.000123716953     0.495328878207     1.007825032230

  Basis Set: AUG-CC-PVTZ
    Blend: AUG-CC-PVTZ
  Basis Set: (AUG-CC-PVTZ AUX)
    Blend: AUG-CC-PVTZ-JKFIT
	 Reference Energy          =    -308.8654954618912143 [Eh]
	 Singles Energy            =      -0.0000000000000000 [Eh]
	 Same-Spin Energy          =      -0.3431561775634182 [Eh]
	 Opposite-Spin Energy      =      -1.1322183901959573 [Eh]
	 Correlation Energy        =      -1.4753745677593755 [Eh]
	 Total Energy              =    -310.3408700296506026 [Eh]

	 ================> DF-SCS-MP2 Energies <==================
	-----------------------------------------------------------
	 SCS Same-Spin Scale       =       0.3333333333333333 [-]
	 SCS Opposite-Spin Scale   =       1.2000000000000000 [-]
	 SCS Same-Spin Energy      =      -0.1143853925211394 [Eh]
	 SCS Opposite-Spin Energy  =      -1.3586620682351487 [Eh]
	 SCS Correlation Energy    =      -1.4730474607562880 [Eh]
	 SCS Total Energy          =    -310.3385429226474912 [Eh]
	-----------------------------------------------------------

  Dipole Moment: [D]
     X:     0.3823      Y:    -0.0739      Z:     0.1138     Total:     0.4057

*** Psi4 exiting successfully. Buy a developer a beer!
