                               Psi4 1.3.2 release

  ==> Input File <==

--------------------------------------------------------------------------
#psi4
#
memory 32 gb

molecule  {
0 1
  C        1.9266460    -0.0001280    -0.5925190
  C        0.4398860    -0.0000660    -0.3444800
  C       -0.2606840    -1.2037490    -0.1915840
  C       -0.2695990     1.2036856    -0.2408508
  C        2.7216460     0.0000950     0.7169160
  C       -1.6267430    -1.2070050     0.0951370
  C       -1.6266430     1.2070770     0.0950500
  C       -2.3133840     0.0000700     0.2425720
  H        2.1979770    -0.8797810    -1.1880300
  H        2.1980020     0.8793040    -1.1883450
  H        0.2684350    -2.1485200    -0.3109970
  H        0.2686130     2.1484050    -0.3111530
  H        2.4776170     0.8842370     1.3127700
  H        3.7994840     0.0000410     0.5265790
  H        2.4775840    -0.8838220     1.3130890
  H       -2.1553560    -2.1514480     0.2031020
  H       -2.1551770     2.1515730     0.2029480
  H       -3.3780160     0.0001220     0.4635020
units angstrom
no_reorient  #important for SAPT in psi4, default
symmetry c1  #important for SAPT in psi4, default
}

set PROPERTIES_ORIGIN ["COM"]
properties('MP2/aug-cc-pvtz', properties = ['dipole'])
--------------------------------------------------------------------------

    Molecular point group: c1
  Charge       = 0
  Multiplicity = 1
  Basis Set: AUG-CC-PVTZ
    Blend: AUG-CC-PVTZ
  Basis Set: (AUG-CC-PVTZ AUX)
    Blend: AUG-CC-PVTZ-JKFIT

    Orbital Energies [Eh]
    ---------------------

    Doubly Occupied:

       1A    -11.238797     2A    -11.234825     3A    -11.234587
       4A    -11.230411     5A    -11.230079     6A    -11.229837
       7A    -11.228374     8A    -11.216875     9A     -1.151089
      10A     -1.061969    11A     -1.009347    12A     -0.980102
      13A     -0.862259    14A     -0.823468    15A     -0.785831
      16A     -0.689810    17A     -0.639725    18A     -0.634493
      19A     -0.592233    20A     -0.585568    21A     -0.576600
      22A     -0.544483    23A     -0.519988    24A     -0.499247
      25A     -0.483580    26A     -0.477086    27A     -0.472162
      28A     -0.333465    29A     -0.323105

  @DF-RHF Final Energy:  -308.87665411675891

   => Energetics <=

    Nuclear Repulsion Energy =            339.9480158890428356
    One-Electron Energy =               -1089.8705461825741168
    Two-Electron Energy =                 441.0458761767723672
    Total Energy =                       -308.8766541167589139
  Basis Set: (AUG-CC-PVTZ AUX)
    Blend: AUG-CC-PVTZ-RI
    Molecular point group: c1

    Geometry (in Angstrom), charge = 0, multiplicity = 1:

       Center              X                  Y                   Z               Mass
    ------------   -----------------  -----------------  -----------------  -----------------
         C            1.983777347263    -0.000126746855    -0.577382702517    12.000000000000
         C            0.497017347263    -0.000064746855    -0.329343702517    12.000000000000
         C           -0.203552652737    -1.203747746855    -0.176447702517    12.000000000000
         C           -0.212467652737     1.203686853145    -0.225714502517    12.000000000000
         C            2.778777347263     0.000096253145     0.732052297483    12.000000000000
         C           -1.569611652737    -1.207003746855     0.110273297483    12.000000000000
         C           -1.569511652737     1.207078253145     0.110186297483    12.000000000000
         C           -2.256252652737     0.000071253145     0.257708297483    12.000000000000
         H            2.255108347263    -0.879779746855    -1.172893702517     1.007825032230
         H            2.255133347263     0.879305253145    -1.173208702517     1.007825032230
         H            0.325566347263    -2.148518746855    -0.295860702517     1.007825032230
         H            0.325744347263     2.148406253145    -0.296016702517     1.007825032230
         H            2.534748347263     0.884238253145     1.327906297483     1.007825032230
         H            3.856615347263     0.000042253145     0.541715297483     1.007825032230
         H            2.534715347263    -0.883820746855     1.328225297483     1.007825032230
         H           -2.098224652737    -2.151446746855     0.218238297483     1.007825032230
         H           -2.098045652737     2.151574253145     0.218084297483     1.007825032230
         H           -3.320884652737     0.000123253145     0.478638297483     1.007825032230

  Basis Set: AUG-CC-PVTZ
    Blend: AUG-CC-PVTZ
  Basis Set: (AUG-CC-PVTZ AUX)
    Blend: AUG-CC-PVTZ-JKFIT
	 Reference Energy          =    -308.8766541167589139 [Eh]
	 Singles Energy            =      -0.0000000000000000 [Eh]
	 Same-Spin Energy          =      -0.3427204405253530 [Eh]
	 Opposite-Spin Energy      =      -1.1306786654470717 [Eh]
	 Correlation Energy        =      -1.4733991059724247 [Eh]
	 Total Energy              =    -310.3500532227313329 [Eh]

	 ================> DF-SCS-MP2 Energies <==================
	-----------------------------------------------------------
	 SCS Same-Spin Scale       =       0.3333333333333333 [-]
	 SCS Opposite-Spin Scale   =       1.2000000000000000 [-]
	 SCS Same-Spin Energy      =      -0.1142401468417843 [Eh]
	 SCS Opposite-Spin Energy  =      -1.3568143985364860 [Eh]
	 SCS Correlation Energy    =      -1.4710545453782704 [Eh]
	 SCS Total Energy          =    -310.3477086621371654 [Eh]
	-----------------------------------------------------------

  Dipole Moment: [D]
     X:     0.3953      Y:    -0.0042      Z:     0.0186     Total:     0.3957

*** Psi4 exiting successfully. Buy a developer a beer!
