                               Psi4 1.3.2 release

  ==> Input File <==

--------------------------------------------------------------------------
#psi4
#
memory 32 gb

molecule  {
0 1
  O        0.0608387     0.1025307    -0.4001042
  O       -1.3063300    -1.6835180    -0.2393630
  O        1.1131790    -1.1413980     1.1162780
  C       -2.3394790     0.5235580    -0.2686750
  C        2.3972750     0.1605680    -0.4950760
  C       -1.2129060    -0.4792070    -0.2860030
  C        1.1581700    -0.3826440     0.1751130
  C       -3.6769720    -0.1720140    -0.4890940
  C       -2.2983330     1.2966310     1.0564140
  C        2.4741530     1.6802570    -0.2975580
  C        3.6385590    -0.5497050     0.0312540
  H       -2.1437190     1.2306780    -1.0846340
  H        2.2784230    -0.0395630    -1.5677780
  H       -4.4834260     0.5663220    -0.5092150
  H       -3.6860570    -0.7233770    -1.4323560
  H       -3.8736540    -0.8834450     0.3164790
  H       -3.1030040     2.0367670     1.0791630
  H       -2.4386000     0.6130600     1.8994820
  H       -1.3454850     1.8152510     1.1829620
  H        2.5408530     1.9208960     0.7682120
  H        1.5983600     2.1807600    -0.7147640
  H        3.3683510     2.0723810    -0.7901000
  H        3.7622080    -0.3606850     1.1004290
  H        4.5263690    -0.1854060    -0.4932010
  H        3.5668740    -1.6302420    -0.1114630
units angstrom
no_reorient  #important for SAPT in psi4, default
symmetry c1  #important for SAPT in psi4, default
}

set PROPERTIES_ORIGIN ["COM"]
properties('MP2/aug-cc-pvtz', properties = ['dipole'])
--------------------------------------------------------------------------

    Molecular point group: c1
  Charge       = 0
  Multiplicity = 1
  Basis Set: AUG-CC-PVTZ
    Blend: AUG-CC-PVTZ
  Basis Set: (AUG-CC-PVTZ AUX)
    Blend: AUG-CC-PVTZ-JKFIT

    Orbital Energies [Eh]
    ---------------------

    Doubly Occupied:

       1A    -20.622870     2A    -20.562945     3A    -20.545415
       4A    -11.399150     5A    -11.384193     6A    -11.266098
       7A    -11.254651     8A    -11.238710     9A    -11.234130
      10A    -11.228528    11A    -11.220171    12A     -1.499444
      13A     -1.400435    14A     -1.357528    15A     -1.110848
      16A     -1.095318    17A     -0.959733    18A     -0.948429
      19A     -0.941516    20A     -0.864947    21A     -0.804482
      22A     -0.734075    23A     -0.711279    24A     -0.700407
      25A     -0.679642    26A     -0.644528    27A     -0.633363
      28A     -0.615047    29A     -0.606812    30A     -0.575399
      31A     -0.569089    32A     -0.556065    33A     -0.550454
      34A     -0.538795    35A     -0.529142    36A     -0.524755
      37A     -0.505737    38A     -0.498640    39A     -0.495985
      40A     -0.489528    41A     -0.471162    42A     -0.467220
      43A     -0.432161

  @DF-RHF Final Energy:  -535.91335307362817

   => Energetics <=

    Nuclear Repulsion Energy =            649.9127324840346773
    One-Electron Energy =               -2020.7145131831150593
    Two-Electron Energy =                 834.8884276254522092
    Total Energy =                       -535.9133530736281728
  Basis Set: (AUG-CC-PVTZ AUX)
    Blend: AUG-CC-PVTZ-RI
    Molecular point group: c1

    Geometry (in Angstrom), charge = 0, multiplicity = 1:

       Center              X                  Y                   Z               Mass
    ------------   -----------------  -----------------  -----------------  -----------------
         O            0.059945475422     0.165367852785    -0.402529791582    15.994914619570
         O           -1.307223224578    -1.620680847215    -0.241788591582    15.994914619570
         O            1.112285775422    -1.078560847215     1.113852408418    15.994914619570
         C           -2.340372224578     0.586395152785    -0.271100591582    12.000000000000
         C            2.396381775422     0.223405152785    -0.497501591582    12.000000000000
         C           -1.213799224578    -0.416369847215    -0.288428591582    12.000000000000
         C            1.157276775422    -0.319806847215     0.172687408418    12.000000000000
         C           -3.677865224578    -0.109176847215    -0.491519591582    12.000000000000
         C           -2.299226224578     1.359468152785     1.053988408418    12.000000000000
         C            2.473259775422     1.743094152785    -0.299983591582    12.000000000000
         C            3.637665775422    -0.486867847215     0.028828408418    12.000000000000
         H           -2.144612224578     1.293515152785    -1.087059591582     1.007825032230
         H            2.277529775422     0.023274152785    -1.570203591582     1.007825032230
         H           -4.484319224578     0.629159152785    -0.511640591582     1.007825032230
         H           -3.686950224578    -0.660539847215    -1.434781591582     1.007825032230
         H           -3.874547224578    -0.820607847215     0.314053408418     1.007825032230
         H           -3.103897224578     2.099604152785     1.076737408418     1.007825032230
         H           -2.439493224578     0.675897152785     1.897056408418     1.007825032230
         H           -1.346378224578     1.878088152785     1.180536408418     1.007825032230
         H            2.539959775422     1.983733152785     0.765786408418     1.007825032230
         H            1.597466775422     2.243597152785    -0.717189591582     1.007825032230
         H            3.367457775422     2.135218152785    -0.792525591582     1.007825032230
         H            3.761314775422    -0.297847847215     1.098003408418     1.007825032230
         H            4.525475775422    -0.122568847215    -0.495626591582     1.007825032230
         H            3.565980775422    -1.567404847215    -0.113888591582     1.007825032230

  Basis Set: AUG-CC-PVTZ
    Blend: AUG-CC-PVTZ
  Basis Set: (AUG-CC-PVTZ AUX)
    Blend: AUG-CC-PVTZ-JKFIT
	 Reference Energy          =    -535.9133530736281728 [Eh]
	 Singles Energy            =      -0.0000000000000000 [Eh]
	 Same-Spin Energy          =      -0.5362377467589891 [Eh]
	 Opposite-Spin Energy      =      -1.7492556197448588 [Eh]
	 Correlation Energy        =      -2.2854933665038479 [Eh]
	 Total Energy              =    -538.1988464401320016 [Eh]

	 ================> DF-SCS-MP2 Energies <==================
	-----------------------------------------------------------
	 SCS Same-Spin Scale       =       0.3333333333333333 [-]
	 SCS Opposite-Spin Scale   =       1.2000000000000000 [-]
	 SCS Same-Spin Energy      =      -0.1787459155863297 [Eh]
	 SCS Opposite-Spin Energy  =      -2.0991067436938304 [Eh]
	 SCS Correlation Energy    =      -2.2778526592801600 [Eh]
	 SCS Total Energy          =    -538.1912057329083154 [Eh]
	-----------------------------------------------------------

  Dipole Moment: [D]
     X:    -0.3923      Y:     3.6068      Z:    -1.5680     Total:     3.9524

*** Psi4 exiting successfully. Buy a developer a beer!
