                               Psi4 1.3.2 release

  ==> Input File <==

--------------------------------------------------------------------------
#psi4
#
memory 32 gb

molecule  {
0 1
  O        0.0168640     0.1901590    -0.4020990
  O       -1.3063300    -1.6835180    -0.2393630
  O        1.1131790    -1.1413980     1.1162780
  C       -2.3394790     0.5235580    -0.2686750
  C        2.3972750     0.1605680    -0.4950760
  C       -1.0635240    -0.6121722    -0.2883007
  C        1.1581700    -0.3826440     0.1751130
  C       -3.6769720    -0.1720140    -0.4890940
  C       -2.2983330     1.2966310     1.0564140
  C        2.4741530     1.6802570    -0.2975580
  C        3.6385590    -0.5497050     0.0312540
  H       -2.1437190     1.2306780    -1.0846340
  H        2.2784230    -0.0395630    -1.5677780
  H       -4.4834260     0.5663220    -0.5092150
  H       -3.6860570    -0.7233770    -1.4323560
  H       -3.8736540    -0.8834450     0.3164790
  H       -3.1030040     2.0367670     1.0791630
  H       -2.4386000     0.6130600     1.8994820
  H       -1.3454850     1.8152510     1.1829620
  H        2.5408530     1.9208960     0.7682120
  H        1.5983600     2.1807600    -0.7147640
  H        3.3683510     2.0723810    -0.7901000
  H        3.7622080    -0.3606850     1.1004290
  H        4.5263690    -0.1854060    -0.4932010
  H        3.5668740    -1.6302420    -0.1114630
units angstrom
no_reorient  #important for SAPT in psi4, default
symmetry c1  #important for SAPT in psi4, default
}

set PROPERTIES_ORIGIN ["COM"]
properties('MP2/aug-cc-pvtz', properties = ['dipole'])
--------------------------------------------------------------------------

    Molecular point group: c1
  Charge       = 0
  Multiplicity = 1
  Basis Set: AUG-CC-PVTZ
    Blend: AUG-CC-PVTZ
  Basis Set: (AUG-CC-PVTZ AUX)
    Blend: AUG-CC-PVTZ-JKFIT

    Orbital Energies [Eh]
    ---------------------

    Doubly Occupied:

       1A    -20.639743     2A    -20.573820     3A    -20.571066
       4A    -11.403161     5A    -11.382739     6A    -11.264323
       7A    -11.240560     8A    -11.240455     9A    -11.228030
      10A    -11.218773    11A    -11.211020    12A     -1.523989
      13A     -1.461708    14A     -1.391248    15A     -1.109365
      16A     -1.063414    17A     -0.955391    18A     -0.941103
      19A     -0.929466    20A     -0.843829    21A     -0.787259
      22A     -0.755509    23A     -0.716231    24A     -0.713423
      25A     -0.699167    26A     -0.655206    27A     -0.634717
      28A     -0.622798    29A     -0.603464    30A     -0.585672
      31A     -0.565738    32A     -0.558759    33A     -0.555476
      34A     -0.546299    35A     -0.540654    36A     -0.532190
      37A     -0.509082    38A     -0.502238    39A     -0.495161
      40A     -0.485730    41A     -0.479108    42A     -0.468256
      43A     -0.390434

  @DF-RHF Final Energy:  -535.87429195301195

   => Energetics <=

    Nuclear Repulsion Energy =            649.9348493442814743
    One-Electron Energy =               -2020.4267338138786272
    Two-Electron Energy =                 834.6175925165852050
    Total Energy =                       -535.8742919530119480
  Basis Set: (AUG-CC-PVTZ AUX)
    Blend: AUG-CC-PVTZ-RI
    Molecular point group: c1

    Geometry (in Angstrom), charge = 0, multiplicity = 1:

       Center              X                  Y                   Z               Mass
    ------------   -----------------  -----------------  -----------------  -----------------
         O            0.009081137609     0.254223111823    -0.404148366393    15.994914619570
         O           -1.314112862391    -1.619453888177    -0.241412366393    15.994914619570
         O            1.105396137609    -1.077333888177     1.114228633607    15.994914619570
         C           -2.347261862391     0.587622111823    -0.270724366393    12.000000000000
         C            2.389492137609     0.224632111823    -0.497125366393    12.000000000000
         C           -1.071306862391    -0.548108088177    -0.290350066393    12.000000000000
         C            1.150387137609    -0.318579888177     0.173063633607    12.000000000000
         C           -3.684754862391    -0.107949888177    -0.491143366393    12.000000000000
         C           -2.306115862391     1.360695111823     1.054364633607    12.000000000000
         C            2.466370137609     1.744321111823    -0.299607366393    12.000000000000
         C            3.630776137609    -0.485640888177     0.029204633607    12.000000000000
         H           -2.151501862391     1.294742111823    -1.086683366393     1.007825032230
         H            2.270640137609     0.024501111823    -1.569827366393     1.007825032230
         H           -4.491208862391     0.630386111823    -0.511264366393     1.007825032230
         H           -3.693839862391    -0.659312888177    -1.434405366393     1.007825032230
         H           -3.881436862391    -0.819380888177     0.314429633607     1.007825032230
         H           -3.110786862391     2.100831111823     1.077113633607     1.007825032230
         H           -2.446382862391     0.677124111823     1.897432633607     1.007825032230
         H           -1.353267862391     1.879315111823     1.180912633607     1.007825032230
         H            2.533070137609     1.984960111823     0.766162633607     1.007825032230
         H            1.590577137609     2.244824111823    -0.716813366393     1.007825032230
         H            3.360568137609     2.136445111823    -0.792149366393     1.007825032230
         H            3.754425137609    -0.296620888177     1.098379633607     1.007825032230
         H            4.518586137609    -0.121341888177    -0.495250366393     1.007825032230
         H            3.559091137609    -1.566177888177    -0.113512366393     1.007825032230

  Basis Set: AUG-CC-PVTZ
    Blend: AUG-CC-PVTZ
  Basis Set: (AUG-CC-PVTZ AUX)
    Blend: AUG-CC-PVTZ-JKFIT
	 Reference Energy          =    -535.8742919530119480 [Eh]
	 Singles Energy            =      -0.0000000000000000 [Eh]
	 Same-Spin Energy          =      -0.5351853578756217 [Eh]
	 Opposite-Spin Energy      =      -1.7482403006571432 [Eh]
	 Correlation Energy        =      -2.2834256585327650 [Eh]
	 Total Energy              =    -538.1577176115447401 [Eh]

	 ================> DF-SCS-MP2 Energies <==================
	-----------------------------------------------------------
	 SCS Same-Spin Scale       =       0.3333333333333333 [-]
	 SCS Opposite-Spin Scale   =       1.2000000000000000 [-]
	 SCS Same-Spin Energy      =      -0.1783951192918739 [Eh]
	 SCS Opposite-Spin Energy  =      -2.0978883607885717 [Eh]
	 SCS Correlation Energy    =      -2.2762834800804455 [Eh]
	 SCS Total Energy          =    -538.1505754330923992 [Eh]
	-----------------------------------------------------------

  Dipole Moment: [D]
     X:     1.4320      Y:     2.5933      Z:    -1.4940     Total:     3.3179

*** Psi4 exiting successfully. Buy a developer a beer!
