                               Psi4 1.3.2 release

  ==> Input File <==

--------------------------------------------------------------------------
#psi4
#
memory 32 gb

molecule  {
0 1
  O        0.0168640     0.1901590    -0.4020990
  O       -1.3063300    -1.6835180    -0.2393630
  O        1.1131790    -1.1413980     1.1162780
  C       -2.3394790     0.5235580    -0.2686750
  C        2.3972750     0.1605680    -0.4950760
  C       -1.1661533    -0.5491892    -0.2356727
  C        1.1581700    -0.3826440     0.1751130
  C       -3.6769720    -0.1720140    -0.4890940
  C       -2.2983330     1.2966310     1.0564140
  C        2.4741530     1.6802570    -0.2975580
  C        3.6385590    -0.5497050     0.0312540
  H       -2.1437190     1.2306780    -1.0846340
  H        2.2784230    -0.0395630    -1.5677780
  H       -4.4834260     0.5663220    -0.5092150
  H       -3.6860570    -0.7233770    -1.4323560
  H       -3.8736540    -0.8834450     0.3164790
  H       -3.1030040     2.0367670     1.0791630
  H       -2.4386000     0.6130600     1.8994820
  H       -1.3454850     1.8152510     1.1829620
  H        2.5408530     1.9208960     0.7682120
  H        1.5983600     2.1807600    -0.7147640
  H        3.3683510     2.0723810    -0.7901000
  H        3.7622080    -0.3606850     1.1004290
  H        4.5263690    -0.1854060    -0.4932010
  H        3.5668740    -1.6302420    -0.1114630
units angstrom
no_reorient  #important for SAPT in psi4, default
symmetry c1  #important for SAPT in psi4, default
}

set PROPERTIES_ORIGIN ["COM"]
properties('MP2/aug-cc-pvtz', properties = ['dipole'])
--------------------------------------------------------------------------

    Molecular point group: c1
  Charge       = 0
  Multiplicity = 1
  Basis Set: AUG-CC-PVTZ
    Blend: AUG-CC-PVTZ
  Basis Set: (AUG-CC-PVTZ AUX)
    Blend: AUG-CC-PVTZ-JKFIT

    Orbital Energies [Eh]
    ---------------------

    Doubly Occupied:

       1A    -20.624465     2A    -20.569117     3A    -20.563112
       4A    -11.394735     5A    -11.386437     6A    -11.259124
       7A    -11.254552     8A    -11.236271     9A    -11.228040
      10A    -11.223916    11A    -11.219976    12A     -1.495987
      13A     -1.432601    14A     -1.372033    15A     -1.104216
      16A     -1.083904    17A     -0.950030    18A     -0.942867
      19A     -0.930036    20A     -0.852306    21A     -0.786511
      22A     -0.742183    23A     -0.710166    24A     -0.704533
      25A     -0.684675    26A     -0.649174    27A     -0.631263
      28A     -0.617865    29A     -0.607499    30A     -0.579094
      31A     -0.565533    32A     -0.554305    33A     -0.550866
      34A     -0.544537    35A     -0.536684    36A     -0.534183
      37A     -0.502942    38A     -0.495268    39A     -0.494416
      40A     -0.489381    41A     -0.485660    42A     -0.467015
      43A     -0.421347

  @DF-RHF Final Energy:  -535.90676287568101

   => Energetics <=

    Nuclear Repulsion Energy =            649.1541771220863666
    One-Electron Energy =               -2019.1642328838661342
    Two-Electron Energy =                 834.1032928860987568
    Total Energy =                       -535.9067628756810109
  Basis Set: (AUG-CC-PVTZ AUX)
    Blend: AUG-CC-PVTZ-RI
    Molecular point group: c1

    Geometry (in Angstrom), charge = 0, multiplicity = 1:

       Center              X                  Y                   Z               Mass
    ------------   -----------------  -----------------  -----------------  -----------------
         O            0.016871118932     0.249442445934    -0.408143045662    15.994914619570
         O           -1.306322881068    -1.624234554066    -0.245407045662    15.994914619570
         O            1.113186118932    -1.082114554066     1.110233954338    15.994914619570
         C           -2.339471881068     0.582841445934    -0.274719045662    12.000000000000
         C            2.397282118932     0.219851445934    -0.501120045662    12.000000000000
         C           -1.166146181068    -0.489905754066    -0.241716745662    12.000000000000
         C            1.158177118932    -0.323360554066     0.169068954338    12.000000000000
         C           -3.676964881068    -0.112730554066    -0.495138045662    12.000000000000
         C           -2.298325881068     1.355914445934     1.050369954338    12.000000000000
         C            2.474160118932     1.739540445934    -0.303602045662    12.000000000000
         C            3.638566118932    -0.490421554066     0.025209954338    12.000000000000
         H           -2.143711881068     1.289961445934    -1.090678045662     1.007825032230
         H            2.278430118932     0.019720445934    -1.573822045662     1.007825032230
         H           -4.483418881068     0.625605445934    -0.515259045662     1.007825032230
         H           -3.686049881068    -0.664093554066    -1.438400045662     1.007825032230
         H           -3.873646881068    -0.824161554066     0.310434954338     1.007825032230
         H           -3.102996881068     2.096050445934     1.073118954338     1.007825032230
         H           -2.438592881068     0.672343445934     1.893437954338     1.007825032230
         H           -1.345477881068     1.874534445934     1.176917954338     1.007825032230
         H            2.540860118932     1.980179445934     0.762167954338     1.007825032230
         H            1.598367118932     2.240043445934    -0.720808045662     1.007825032230
         H            3.368358118932     2.131664445934    -0.796144045662     1.007825032230
         H            3.762215118932    -0.301401554066     1.094384954338     1.007825032230
         H            4.526376118932    -0.126122554066    -0.499245045662     1.007825032230
         H            3.566881118932    -1.570958554066    -0.117507045662     1.007825032230

  Basis Set: AUG-CC-PVTZ
    Blend: AUG-CC-PVTZ
  Basis Set: (AUG-CC-PVTZ AUX)
    Blend: AUG-CC-PVTZ-JKFIT
	 Reference Energy          =    -535.9067628756810109 [Eh]
	 Singles Energy            =      -0.0000000000000000 [Eh]
	 Same-Spin Energy          =      -0.5357579171306346 [Eh]
	 Opposite-Spin Energy      =      -1.7493393913562660 [Eh]
	 Correlation Energy        =      -2.2850973084869004 [Eh]
	 Total Energy              =    -538.1918601841679219 [Eh]

	 ================> DF-SCS-MP2 Energies <==================
	-----------------------------------------------------------
	 SCS Same-Spin Scale       =       0.3333333333333333 [-]
	 SCS Opposite-Spin Scale   =       1.2000000000000000 [-]
	 SCS Same-Spin Energy      =      -0.1785859723768782 [Eh]
	 SCS Opposite-Spin Energy  =      -2.0992072696275192 [Eh]
	 SCS Correlation Energy    =      -2.2777932420043974 [Eh]
	 SCS Total Energy          =    -538.1845561176853607 [Eh]
	-----------------------------------------------------------

  Dipole Moment: [D]
     X:     0.4339      Y:     2.9903      Z:    -1.4271     Total:     3.3417

*** Psi4 exiting successfully. Buy a developer a beer!
