                               Psi4 1.3.2 release

  ==> Input File <==

--------------------------------------------------------------------------
#psi4
#
memory 32 gb

molecule  {
0 1
  O        0.0168640     0.1901590    -0.4020990
  O       -1.3063300    -1.6835180    -0.2393630
  O        1.1131790    -1.1413980     1.1162780
  C       -2.3394790     0.5235580    -0.2686750
  C        2.3972750     0.1605680    -0.4950760
  C       -1.1725471    -0.4269220    -0.3679849
  C        1.1581700    -0.3826440     0.1751130
  C       -3.6769720    -0.1720140    -0.4890940
  C       -2.2983330     1.2966310     1.0564140
  C        2.4741530     1.6802570    -0.2975580
  C        3.6385590    -0.5497050     0.0312540
  H       -2.1437190     1.2306780    -1.0846340
  H        2.2784230    -0.0395630    -1.5677780
  H       -4.4834260     0.5663220    -0.5092150
  H       -3.6860570    -0.7233770    -1.4323560
  H       -3.8736540    -0.8834450     0.3164790
  H       -3.1030040     2.0367670     1.0791630
  H       -2.4386000     0.6130600     1.8994820
  H       -1.3454850     1.8152510     1.1829620
  H        2.5408530     1.9208960     0.7682120
  H        1.5983600     2.1807600    -0.7147640
  H        3.3683510     2.0723810    -0.7901000
  H        3.7622080    -0.3606850     1.1004290
  H        4.5263690    -0.1854060    -0.4932010
  H        3.5668740    -1.6302420    -0.1114630
units angstrom
no_reorient  #important for SAPT in psi4, default
symmetry c1  #important for SAPT in psi4, default
}

set PROPERTIES_ORIGIN ["COM"]
properties('MP2/aug-cc-pvtz', properties = ['dipole'])
--------------------------------------------------------------------------

    Molecular point group: c1
  Charge       = 0
  Multiplicity = 1
  Basis Set: AUG-CC-PVTZ
    Blend: AUG-CC-PVTZ
  Basis Set: (AUG-CC-PVTZ AUX)
    Blend: AUG-CC-PVTZ-JKFIT

    Orbital Energies [Eh]
    ---------------------

    Doubly Occupied:

       1A    -20.637334     2A    -20.568405     3A    -20.547618
       4A    -11.403216     5A    -11.396829     6A    -11.264469
       7A    -11.257910     8A    -11.239890     9A    -11.234762
      10A    -11.227067    11A    -11.221759    12A     -1.499656
      13A     -1.395487    14A     -1.336924    15A     -1.111801
      16A     -1.094921    17A     -0.963263    18A     -0.948104
      19A     -0.942872    20A     -0.866811    21A     -0.805331
      22A     -0.737833    23A     -0.711453    24A     -0.699351
      25A     -0.677788    26A     -0.646249    27A     -0.627460
      28A     -0.618128    29A     -0.601090    30A     -0.577465
      31A     -0.568163    32A     -0.557127    33A     -0.549695
      34A     -0.537339    35A     -0.531492    36A     -0.522705
      37A     -0.503114    38A     -0.499317    39A     -0.496347
      40A     -0.491137    41A     -0.469048    42A     -0.461461
      43A     -0.431804

  @DF-RHF Final Energy:  -535.89880955827766

   => Energetics <=

    Nuclear Repulsion Energy =            648.4042438837999498
    One-Electron Energy =               -2017.6461125450955478
    Two-Electron Energy =                 833.3430591030178221
    Total Energy =                       -535.8988095582776623
  Basis Set: (AUG-CC-PVTZ AUX)
    Blend: AUG-CC-PVTZ-RI
    Molecular point group: c1

    Geometry (in Angstrom), charge = 0, multiplicity = 1:

       Center              X                  Y                   Z               Mass
    ------------   -----------------  -----------------  -----------------  -----------------
         O            0.017356434359     0.240161868122    -0.398100011491    15.994914619570
         O           -1.305837565641    -1.633515131878    -0.235364011491    15.994914619570
         O            1.113671434359    -1.091395131878     1.120276988509    15.994914619570
         C           -2.338986565641     0.573560868122    -0.264676011491    12.000000000000
         C            2.397767434359     0.210570868122    -0.491077011491    12.000000000000
         C           -1.172054665641    -0.376919131878    -0.363985911491    12.000000000000
         C            1.158662434359    -0.332641131878     0.179111988509    12.000000000000
         C           -3.676479565641    -0.122011131878    -0.485095011491    12.000000000000
         C           -2.297840565641     1.346633868122     1.060412988509    12.000000000000
         C            2.474645434359     1.730259868122    -0.293559011491    12.000000000000
         C            3.639051434359    -0.499702131878     0.035252988509    12.000000000000
         H           -2.143226565641     1.280680868122    -1.080635011491     1.007825032230
         H            2.278915434359     0.010439868122    -1.563779011491     1.007825032230
         H           -4.482933565641     0.616324868122    -0.505216011491     1.007825032230
         H           -3.685564565641    -0.673374131878    -1.428357011491     1.007825032230
         H           -3.873161565641    -0.833442131878     0.320477988509     1.007825032230
         H           -3.102511565641     2.086769868122     1.083161988509     1.007825032230
         H           -2.438107565641     0.663062868122     1.903480988509     1.007825032230
         H           -1.344992565641     1.865253868122     1.186960988509     1.007825032230
         H            2.541345434359     1.970898868122     0.772210988509     1.007825032230
         H            1.598852434359     2.230762868122    -0.710765011491     1.007825032230
         H            3.368843434359     2.122383868122    -0.786101011491     1.007825032230
         H            3.762700434359    -0.310682131878     1.104427988509     1.007825032230
         H            4.526861434359    -0.135403131878    -0.489202011491     1.007825032230
         H            3.567366434359    -1.580239131878    -0.107464011491     1.007825032230

  Basis Set: AUG-CC-PVTZ
    Blend: AUG-CC-PVTZ
  Basis Set: (AUG-CC-PVTZ AUX)
    Blend: AUG-CC-PVTZ-JKFIT
	 Reference Energy          =    -535.8988095582776623 [Eh]
	 Singles Energy            =      -0.0000000000000000 [Eh]
	 Same-Spin Energy          =      -0.5385376983288649 [Eh]
	 Opposite-Spin Energy      =      -1.7548691103386818 [Eh]
	 Correlation Energy        =      -2.2934068086675468 [Eh]
	 Total Energy              =    -538.1922163669452175 [Eh]

	 ================> DF-SCS-MP2 Energies <==================
	-----------------------------------------------------------
	 SCS Same-Spin Scale       =       0.3333333333333333 [-]
	 SCS Opposite-Spin Scale   =       1.2000000000000000 [-]
	 SCS Same-Spin Energy      =      -0.1795125661096216 [Eh]
	 SCS Opposite-Spin Energy  =      -2.1058429324064178 [Eh]
	 SCS Correlation Energy    =      -2.2853554985160396 [Eh]
	 SCS Total Energy          =    -538.1841650567937450 [Eh]
	-----------------------------------------------------------

  Dipole Moment: [D]
     X:     0.8032      Y:     3.6934      Z:    -1.4245     Total:     4.0392

*** Psi4 exiting successfully. Buy a developer a beer!
