                               Psi4 1.3.2 release

  ==> Input File <==

--------------------------------------------------------------------------
#psi4
#
memory 32 gb

molecule  {
0 1
  O        0.0168640     0.1901590    -0.4020990
  O       -1.3063300    -1.6835180    -0.2393630
  O        1.1131790    -1.1413980     1.1162780
  C       -2.3394790     0.5235580    -0.2686750
  C        2.3972750     0.1605680    -0.4950760
  C       -1.1253743    -0.4315633    -0.2942664
  C        1.1581700    -0.3826440     0.1751130
  C       -3.6769720    -0.1720140    -0.4890940
  C       -2.2983330     1.2966310     1.0564140
  C        2.4741530     1.6802570    -0.2975580
  C        3.6385590    -0.5497050     0.0312540
  H       -2.1437190     1.2306780    -1.0846340
  H        2.2784230    -0.0395630    -1.5677780
  H       -4.4834260     0.5663220    -0.5092150
  H       -3.6860570    -0.7233770    -1.4323560
  H       -3.8736540    -0.8834450     0.3164790
  H       -3.1030040     2.0367670     1.0791630
  H       -2.4386000     0.6130600     1.8994820
  H       -1.3454850     1.8152510     1.1829620
  H        2.5408530     1.9208960     0.7682120
  H        1.5983600     2.1807600    -0.7147640
  H        3.3683510     2.0723810    -0.7901000
  H        3.7622080    -0.3606850     1.1004290
  H        4.5263690    -0.1854060    -0.4932010
  H        3.5668740    -1.6302420    -0.1114630
units angstrom
no_reorient  #important for SAPT in psi4, default
symmetry c1  #important for SAPT in psi4, default
}

set PROPERTIES_ORIGIN ["COM"]
properties('MP2/aug-cc-pvtz', properties = ['dipole'])
--------------------------------------------------------------------------

    Molecular point group: c1
  Charge       = 0
  Multiplicity = 1
  Basis Set: AUG-CC-PVTZ
    Blend: AUG-CC-PVTZ
  Basis Set: (AUG-CC-PVTZ AUX)
    Blend: AUG-CC-PVTZ-JKFIT

    Orbital Energies [Eh]
    ---------------------

    Doubly Occupied:

       1A    -20.646736     2A    -20.573423     3A    -20.543175
       4A    -11.407727     5A    -11.393401     6A    -11.267211
       7A    -11.255172     8A    -11.242284     9A    -11.231051
      10A    -11.229175    11A    -11.219003    12A     -1.518065
      13A     -1.401644    14A     -1.338594    15A     -1.113972
      16A     -1.089030    17A     -0.968938    18A     -0.950420
      19A     -0.940238    20A     -0.862519    21A     -0.806581
      22A     -0.746993    23A     -0.716809    24A     -0.701567
      25A     -0.682717    26A     -0.649886    27A     -0.625219
      28A     -0.621324    29A     -0.600422    30A     -0.579915
      31A     -0.567202    32A     -0.559770    33A     -0.547410
      34A     -0.540818    35A     -0.530796    36A     -0.522124
      37A     -0.504232    38A     -0.498814    39A     -0.497016
      40A     -0.491119    41A     -0.471392    42A     -0.462224
      43A     -0.425389

  @DF-RHF Final Energy:  -535.89911247350426

   => Energetics <=

    Nuclear Repulsion Energy =            649.1734469468710813
    One-Electron Energy =               -2019.0620761364762075
    Two-Electron Energy =                 833.9895167161008658
    Total Energy =                       -535.8991124735042604
  Basis Set: (AUG-CC-PVTZ AUX)
    Blend: AUG-CC-PVTZ-RI
    Molecular point group: c1

    Geometry (in Angstrom), charge = 0, multiplicity = 1:

       Center              X                  Y                   Z               Mass
    ------------   -----------------  -----------------  -----------------  -----------------
         O            0.013775826960     0.240514161671    -0.403695545497    15.994914619570
         O           -1.309418173040    -1.633162838329    -0.240959545497    15.994914619570
         O            1.110090826960    -1.091042838329     1.114681454503    15.994914619570
         C           -2.342567173040     0.573913161671    -0.270271545497    12.000000000000
         C            2.394186826960     0.210923161671    -0.496672545497    12.000000000000
         C           -1.128462473040    -0.381208138329    -0.295862945497    12.000000000000
         C            1.155081826960    -0.332288838329     0.173516454503    12.000000000000
         C           -3.680060173040    -0.121658838329    -0.490690545497    12.000000000000
         C           -2.301421173040     1.346986161671     1.054817454503    12.000000000000
         C            2.471064826960     1.730612161671    -0.299154545497    12.000000000000
         C            3.635470826960    -0.499349838329     0.029657454503    12.000000000000
         H           -2.146807173040     1.281033161671    -1.086230545497     1.007825032230
         H            2.275334826960     0.010792161671    -1.569374545497     1.007825032230
         H           -4.486514173040     0.616677161671    -0.510811545497     1.007825032230
         H           -3.689145173040    -0.673021838329    -1.433952545497     1.007825032230
         H           -3.876742173040    -0.833089838329     0.314882454503     1.007825032230
         H           -3.106092173040     2.087122161671     1.077566454503     1.007825032230
         H           -2.441688173040     0.663415161671     1.897885454503     1.007825032230
         H           -1.348573173040     1.865606161671     1.181365454503     1.007825032230
         H            2.537764826960     1.971251161671     0.766615454503     1.007825032230
         H            1.595271826960     2.231115161671    -0.716360545497     1.007825032230
         H            3.365262826960     2.122736161671    -0.791696545497     1.007825032230
         H            3.759119826960    -0.310329838329     1.098832454503     1.007825032230
         H            4.523280826960    -0.135050838329    -0.494797545497     1.007825032230
         H            3.563785826960    -1.579886838329    -0.113059545497     1.007825032230

  Basis Set: AUG-CC-PVTZ
    Blend: AUG-CC-PVTZ
  Basis Set: (AUG-CC-PVTZ AUX)
    Blend: AUG-CC-PVTZ-JKFIT
	 Reference Energy          =    -535.8991124735042604 [Eh]
	 Singles Energy            =      -0.0000000000000000 [Eh]
	 Same-Spin Energy          =      -0.5379952218535069 [Eh]
	 Opposite-Spin Energy      =      -1.7537017827576351 [Eh]
	 Correlation Energy        =      -2.2916970046111418 [Eh]
	 Total Energy              =    -538.1908094781153977 [Eh]

	 ================> DF-SCS-MP2 Energies <==================
	-----------------------------------------------------------
	 SCS Same-Spin Scale       =       0.3333333333333333 [-]
	 SCS Opposite-Spin Scale   =       1.2000000000000000 [-]
	 SCS Same-Spin Energy      =      -0.1793317406178356 [Eh]
	 SCS Opposite-Spin Energy  =      -2.1044421393091621 [Eh]
	 SCS Correlation Energy    =      -2.2837738799269980 [Eh]
	 SCS Total Energy          =    -538.1828863534312859 [Eh]
	-----------------------------------------------------------

  Dipole Moment: [D]
     X:     1.1996      Y:     3.6889      Z:    -1.3870     Total:     4.1195

*** Psi4 exiting successfully. Buy a developer a beer!
