                               Psi4 1.3.2 release

  ==> Input File <==

--------------------------------------------------------------------------
#psi4
#
memory 32 gb

molecule  {
0 1
  O        0.0168640     0.1901590    -0.4020990
  O       -1.3063300    -1.6835180    -0.2393630
  O        1.1131790    -1.1413980     1.1162780
  C       -2.3394790     0.5235580    -0.2686750
  C        2.3972750     0.1605680    -0.4950760
  C       -1.1544884    -0.3990261    -0.4088193
  C        1.1581700    -0.3826440     0.1751130
  C       -3.6769720    -0.1720140    -0.4890940
  C       -2.2983330     1.2966310     1.0564140
  C        2.4741530     1.6802570    -0.2975580
  C        3.6385590    -0.5497050     0.0312540
  H       -2.1437190     1.2306780    -1.0846340
  H        2.2784230    -0.0395630    -1.5677780
  H       -4.4834260     0.5663220    -0.5092150
  H       -3.6860570    -0.7233770    -1.4323560
  H       -3.8736540    -0.8834450     0.3164790
  H       -3.1030040     2.0367670     1.0791630
  H       -2.4386000     0.6130600     1.8994820
  H       -1.3454850     1.8152510     1.1829620
  H        2.5408530     1.9208960     0.7682120
  H        1.5983600     2.1807600    -0.7147640
  H        3.3683510     2.0723810    -0.7901000
  H        3.7622080    -0.3606850     1.1004290
  H        4.5263690    -0.1854060    -0.4932010
  H        3.5668740    -1.6302420    -0.1114630
units angstrom
no_reorient  #important for SAPT in psi4, default
symmetry c1  #important for SAPT in psi4, default
}

set PROPERTIES_ORIGIN ["COM"]
properties('MP2/aug-cc-pvtz', properties = ['dipole'])
--------------------------------------------------------------------------

    Molecular point group: c1
  Charge       = 0
  Multiplicity = 1
  Basis Set: AUG-CC-PVTZ
    Blend: AUG-CC-PVTZ
  Basis Set: (AUG-CC-PVTZ AUX)
    Blend: AUG-CC-PVTZ-JKFIT

    Orbital Energies [Eh]
    ---------------------

    Doubly Occupied:

       1A    -20.643411     2A    -20.571952     3A    -20.540741
       4A    -11.407278     5A    -11.398487     6A    -11.266928
       7A    -11.258102     8A    -11.241700     9A    -11.235011
      10A    -11.228693    11A    -11.220851    12A     -1.510773
      13A     -1.398876    14A     -1.316019    15A     -1.114141
      16A     -1.094557    17A     -0.970974    18A     -0.950228
      19A     -0.943012    20A     -0.868649    21A     -0.811937
      22A     -0.740190    23A     -0.714567    24A     -0.698965
      25A     -0.678911    26A     -0.647602    27A     -0.626834
      28A     -0.619554    29A     -0.597005    30A     -0.577973
      31A     -0.567550    32A     -0.558746    33A     -0.548440
      34A     -0.538923    35A     -0.531080    36A     -0.522520
      37A     -0.504409    38A     -0.498194    39A     -0.496556
      40A     -0.490107    41A     -0.469305    42A     -0.449516
      43A     -0.428822

  @DF-RHF Final Energy:  -535.88466686660865

   => Energetics <=

    Nuclear Repulsion Energy =            648.2955460784821753
    One-Electron Energy =               -2017.3642481475928889
    Two-Electron Energy =                 833.1840352025020593
    Total Energy =                       -535.8846668666086543
  Basis Set: (AUG-CC-PVTZ AUX)
    Blend: AUG-CC-PVTZ-RI
    Molecular point group: c1

    Geometry (in Angstrom), charge = 0, multiplicity = 1:

       Center              X                  Y                   Z               Mass
    ------------   -----------------  -----------------  -----------------  -----------------
         O            0.015985705574     0.238044455843    -0.395000514434    15.994914619570
         O           -1.307208294426    -1.635632544157    -0.232264514434    15.994914619570
         O            1.112300705574    -1.093512544157     1.123376485566    15.994914619570
         C           -2.340357294426     0.571443455843    -0.261576514434    12.000000000000
         C            2.396396705574     0.208453455843    -0.487977514434    12.000000000000
         C           -1.155366694426    -0.351140644157    -0.401720814434    12.000000000000
         C            1.157291705574    -0.334758544157     0.182211485566    12.000000000000
         C           -3.677850294426    -0.124128544157    -0.481995514434    12.000000000000
         C           -2.299211294426     1.344516455843     1.063512485566    12.000000000000
         C            2.473274705574     1.728142455843    -0.290459514434    12.000000000000
         C            3.637680705574    -0.501819544157     0.038352485566    12.000000000000
         H           -2.144597294426     1.278563455843    -1.077535514434     1.007825032230
         H            2.277544705574     0.008322455843    -1.560679514434     1.007825032230
         H           -4.484304294426     0.614207455843    -0.502116514434     1.007825032230
         H           -3.686935294426    -0.675491544157    -1.425257514434     1.007825032230
         H           -3.874532294426    -0.835559544157     0.323577485566     1.007825032230
         H           -3.103882294426     2.084652455843     1.086261485566     1.007825032230
         H           -2.439478294426     0.660945455843     1.906580485566     1.007825032230
         H           -1.346363294426     1.863136455843     1.190060485566     1.007825032230
         H            2.539974705574     1.968781455843     0.775310485566     1.007825032230
         H            1.597481705574     2.228645455843    -0.707665514434     1.007825032230
         H            3.367472705574     2.120266455843    -0.783001514434     1.007825032230
         H            3.761329705574    -0.312799544157     1.107527485566     1.007825032230
         H            4.525490705574    -0.137520544157    -0.486102514434     1.007825032230
         H            3.565995705574    -1.582356544157    -0.104364514434     1.007825032230

  Basis Set: AUG-CC-PVTZ
    Blend: AUG-CC-PVTZ
  Basis Set: (AUG-CC-PVTZ AUX)
    Blend: AUG-CC-PVTZ-JKFIT
	 Reference Energy          =    -535.8846668666086543 [Eh]
	 Singles Energy            =      -0.0000000000000000 [Eh]
	 Same-Spin Energy          =      -0.5394257601817283 [Eh]
	 Opposite-Spin Energy      =      -1.7568101052369811 [Eh]
	 Correlation Energy        =      -2.2962358654187094 [Eh]
	 Total Energy              =    -538.1809027320273344 [Eh]

	 ================> DF-SCS-MP2 Energies <==================
	-----------------------------------------------------------
	 SCS Same-Spin Scale       =       0.3333333333333333 [-]
	 SCS Opposite-Spin Scale   =       1.2000000000000000 [-]
	 SCS Same-Spin Energy      =      -0.1798085867272428 [Eh]
	 SCS Opposite-Spin Energy  =      -2.1081721262843773 [Eh]
	 SCS Correlation Energy    =      -2.2879807130116201 [Eh]
	 SCS Total Energy          =    -538.1726475796202749 [Eh]
	-----------------------------------------------------------

  Dipole Moment: [D]
     X:     1.0768      Y:     3.8313      Z:    -1.4149     Total:     4.2238

*** Psi4 exiting successfully. Buy a developer a beer!
