                               Psi4 1.3.2 release

  ==> Input File <==

--------------------------------------------------------------------------
#psi4
#
memory 32 gb

molecule  {
0 1
  O        0.0168640     0.1901590    -0.4020990
  O       -1.3900822    -1.6739270    -0.2357942
  O        1.1131790    -1.1413980     1.1162780
  C       -2.3394790     0.5235580    -0.2686750
  C        2.3972750     0.1605680    -0.4950760
  C       -1.2129060    -0.4792070    -0.2860030
  C        1.1581700    -0.3826440     0.1751130
  C       -3.6769720    -0.1720140    -0.4890940
  C       -2.2983330     1.2966310     1.0564140
  C        2.4741530     1.6802570    -0.2975580
  C        3.6385590    -0.5497050     0.0312540
  H       -2.1437190     1.2306780    -1.0846340
  H        2.2784230    -0.0395630    -1.5677780
  H       -4.4834260     0.5663220    -0.5092150
  H       -3.6860570    -0.7233770    -1.4323560
  H       -3.8736540    -0.8834450     0.3164790
  H       -3.1030040     2.0367670     1.0791630
  H       -2.4386000     0.6130600     1.8994820
  H       -1.3454850     1.8152510     1.1829620
  H        2.5408530     1.9208960     0.7682120
  H        1.5983600     2.1807600    -0.7147640
  H        3.3683510     2.0723810    -0.7901000
  H        3.7622080    -0.3606850     1.1004290
  H        4.5263690    -0.1854060    -0.4932010
  H        3.5668740    -1.6302420    -0.1114630
units angstrom
no_reorient  #important for SAPT in psi4, default
symmetry c1  #important for SAPT in psi4, default
}

set PROPERTIES_ORIGIN ["COM"]
properties('MP2/aug-cc-pvtz', properties = ['dipole'])
--------------------------------------------------------------------------

    Molecular point group: c1
  Charge       = 0
  Multiplicity = 1
  Basis Set: AUG-CC-PVTZ
    Blend: AUG-CC-PVTZ
  Basis Set: (AUG-CC-PVTZ AUX)
    Blend: AUG-CC-PVTZ-JKFIT

    Orbital Energies [Eh]
    ---------------------

    Doubly Occupied:

       1A    -20.629211     2A    -20.564016     3A    -20.562509
       4A    -11.397357     5A    -11.394709     6A    -11.260957
       7A    -11.254630     8A    -11.237352     9A    -11.232691
      10A    -11.224927    11A    -11.221140    12A     -1.482740
      13A     -1.404224    14A     -1.365106    15A     -1.108078
      16A     -1.093604    17A     -0.953016    18A     -0.945641
      19A     -0.936767    20A     -0.863056    21A     -0.792512
      22A     -0.737145    23A     -0.707188    24A     -0.702818
      25A     -0.677214    26A     -0.646886    27A     -0.629253
      28A     -0.616720    29A     -0.607010    30A     -0.576975
      31A     -0.567305    32A     -0.554727    33A     -0.551262
      34A     -0.535776    35A     -0.533081    36A     -0.527604
      37A     -0.503186    38A     -0.498026    39A     -0.495356
      40A     -0.490455    41A     -0.480128    42A     -0.468715
      43A     -0.432977

  @DF-RHF Final Energy:  -535.91045060900444

   => Energetics <=

    Nuclear Repulsion Energy =            648.1009721452470558
    One-Electron Energy =               -2017.0947397912227643
    Two-Electron Energy =                 833.0833170369713798
    Total Energy =                       -535.9104506090044424
  Basis Set: (AUG-CC-PVTZ AUX)
    Blend: AUG-CC-PVTZ-RI
    Molecular point group: c1

    Geometry (in Angstrom), charge = 0, multiplicity = 1:

       Center              X                  Y                   Z               Mass
    ------------   -----------------  -----------------  -----------------  -----------------
         O            0.028893321862     0.243160159590    -0.404683838288    15.994914619570
         O           -1.378052878138    -1.620925840410    -0.238379038288    15.994914619570
         O            1.125208321862    -1.088396840410     1.113693161712    15.994914619570
         C           -2.327449678138     0.576559159590    -0.271259838288    12.000000000000
         C            2.409304321862     0.213569159590    -0.497660838288    12.000000000000
         C           -1.200876678138    -0.426205840410    -0.288587838288    12.000000000000
         C            1.170199321862    -0.329642840410     0.172528161712    12.000000000000
         C           -3.664942678138    -0.119012840410    -0.491678838288    12.000000000000
         C           -2.286303678138     1.349632159590     1.053829161712    12.000000000000
         C            2.486182321862     1.733258159590    -0.300142838288    12.000000000000
         C            3.650588321862    -0.496703840410     0.028669161712    12.000000000000
         H           -2.131689678138     1.283679159590    -1.087218838288     1.007825032230
         H            2.290452321862     0.013438159590    -1.570362838288     1.007825032230
         H           -4.471396678138     0.619323159590    -0.511799838288     1.007825032230
         H           -3.674027678138    -0.670375840410    -1.434940838288     1.007825032230
         H           -3.861624678138    -0.830443840410     0.313894161712     1.007825032230
         H           -3.090974678138     2.089768159590     1.076578161712     1.007825032230
         H           -2.426570678138     0.666061159590     1.896897161712     1.007825032230
         H           -1.333455678138     1.868252159590     1.180377161712     1.007825032230
         H            2.552882321862     1.973897159590     0.765627161712     1.007825032230
         H            1.610389321862     2.233761159590    -0.717348838288     1.007825032230
         H            3.380380321862     2.125382159590    -0.792684838288     1.007825032230
         H            3.774237321862    -0.307683840410     1.097844161712     1.007825032230
         H            4.538398321862    -0.132404840410    -0.495785838288     1.007825032230
         H            3.578903321862    -1.577240840410    -0.114047838288     1.007825032230

  Basis Set: AUG-CC-PVTZ
    Blend: AUG-CC-PVTZ
  Basis Set: (AUG-CC-PVTZ AUX)
    Blend: AUG-CC-PVTZ-JKFIT
	 Reference Energy          =    -535.9104506090044424 [Eh]
	 Singles Energy            =      -0.0000000000000000 [Eh]
	 Same-Spin Energy          =      -0.5375391457235866 [Eh]
	 Opposite-Spin Energy      =      -1.7527201983782046 [Eh]
	 Correlation Energy        =      -2.2902593441017913 [Eh]
	 Total Energy              =    -538.2007099531061840 [Eh]

	 ================> DF-SCS-MP2 Energies <==================
	-----------------------------------------------------------
	 SCS Same-Spin Scale       =       0.3333333333333333 [-]
	 SCS Opposite-Spin Scale   =       1.2000000000000000 [-]
	 SCS Same-Spin Energy      =      -0.1791797152411955 [Eh]
	 SCS Opposite-Spin Energy  =      -2.1032642380538453 [Eh]
	 SCS Correlation Energy    =      -2.2824439532950409 [Eh]
	 SCS Total Energy          =    -538.1928945622994434 [Eh]
	-----------------------------------------------------------

  Dipole Moment: [D]
     X:     0.4722      Y:     3.3461      Z:    -1.4296     Total:     3.6692

*** Psi4 exiting successfully. Buy a developer a beer!
