                               Psi4 1.3.2 release

  ==> Input File <==

--------------------------------------------------------------------------
#psi4
#
memory 32 gb

molecule  {
0 1
  O        0.0168640     0.1901590    -0.4020990
  O       -1.2642576    -1.6861151    -0.2412338
  O        1.1131790    -1.1413980     1.1162780
  C       -2.3394790     0.5235580    -0.2686750
  C        2.3972750     0.1605680    -0.4950760
  C       -1.2129060    -0.4792070    -0.2860030
  C        1.1581700    -0.3826440     0.1751130
  C       -3.6769720    -0.1720140    -0.4890940
  C       -2.2983330     1.2966310     1.0564140
  C        2.4741530     1.6802570    -0.2975580
  C        3.6385590    -0.5497050     0.0312540
  H       -2.1437190     1.2306780    -1.0846340
  H        2.2784230    -0.0395630    -1.5677780
  H       -4.4834260     0.5663220    -0.5092150
  H       -3.6860570    -0.7233770    -1.4323560
  H       -3.8736540    -0.8834450     0.3164790
  H       -3.1030040     2.0367670     1.0791630
  H       -2.4386000     0.6130600     1.8994820
  H       -1.3454850     1.8152510     1.1829620
  H        2.5408530     1.9208960     0.7682120
  H        1.5983600     2.1807600    -0.7147640
  H        3.3683510     2.0723810    -0.7901000
  H        3.7622080    -0.3606850     1.1004290
  H        4.5263690    -0.1854060    -0.4932010
  H        3.5668740    -1.6302420    -0.1114630
units angstrom
no_reorient  #important for SAPT in psi4, default
symmetry c1  #important for SAPT in psi4, default
}

set PROPERTIES_ORIGIN ["COM"]
properties('MP2/aug-cc-pvtz', properties = ['dipole'])
--------------------------------------------------------------------------

    Molecular point group: c1
  Charge       = 0
  Multiplicity = 1
  Basis Set: AUG-CC-PVTZ
    Blend: AUG-CC-PVTZ
  Basis Set: (AUG-CC-PVTZ AUX)
    Blend: AUG-CC-PVTZ-JKFIT

    Orbital Energies [Eh]
    ---------------------

    Doubly Occupied:

       1A    -20.620664     2A    -20.561019     3A    -20.559250
       4A    -11.394030     5A    -11.393144     6A    -11.260944
       7A    -11.258261     8A    -11.235602     9A    -11.235276
      10A    -11.225486    11A    -11.222817    12A     -1.480849
      13A     -1.400462    14A     -1.358046    15A     -1.108685
      16A     -1.095283    17A     -0.951997    18A     -0.946925
      19A     -0.935616    20A     -0.863631    21A     -0.791259
      22A     -0.734825    23A     -0.705789    24A     -0.701045
      25A     -0.673932    26A     -0.644523    27A     -0.630673
      28A     -0.615105    29A     -0.606557    30A     -0.575423
      31A     -0.567625    32A     -0.554004    33A     -0.551766
      34A     -0.537484    35A     -0.531691    36A     -0.528045
      37A     -0.503593    38A     -0.498552    39A     -0.494905
      40A     -0.490953    41A     -0.475374    42A     -0.468135
      43A     -0.432291

  @DF-RHF Final Energy:  -535.91203581419722

   => Energetics <=

    Nuclear Repulsion Energy =            648.7804130555585971
    One-Electron Energy =               -2018.5418302521195528
    Two-Electron Energy =                 833.8493813823638448
    Total Energy =                       -535.9120358141972247
  Basis Set: (AUG-CC-PVTZ AUX)
    Blend: AUG-CC-PVTZ-RI
    Molecular point group: c1

    Geometry (in Angstrom), charge = 0, multiplicity = 1:

       Center              X                  Y                   Z               Mass
    ------------   -----------------  -----------------  -----------------  -----------------
         O            0.016163237308     0.244393269360    -0.404133496241    15.994914619570
         O           -1.264958362692    -1.631880830640    -0.243268296241    15.994914619570
         O            1.112478237308    -1.087163730640     1.114243503759    15.994914619570
         C           -2.340179762692     0.577792269360    -0.270709496241    12.000000000000
         C            2.396574237308     0.214802269360    -0.497110496241    12.000000000000
         C           -1.213606762692    -0.424972730640    -0.288037496241    12.000000000000
         C            1.157469237308    -0.328409730640     0.173078503759    12.000000000000
         C           -3.677672762692    -0.117779730640    -0.491128496241    12.000000000000
         C           -2.299033762692     1.350865269360     1.054379503759    12.000000000000
         C            2.473452237308     1.734491269360    -0.299592496241    12.000000000000
         C            3.637858237308    -0.495470730640     0.029219503759    12.000000000000
         H           -2.144419762692     1.284912269360    -1.086668496241     1.007825032230
         H            2.277722237308     0.014671269360    -1.569812496241     1.007825032230
         H           -4.484126762692     0.620556269360    -0.511249496241     1.007825032230
         H           -3.686757762692    -0.669142730640    -1.434390496241     1.007825032230
         H           -3.874354762692    -0.829210730640     0.314444503759     1.007825032230
         H           -3.103704762692     2.091001269360     1.077128503759     1.007825032230
         H           -2.439300762692     0.667294269360     1.897447503759     1.007825032230
         H           -1.346185762692     1.869485269360     1.180927503759     1.007825032230
         H            2.540152237308     1.975130269360     0.766177503759     1.007825032230
         H            1.597659237308     2.234994269360    -0.716798496241     1.007825032230
         H            3.367650237308     2.126615269360    -0.792134496241     1.007825032230
         H            3.761507237308    -0.306450730640     1.098394503759     1.007825032230
         H            4.525668237308    -0.131171730640    -0.495235496241     1.007825032230
         H            3.566173237308    -1.576007730640    -0.113497496241     1.007825032230

  Basis Set: AUG-CC-PVTZ
    Blend: AUG-CC-PVTZ
  Basis Set: (AUG-CC-PVTZ AUX)
    Blend: AUG-CC-PVTZ-JKFIT
	 Reference Energy          =    -535.9120358141972247 [Eh]
	 Singles Energy            =      -0.0000000000000000 [Eh]
	 Same-Spin Energy          =      -0.5373883456224284 [Eh]
	 Opposite-Spin Energy      =      -1.7523443073579517 [Eh]
	 Correlation Energy        =      -2.2897326529803799 [Eh]
	 Total Energy              =    -538.2017684671776578 [Eh]

	 ================> DF-SCS-MP2 Energies <==================
	-----------------------------------------------------------
	 SCS Same-Spin Scale       =       0.3333333333333333 [-]
	 SCS Opposite-Spin Scale   =       1.2000000000000000 [-]
	 SCS Same-Spin Energy      =      -0.1791294485408095 [Eh]
	 SCS Opposite-Spin Energy  =      -2.1028131688295417 [Eh]
	 SCS Correlation Energy    =      -2.2819426173703512 [Eh]
	 SCS Total Energy          =    -538.1939784315675297 [Eh]
	-----------------------------------------------------------

  Dipole Moment: [D]
     X:     0.0542      Y:     3.4222      Z:    -1.4181     Total:     3.7048

*** Psi4 exiting successfully. Buy a developer a beer!
