                               Psi4 1.4a3.dev225

  ==> Input File <==

--------------------------------------------------------------------------
#psi4
#
memory 32 gb

molecule  {
0 1
  O        0.0168770     0.1900940    -0.4022940
  O       -1.3063670    -1.6835610    -0.2394920
  O        1.1130200    -1.1412560     1.1163620
  C       -2.3394820     0.5235460    -0.2686790
  C        2.3972900     0.1604980    -0.4950420
  C       -1.1954385    -0.4697278    -0.2877580
  C        1.1580970    -0.3826160     0.1751030
  C       -3.6770470    -0.1720400    -0.4887310
  C       -2.2980570     1.2968550     1.0562380
  C        2.4742070     1.6801910    -0.2976680
  C        3.6385230    -0.5497820     0.0314390
  H       -2.1438530     1.2305020    -1.0848160
  H        2.2785110    -0.0397390    -1.5677300
  H       -4.4835100     0.5662920    -0.5086310
  H       -3.6863850    -0.7233940    -1.4319940
  H       -3.8734940    -0.8834740     0.3168940
  H       -3.1026030     2.0371270     1.0789400
  H       -2.4383350     0.6134670     1.8994540
  H       -1.3451120     1.8153510     1.1825900
  H        2.5409520     1.9209190     0.7680790
  H        1.5984060     2.1806800    -0.7148800
  H        3.3683910     2.0722630    -0.7902800
  H        3.7619980    -0.3608140     1.1006380
  H        4.5264120    -0.1854560    -0.4928670
  H        3.5668710    -1.6303120    -0.1113440
units angstrom
no_reorient  #important for SAPT in psi4, default
symmetry c1  #important for SAPT in psi4, default
}

set PROPERTIES_ORIGIN ["COM"]
properties('MP2/aug-cc-pvtz', properties = ['dipole'])
--------------------------------------------------------------------------

    Molecular point group: c1
  Charge       = 0
  Multiplicity = 1
  Basis Set: AUG-CC-PVTZ
    Blend: AUG-CC-PVTZ
  Basis Set: (AUG-CC-PVTZ AUX)
    Blend: AUG-CC-PVTZ-JKFIT

    Orbital Energies [Eh]
    ---------------------

    Doubly Occupied:

       1A    -20.628406     2A    -20.563355     3A    -20.557982
       4A    -11.397228     5A    -11.394041     6A    -11.260800
       7A    -11.257994     8A    -11.237254     9A    -11.233898
      10A    -11.224674    11A    -11.222998    12A     -1.487006
      13A     -1.398452    14A     -1.360341    15A     -1.108596
      16A     -1.094446    17A     -0.954278    18A     -0.946484
      19A     -0.938470    20A     -0.863225    21A     -0.794893
      22A     -0.736745    23A     -0.707825    24A     -0.701851
      25A     -0.676298    26A     -0.645882    27A     -0.629087
      28A     -0.616710    29A     -0.605980    30A     -0.576544
      31A     -0.567845    32A     -0.554773    33A     -0.551345
      34A     -0.535907    35A     -0.533044    36A     -0.526291
      37A     -0.503075    38A     -0.498958    39A     -0.495381
      40A     -0.491069    41A     -0.476031    42A     -0.468638
      43A     -0.432396

  @DF-RHF Final Energy:  -535.91143097353859

   => Energetics <=

    Nuclear Repulsion Energy =            648.6350472557689955
    One-Electron Energy =               -2018.1799703807946571
    Two-Electron Energy =                 833.6334921514870757
    Total Energy =                       -535.9114309735385859
  Basis Set: (AUG-CC-PVTZ AUX)
    Blend: AUG-CC-PVTZ-RI
    Molecular point group: c1

    Geometry (in Angstrom), charge = 0, multiplicity = 1:

       Center              X                  Y                   Z               Mass
    ------------   -----------------  -----------------  -----------------  -----------------
         O            0.019108687220     0.243342391041    -0.404387018633    15.994914619570
         O           -1.304135312780    -1.630312608959    -0.241585018633    15.994914619570
         O            1.115251687220    -1.088007608959     1.114268981367    15.994914619570
         C           -2.337250312780     0.576794391041    -0.270772018633    12.000000000000
         C            2.399521687220     0.213746391041    -0.497135018633    12.000000000000
         C           -1.193206812780    -0.416479408959    -0.289851018633    12.000000000000
         C            1.160328687220    -0.329367608959     0.173009981367    12.000000000000
         C           -3.674815312780    -0.118791608959    -0.490824018633    12.000000000000
         C           -2.295825312780     1.350103391041     1.054144981367    12.000000000000
         C            2.476438687220     1.733439391041    -0.299761018633    12.000000000000
         C            3.640754687220    -0.496533608959     0.029345981367    12.000000000000
         H           -2.141621312780     1.283750391041    -1.086909018633     1.007825032230
         H            2.280742687220     0.013509391041    -1.569823018633     1.007825032230
         H           -4.481278312780     0.619540391041    -0.510724018633     1.007825032230
         H           -3.684153312780    -0.670145608959    -1.434087018633     1.007825032230
         H           -3.871262312780    -0.830225608959     0.314800981367     1.007825032230
         H           -3.100371312780     2.090375391041     1.076846981367     1.007825032230
         H           -2.436103312780     0.666715391041     1.897360981367     1.007825032230
         H           -1.342880312780     1.868599391041     1.180496981367     1.007825032230
         H            2.543183687220     1.974167391041     0.765985981367     1.007825032230
         H            1.600637687220     2.233928391041    -0.716973018633     1.007825032230
         H            3.370622687220     2.125511391041    -0.792373018633     1.007825032230
         H            3.764229687220    -0.307565608959     1.098544981367     1.007825032230
         H            4.528643687220    -0.132207608959    -0.494960018633     1.007825032230
         H            3.569102687220    -1.577063608959    -0.113437018633     1.007825032230

  Basis Set: AUG-CC-PVTZ
    Blend: AUG-CC-PVTZ
  Basis Set: (AUG-CC-PVTZ AUX)
    Blend: AUG-CC-PVTZ-JKFIT
	 Reference Energy          =    -535.9114309735385859 [Eh]
	 Singles Energy            =      -0.0000000000000000 [Eh]
	 Same-Spin Energy          =      -0.5374617259827482 [Eh]
	 Opposite-Spin Energy      =      -1.7525669921514668 [Eh]
	 Correlation Energy        =      -2.2900287181342152 [Eh]
	 Total Energy              =    -538.2014596916727669 [Eh]

	 ================> DF-SCS-MP2 Energies <==================
	-----------------------------------------------------------
	 SCS Same-Spin Scale       =       0.3333333333333333 [-]
	 SCS Opposite-Spin Scale   =       1.2000000000000000 [-]
	 SCS Same-Spin Energy      =      -0.1791539086609161 [Eh]
	 SCS Opposite-Spin Energy  =      -2.1030803905817601 [Eh]
	 SCS Correlation Energy    =      -2.2822342992426763 [Eh]
	 SCS Total Energy          =    -538.1936652727812316 [Eh]
	-----------------------------------------------------------

  Dipole Moment: [D]
     X:     0.3999      Y:     3.4583      Z:    -1.4151     Total:     3.7579

*** Psi4 exiting successfully. Buy a developer a beer!
