                               Psi4 1.4a3.dev225

  ==> Input File <==

--------------------------------------------------------------------------
#psi4
#
memory 32 gb

molecule  {
0 1
  O        0.0168770     0.1900940    -0.4022940
  O       -1.3063670    -1.6835610    -0.2394920
  O        1.1130200    -1.1412560     1.1163620
  C       -2.3394820     0.5235460    -0.2686790
  C        2.3972900     0.1604980    -0.4950420
  C       -1.2168092    -0.5290692    -0.2841760
  C        1.1580970    -0.3826160     0.1751030
  C       -3.6770470    -0.1720400    -0.4887310
  C       -2.2980570     1.2968550     1.0562380
  C        2.4742070     1.6801910    -0.2976680
  C        3.6385230    -0.5497820     0.0314390
  H       -2.1438530     1.2305020    -1.0848160
  H        2.2785110    -0.0397390    -1.5677300
  H       -4.4835100     0.5662920    -0.5086310
  H       -3.6863850    -0.7233940    -1.4319940
  H       -3.8734940    -0.8834740     0.3168940
  H       -3.1026030     2.0371270     1.0789400
  H       -2.4383350     0.6134670     1.8994540
  H       -1.3451120     1.8153510     1.1825900
  H        2.5409520     1.9209190     0.7680790
  H        1.5984060     2.1806800    -0.7148800
  H        3.3683910     2.0722630    -0.7902800
  H        3.7619980    -0.3608140     1.1006380
  H        4.5264120    -0.1854560    -0.4928670
  H        3.5668710    -1.6303120    -0.1113440
units angstrom
no_reorient  #important for SAPT in psi4, default
symmetry c1  #important for SAPT in psi4, default
}

set PROPERTIES_ORIGIN ["COM"]
properties('MP2/aug-cc-pvtz', properties = ['dipole'])
--------------------------------------------------------------------------

    Molecular point group: c1
  Charge       = 0
  Multiplicity = 1
  Basis Set: AUG-CC-PVTZ
    Blend: AUG-CC-PVTZ
  Basis Set: (AUG-CC-PVTZ AUX)
    Blend: AUG-CC-PVTZ-JKFIT

    Orbital Energies [Eh]
    ---------------------

    Doubly Occupied:

       1A    -20.615959     2A    -20.570411     3A    -20.558198
       4A    -11.390554     5A    -11.390119     6A    -11.258673
       7A    -11.256653     8A    -11.234134     9A    -11.232728
      10A    -11.223591    11A    -11.221944    12A     -1.484193
      13A     -1.423300    14A     -1.362096    15A     -1.104043
      16A     -1.091347    17A     -0.948634    18A     -0.945258
      19A     -0.928983    20A     -0.858392    21A     -0.785418
      22A     -0.737401    23A     -0.706755    24A     -0.701071
      25A     -0.679227    26A     -0.646091    27A     -0.631736
      28A     -0.615346    29A     -0.608008    30A     -0.576519
      31A     -0.565968    32A     -0.553521    33A     -0.551483
      34A     -0.541573    35A     -0.536478    36A     -0.531480
      37A     -0.502187    38A     -0.496772    39A     -0.493462
      40A     -0.492040    41A     -0.480165    42A     -0.467186
      43A     -0.428413

  @DF-RHF Final Energy:  -535.91230979981265

   => Energetics <=

    Nuclear Repulsion Energy =            648.5961066124177705
    One-Electron Energy =               -2018.1618106120554330
    Two-Electron Energy =                 833.6533941998250157
    Total Energy =                       -535.9123097998126468
  Basis Set: (AUG-CC-PVTZ AUX)
    Blend: AUG-CC-PVTZ-RI
    Molecular point group: c1

    Geometry (in Angstrom), charge = 0, multiplicity = 1:

       Center              X                  Y                   Z               Mass
    ------------   -----------------  -----------------  -----------------  -----------------
         O            0.020730810277     0.247846644677    -0.404658907003    15.994914619570
         O           -1.302513189723    -1.625808355323    -0.241856907003    15.994914619570
         O            1.116873810277    -1.083503355323     1.113997092997    15.994914619570
         C           -2.335628189723     0.581298644677    -0.271043907003    12.000000000000
         C            2.401143810277     0.218250644677    -0.497406907003    12.000000000000
         C           -1.212955389723    -0.471316555323    -0.286540907003    12.000000000000
         C            1.161950810277    -0.324863355323     0.172738092997    12.000000000000
         C           -3.673193189723    -0.114287355323    -0.491095907003    12.000000000000
         C           -2.294203189723     1.354607644677     1.053873092997    12.000000000000
         C            2.478060810277     1.737943644677    -0.300032907003    12.000000000000
         C            3.642376810277    -0.492029355323     0.029074092997    12.000000000000
         H           -2.139999189723     1.288254644677    -1.087180907003     1.007825032230
         H            2.282364810277     0.018013644677    -1.570094907003     1.007825032230
         H           -4.479656189723     0.624044644677    -0.510995907003     1.007825032230
         H           -3.682531189723    -0.665641355323    -1.434358907003     1.007825032230
         H           -3.869640189723    -0.825721355323     0.314529092997     1.007825032230
         H           -3.098749189723     2.094879644677     1.076575092997     1.007825032230
         H           -2.434481189723     0.671219644677     1.897089092997     1.007825032230
         H           -1.341258189723     1.873103644677     1.180225092997     1.007825032230
         H            2.544805810277     1.978671644677     0.765714092997     1.007825032230
         H            1.602259810277     2.238432644677    -0.717244907003     1.007825032230
         H            3.372244810277     2.130015644677    -0.792644907003     1.007825032230
         H            3.765851810277    -0.303061355323     1.098273092997     1.007825032230
         H            4.530265810277    -0.127703355323    -0.495231907003     1.007825032230
         H            3.570724810277    -1.572559355323    -0.113708907003     1.007825032230

  Basis Set: AUG-CC-PVTZ
    Blend: AUG-CC-PVTZ
  Basis Set: (AUG-CC-PVTZ AUX)
    Blend: AUG-CC-PVTZ-JKFIT
	 Reference Energy          =    -535.9123097998126468 [Eh]
	 Singles Energy            =      -0.0000000000000000 [Eh]
	 Same-Spin Energy          =      -0.5363292047394984 [Eh]
	 Opposite-Spin Energy      =      -1.7502649332213138 [Eh]
	 Correlation Energy        =      -2.2865941379608121 [Eh]
	 Total Energy              =    -538.1989039377734798 [Eh]

	 ================> DF-SCS-MP2 Energies <==================
	-----------------------------------------------------------
	 SCS Same-Spin Scale       =       0.3333333333333333 [-]
	 SCS Opposite-Spin Scale   =       1.2000000000000000 [-]
	 SCS Same-Spin Energy      =      -0.1787764015798328 [Eh]
	 SCS Opposite-Spin Energy  =      -2.1003179198655766 [Eh]
	 SCS Correlation Energy    =      -2.2790943214454096 [Eh]
	 SCS Total Energy          =    -538.1914041212580742 [Eh]
	-----------------------------------------------------------

  Dipole Moment: [D]
     X:     0.0000      Y:     3.1107      Z:    -1.4539     Total:     3.4337

*** Psi4 exiting successfully. Buy a developer a beer!
