                               Psi4 1.3.2 release

  ==> Input File <==

--------------------------------------------------------------------------
#psi4
#
memory 32 gb

molecule  {
0 1
  O        0.0168640     0.1901590    -0.4020990
  O       -1.3063300    -1.6835180    -0.2393630
  O        1.1131790    -1.1413980     1.1162780
  C       -2.3394790     0.5235580    -0.2686750
  C        2.3972750     0.1605680    -0.4950760
  C       -1.2022936    -0.4665842    -0.3065220
  C        1.1581700    -0.3826440     0.1751130
  C       -3.6769720    -0.1720140    -0.4890940
  C       -2.2983330     1.2966310     1.0564140
  C        2.4741530     1.6802570    -0.2975580
  C        3.6385590    -0.5497050     0.0312540
  H       -2.1437190     1.2306780    -1.0846340
  H        2.2784230    -0.0395630    -1.5677780
  H       -4.4834260     0.5663220    -0.5092150
  H       -3.6860570    -0.7233770    -1.4323560
  H       -3.8736540    -0.8834450     0.3164790
  H       -3.1030040     2.0367670     1.0791630
  H       -2.4386000     0.6130600     1.8994820
  H       -1.3454850     1.8152510     1.1829620
  H        2.5408530     1.9208960     0.7682120
  H        1.5983600     2.1807600    -0.7147640
  H        3.3683510     2.0723810    -0.7901000
  H        3.7622080    -0.3606850     1.1004290
  H        4.5263690    -0.1854060    -0.4932010
  H        3.5668740    -1.6302420    -0.1114630
units angstrom
no_reorient  #important for SAPT in psi4, default
symmetry c1  #important for SAPT in psi4, default
}

set PROPERTIES_ORIGIN ["COM"]
properties('MP2/aug-cc-pvtz', properties = ['dipole'])
--------------------------------------------------------------------------

    Molecular point group: c1
  Charge       = 0
  Multiplicity = 1
  Basis Set: AUG-CC-PVTZ
    Blend: AUG-CC-PVTZ
  Basis Set: (AUG-CC-PVTZ AUX)
    Blend: AUG-CC-PVTZ-JKFIT

    Orbital Energies [Eh]
    ---------------------

    Doubly Occupied:

       1A    -20.627239     2A    -20.562810     3A    -20.558053
       4A    -11.396803     5A    -11.394757     6A    -11.260547
       7A    -11.258428     8A    -11.236999     9A    -11.234622
      10A    -11.224452    11A    -11.223419    12A     -1.485145
      13A     -1.397336    14A     -1.358476    15A     -1.108904
      16A     -1.095146    17A     -0.954149    18A     -0.946654
      19A     -0.938772    20A     -0.864248    21A     -0.795135
      22A     -0.735712    23A     -0.707041    24A     -0.701585
      25A     -0.675369    26A     -0.645371    27A     -0.629468
      28A     -0.616167    29A     -0.605805    30A     -0.576238
      31A     -0.567913    32A     -0.554535    33A     -0.551559
      34A     -0.535944    35A     -0.532798    36A     -0.525870
      37A     -0.502979    38A     -0.499177    39A     -0.495217
      40A     -0.490974    41A     -0.475099    42A     -0.468451
      43A     -0.433091

  @DF-RHF Final Energy:  -535.91074190980271

   => Energetics <=

    Nuclear Repulsion Energy =            648.5034448153528501
    One-Electron Energy =               -2017.9314579689457787
    Two-Electron Energy =                 833.5172712437902192
    Total Energy =                       -535.9107419098027094
  Basis Set: (AUG-CC-PVTZ AUX)
    Blend: AUG-CC-PVTZ-RI
    Molecular point group: c1

    Geometry (in Angstrom), charge = 0, multiplicity = 1:

       Center              X                  Y                   Z               Mass
    ------------   -----------------  -----------------  -----------------  -----------------
         O            0.019614314706     0.243172390431    -0.402765295606    15.994914619570
         O           -1.303579685294    -1.630504609569    -0.240029295606    15.994914619570
         O            1.115929314706    -1.088384609569     1.115611704394    15.994914619570
         C           -2.336728685294     0.576571390431    -0.269341295606    12.000000000000
         C            2.400025314706     0.213581390431    -0.495742295606    12.000000000000
         C           -1.199543285294    -0.413570809569    -0.307188295606    12.000000000000
         C            1.160920314706    -0.329630609569     0.174446704394    12.000000000000
         C           -3.674221685294    -0.119000609569    -0.489760295606    12.000000000000
         C           -2.295582685294     1.349644390431     1.055747704394    12.000000000000
         C            2.476903314706     1.733270390431    -0.298224295606    12.000000000000
         C            3.641309314706    -0.496691609569     0.030587704394    12.000000000000
         H           -2.140968685294     1.283691390431    -1.085300295606     1.007825032230
         H            2.281173314706     0.013450390431    -1.568444295606     1.007825032230
         H           -4.480675685294     0.619335390431    -0.509881295606     1.007825032230
         H           -3.683306685294    -0.670363609569    -1.433022295606     1.007825032230
         H           -3.870903685294    -0.830431609569     0.315812704394     1.007825032230
         H           -3.100253685294     2.089780390431     1.078496704394     1.007825032230
         H           -2.435849685294     0.666073390431     1.898815704394     1.007825032230
         H           -1.342734685294     1.868264390431     1.182295704394     1.007825032230
         H            2.543603314706     1.973909390431     0.767545704394     1.007825032230
         H            1.601110314706     2.233773390431    -0.715430295606     1.007825032230
         H            3.371101314706     2.125394390431    -0.790766295606     1.007825032230
         H            3.764958314706    -0.307671609569     1.099762704394     1.007825032230
         H            4.529119314706    -0.132392609569    -0.493867295606     1.007825032230
         H            3.569624314706    -1.577228609569    -0.112129295606     1.007825032230

  Basis Set: AUG-CC-PVTZ
    Blend: AUG-CC-PVTZ
  Basis Set: (AUG-CC-PVTZ AUX)
    Blend: AUG-CC-PVTZ-JKFIT
	 Reference Energy          =    -535.9107419098027094 [Eh]
	 Singles Energy            =      -0.0000000000000000 [Eh]
	 Same-Spin Energy          =      -0.5376046966282760 [Eh]
	 Opposite-Spin Energy      =      -1.7528378969901253 [Eh]
	 Correlation Energy        =      -2.2904425936184012 [Eh]
	 Total Energy              =    -538.2011845034211319 [Eh]

	 ================> DF-SCS-MP2 Energies <==================
	-----------------------------------------------------------
	 SCS Same-Spin Scale       =       0.3333333333333333 [-]
	 SCS Opposite-Spin Scale   =       1.2000000000000000 [-]
	 SCS Same-Spin Energy      =      -0.1792015655427587 [Eh]
	 SCS Opposite-Spin Energy  =      -2.1034054763881502 [Eh]
	 SCS Correlation Energy    =      -2.2826070419309090 [Eh]
	 SCS Total Energy          =    -538.1933489517335829 [Eh]
	-----------------------------------------------------------

  Dipole Moment: [D]
     X:     0.3542      Y:     3.4751      Z:    -1.4250     Total:     3.7726

*** Psi4 exiting successfully. Buy a developer a beer!
