                               Psi4 1.3.2 release

  ==> Input File <==

--------------------------------------------------------------------------
#psi4
#
memory 32 gb

molecule  {
0 1
  O        0.0168640     0.1901590    -0.4020990
  O       -1.3063300    -1.6835180    -0.2393630
  O        1.1131790    -1.1413980     1.1162780
  C       -2.3394790     0.5235580    -0.2686750
  C        2.3972750     0.1605680    -0.4950760
  C       -1.2836666    -0.5484013    -0.1629969
  C        1.1581700    -0.3826440     0.1751130
  C       -3.6769720    -0.1720140    -0.4890940
  C       -2.2983330     1.2966310     1.0564140
  C        2.4741530     1.6802570    -0.2975580
  C        3.6385590    -0.5497050     0.0312540
  H       -2.1437190     1.2306780    -1.0846340
  H        2.2784230    -0.0395630    -1.5677780
  H       -4.4834260     0.5663220    -0.5092150
  H       -3.6860570    -0.7233770    -1.4323560
  H       -3.8736540    -0.8834450     0.3164790
  H       -3.1030040     2.0367670     1.0791630
  H       -2.4386000     0.6130600     1.8994820
  H       -1.3454850     1.8152510     1.1829620
  H        2.5408530     1.9208960     0.7682120
  H        1.5983600     2.1807600    -0.7147640
  H        3.3683510     2.0723810    -0.7901000
  H        3.7622080    -0.3606850     1.1004290
  H        4.5263690    -0.1854060    -0.4932010
  H        3.5668740    -1.6302420    -0.1114630
units angstrom
no_reorient  #important for SAPT in psi4, default
symmetry c1  #important for SAPT in psi4, default
}

set PROPERTIES_ORIGIN ["COM"]
properties('MP2/aug-cc-pvtz', properties = ['dipole'])
--------------------------------------------------------------------------

    Molecular point group: c1
  Charge       = 0
  Multiplicity = 1
  Basis Set: AUG-CC-PVTZ
    Blend: AUG-CC-PVTZ
  Basis Set: (AUG-CC-PVTZ AUX)
    Blend: AUG-CC-PVTZ-JKFIT

    Orbital Energies [Eh]
    ---------------------

    Doubly Occupied:

       1A    -20.597978     2A    -20.583982     3A    -20.548347
       4A    -11.394067     5A    -11.380120     6A    -11.264822
       7A    -11.250118     8A    -11.235841     9A    -11.229236
      10A    -11.229185    11A    -11.217359    12A     -1.487772
      13A     -1.422349    14A     -1.343072    15A     -1.109933
      16A     -1.089946    17A     -0.952194    18A     -0.941025
      19A     -0.916541    20A     -0.859054    21A     -0.772758
      22A     -0.741765    23A     -0.708636    24A     -0.693903
      25A     -0.679858    26A     -0.643245    27A     -0.632785
      28A     -0.614446    29A     -0.607194    30A     -0.576193
      31A     -0.564452    32A     -0.557476    33A     -0.549441
      34A     -0.543904    35A     -0.542858    36A     -0.527255
      37A     -0.505180    38A     -0.498714    39A     -0.493114
      40A     -0.486717    41A     -0.470846    42A     -0.463081
      43A     -0.425019

  @DF-RHF Final Energy:  -535.89731687813651

   => Energetics <=

    Nuclear Repulsion Energy =            648.3785893359781767
    One-Electron Energy =               -2017.8482527041428511
    Two-Electron Energy =                 833.5723464900281670
    Total Energy =                       -535.8973168781365075
  Basis Set: (AUG-CC-PVTZ AUX)
    Blend: AUG-CC-PVTZ-RI
    Molecular point group: c1

    Geometry (in Angstrom), charge = 0, multiplicity = 1:

       Center              X                  Y                   Z               Mass
    ------------   -----------------  -----------------  -----------------  -----------------
         O            0.025790856397     0.249382641119    -0.413659434497    15.994914619570
         O           -1.297403143603    -1.624294358881    -0.250923434497    15.994914619570
         O            1.122105856397    -1.082174358881     1.104717565503    15.994914619570
         C           -2.330552143603     0.582781641119    -0.280235434497    12.000000000000
         C            2.406201856397     0.219791641119    -0.506636434497    12.000000000000
         C           -1.274739743603    -0.489177658881    -0.174557334497    12.000000000000
         C            1.167096856397    -0.323420358881     0.163552565503    12.000000000000
         C           -3.668045143603    -0.112790358881    -0.500654434497    12.000000000000
         C           -2.289406143603     1.355854641119     1.044853565503    12.000000000000
         C            2.483079856397     1.739480641119    -0.309118434497    12.000000000000
         C            3.647485856397    -0.490481358881     0.019693565503    12.000000000000
         H           -2.134792143603     1.289901641119    -1.096194434497     1.007825032230
         H            2.287349856397     0.019660641119    -1.579338434497     1.007825032230
         H           -4.474499143603     0.625545641119    -0.520775434497     1.007825032230
         H           -3.677130143603    -0.664153358881    -1.443916434497     1.007825032230
         H           -3.864727143603    -0.824221358881     0.304918565503     1.007825032230
         H           -3.094077143603     2.095990641119     1.067602565503     1.007825032230
         H           -2.429673143603     0.672283641119     1.887921565503     1.007825032230
         H           -1.336558143603     1.874474641119     1.171401565503     1.007825032230
         H            2.549779856397     1.980119641119     0.756651565503     1.007825032230
         H            1.607286856397     2.239983641119    -0.726324434497     1.007825032230
         H            3.377277856397     2.131604641119    -0.801660434497     1.007825032230
         H            3.771134856397    -0.301461358881     1.088868565503     1.007825032230
         H            4.535295856397    -0.126182358881    -0.504761434497     1.007825032230
         H            3.575800856397    -1.571018358881    -0.123023434497     1.007825032230

  Basis Set: AUG-CC-PVTZ
    Blend: AUG-CC-PVTZ
  Basis Set: (AUG-CC-PVTZ AUX)
    Blend: AUG-CC-PVTZ-JKFIT
	 Reference Energy          =    -535.8973168781365075 [Eh]
	 Singles Energy            =      -0.0000000000000000 [Eh]
	 Same-Spin Energy          =      -0.5373972271472653 [Eh]
	 Opposite-Spin Energy      =      -1.7524414352252178 [Eh]
	 Correlation Energy        =      -2.2898386623724831 [Eh]
	 Total Energy              =    -538.1871555405090248 [Eh]

	 ================> DF-SCS-MP2 Energies <==================
	-----------------------------------------------------------
	 SCS Same-Spin Scale       =       0.3333333333333333 [-]
	 SCS Opposite-Spin Scale   =       1.2000000000000000 [-]
	 SCS Same-Spin Energy      =      -0.1791324090490884 [Eh]
	 SCS Opposite-Spin Energy  =      -2.1029297222702614 [Eh]
	 SCS Correlation Energy    =      -2.2820621313193499 [Eh]
	 SCS Total Energy          =    -538.1793790094558290 [Eh]
	-----------------------------------------------------------

  Dipole Moment: [D]
     X:    -0.8708      Y:     2.9499      Z:    -1.3738     Total:     3.3686

*** Psi4 exiting successfully. Buy a developer a beer!
