                               Psi4 1.4a3.dev225

  ==> Input File <==

--------------------------------------------------------------------------
#psi4
#
memory 32 gb

molecule  {
0 1
  O        0.0168770     0.1900940    -0.4022940
  O       -1.3063670    -1.6835610    -0.2394920
  O        1.1130200    -1.1412560     1.1163620
  C       -2.3394820     0.5235460    -0.2686790
  C        2.3972900     0.1604980    -0.4950420
  C       -1.2304515    -0.4887842    -0.2844500
  C        1.1580970    -0.3826160     0.1751030
  C       -3.6770470    -0.1720400    -0.4887310
  C       -2.2980570     1.2968550     1.0562380
  C        2.4742070     1.6801910    -0.2976680
  C        3.6385230    -0.5497820     0.0314390
  H       -2.1438530     1.2305020    -1.0848160
  H        2.2785110    -0.0397390    -1.5677300
  H       -4.4835100     0.5662920    -0.5086310
  H       -3.6863850    -0.7233940    -1.4319940
  H       -3.8734940    -0.8834740     0.3168940
  H       -3.1026030     2.0371270     1.0789400
  H       -2.4383350     0.6134670     1.8994540
  H       -1.3451120     1.8153510     1.1825900
  H        2.5409520     1.9209190     0.7680790
  H        1.5984060     2.1806800    -0.7148800
  H        3.3683910     2.0722630    -0.7902800
  H        3.7619980    -0.3608140     1.1006380
  H        4.5264120    -0.1854560    -0.4928670
  H        3.5668710    -1.6303120    -0.1113440
units angstrom
no_reorient  #important for SAPT in psi4, default
symmetry c1  #important for SAPT in psi4, default
}

set PROPERTIES_ORIGIN ["COM"]
properties('MP2/aug-cc-pvtz', properties = ['dipole'])
--------------------------------------------------------------------------

    Molecular point group: c1
  Charge       = 0
  Multiplicity = 1
  Basis Set: AUG-CC-PVTZ
    Blend: AUG-CC-PVTZ
  Basis Set: (AUG-CC-PVTZ AUX)
    Blend: AUG-CC-PVTZ-JKFIT

    Orbital Energies [Eh]
    ---------------------

    Doubly Occupied:

       1A    -20.618610     2A    -20.565218     3A    -20.558365
       4A    -11.394497     5A    -11.391884     6A    -11.259819
       7A    -11.257515     8A    -11.235427     9A    -11.234690
      10A    -11.225181    11A    -11.222363    12A     -1.476870
      13A     -1.406144    14A     -1.358681    15A     -1.108584
      16A     -1.094965    17A     -0.950862    18A     -0.946526
      19A     -0.933400    20A     -0.863629    21A     -0.788472
      22A     -0.735079    23A     -0.704998    24A     -0.700967
      25A     -0.674347    26A     -0.644688    27A     -0.631145
      28A     -0.614742    29A     -0.607079    30A     -0.575416
      31A     -0.567004    32A     -0.554138    33A     -0.551435
      34A     -0.537941    35A     -0.531363    36A     -0.530312
      37A     -0.503418    38A     -0.498051    39A     -0.494547
      40A     -0.491135    41A     -0.477048    42A     -0.468309
      43A     -0.432552

  @DF-RHF Final Energy:  -535.91219587469845

   => Energetics <=

    Nuclear Repulsion Energy =            648.4103888226693471
    One-Electron Energy =               -2017.8103296368419706
    Two-Electron Energy =                 833.4877449394741689
    Total Energy =                       -535.9121958746984546
  Basis Set: (AUG-CC-PVTZ AUX)
    Blend: AUG-CC-PVTZ-RI
    Molecular point group: c1

    Geometry (in Angstrom), charge = 0, multiplicity = 1:

       Center              X                  Y                   Z               Mass
    ------------   -----------------  -----------------  -----------------  -----------------
         O            0.021766316338     0.244788849314    -0.404638109288    15.994914619570
         O           -1.301477683662    -1.628866150686    -0.241836109288    15.994914619570
         O            1.117909316338    -1.086561150686     1.114017890712    15.994914619570
         C           -2.334592683662     0.578240849314    -0.271023109288    12.000000000000
         C            2.402179316338     0.215192849314    -0.497386109288    12.000000000000
         C           -1.225562183662    -0.434089350686    -0.286794109288    12.000000000000
         C            1.162986316338    -0.327921150686     0.172758890712    12.000000000000
         C           -3.672157683662    -0.117345150686    -0.491075109288    12.000000000000
         C           -2.293167683662     1.351549849314     1.053893890712    12.000000000000
         C            2.479096316338     1.734885849314    -0.300012109288    12.000000000000
         C            3.643412316338    -0.495087150686     0.029094890712    12.000000000000
         H           -2.138963683662     1.285196849314    -1.087160109288     1.007825032230
         H            2.283400316338     0.014955849314    -1.570074109288     1.007825032230
         H           -4.478620683662     0.620986849314    -0.510975109288     1.007825032230
         H           -3.681495683662    -0.668699150686    -1.434338109288     1.007825032230
         H           -3.868604683662    -0.828779150686     0.314549890712     1.007825032230
         H           -3.097713683662     2.091821849314     1.076595890712     1.007825032230
         H           -2.433445683662     0.668161849314     1.897109890712     1.007825032230
         H           -1.340222683662     1.870045849314     1.180245890712     1.007825032230
         H            2.545841316338     1.975613849314     0.765734890712     1.007825032230
         H            1.603295316338     2.235374849314    -0.717224109288     1.007825032230
         H            3.373280316338     2.126957849314    -0.792624109288     1.007825032230
         H            3.766887316338    -0.306119150686     1.098293890712     1.007825032230
         H            4.531301316338    -0.130761150686    -0.495211109288     1.007825032230
         H            3.571760316338    -1.575617150686    -0.113688109288     1.007825032230

  Basis Set: AUG-CC-PVTZ
    Blend: AUG-CC-PVTZ
  Basis Set: (AUG-CC-PVTZ AUX)
    Blend: AUG-CC-PVTZ-JKFIT
	 Reference Energy          =    -535.9121958746984546 [Eh]
	 Singles Energy            =      -0.0000000000000000 [Eh]
	 Same-Spin Energy          =      -0.5373844309512612 [Eh]
	 Opposite-Spin Energy      =      -1.7523031528324458 [Eh]
	 Correlation Energy        =      -2.2896875837837070 [Eh]
	 Total Energy              =    -538.2018834584821434 [Eh]

	 ================> DF-SCS-MP2 Energies <==================
	-----------------------------------------------------------
	 SCS Same-Spin Scale       =       0.3333333333333333 [-]
	 SCS Opposite-Spin Scale   =       1.2000000000000000 [-]
	 SCS Same-Spin Energy      =      -0.1791281436504204 [Eh]
	 SCS Opposite-Spin Energy  =      -2.1027637833989350 [Eh]
	 SCS Correlation Energy    =      -2.2818919270493554 [Eh]
	 SCS Total Energy          =    -538.1940878017478553 [Eh]
	-----------------------------------------------------------

  Dipole Moment: [D]
     X:    -0.0158      Y:     3.3413      Z:    -1.4286     Total:     3.6340

*** Psi4 exiting successfully. Buy a developer a beer!
