                               Psi4 1.3.2 release

  ==> Input File <==

--------------------------------------------------------------------------
#psi4
#
memory 32 gb

molecule  {
0 1
  O        0.0168640     0.1901590    -0.4020990
  O       -1.3063300    -1.6835180    -0.2393630
  O        1.1131790    -1.1413980     1.1162780
  C       -2.3394790     0.5235580    -0.2686750
  C        2.3972750     0.1605680    -0.4950760
  C       -1.2340487    -0.4429710    -0.3113957
  C        1.1581700    -0.3826440     0.1751130
  C       -3.6769720    -0.1720140    -0.4890940
  C       -2.2983330     1.2966310     1.0564140
  C        2.4741530     1.6802570    -0.2975580
  C        3.6385590    -0.5497050     0.0312540
  H       -2.1437190     1.2306780    -1.0846340
  H        2.2784230    -0.0395630    -1.5677780
  H       -4.4834260     0.5663220    -0.5092150
  H       -3.6860570    -0.7233770    -1.4323560
  H       -3.8736540    -0.8834450     0.3164790
  H       -3.1030040     2.0367670     1.0791630
  H       -2.4386000     0.6130600     1.8994820
  H       -1.3454850     1.8152510     1.1829620
  H        2.5408530     1.9208960     0.7682120
  H        1.5983600     2.1807600    -0.7147640
  H        3.3683510     2.0723810    -0.7901000
  H        3.7622080    -0.3606850     1.1004290
  H        4.5263690    -0.1854060    -0.4932010
  H        3.5668740    -1.6302420    -0.1114630
units angstrom
no_reorient  #important for SAPT in psi4, default
symmetry c1  #important for SAPT in psi4, default
}

set PROPERTIES_ORIGIN ["COM"]
properties('MP2/aug-cc-pvtz', properties = ['dipole'])
--------------------------------------------------------------------------

    Molecular point group: c1
  Charge       = 0
  Multiplicity = 1
  Basis Set: AUG-CC-PVTZ
    Blend: AUG-CC-PVTZ
  Basis Set: (AUG-CC-PVTZ AUX)
    Blend: AUG-CC-PVTZ-JKFIT

    Orbital Energies [Eh]
    ---------------------

    Doubly Occupied:

       1A    -20.623491     2A    -20.560052     3A    -20.557650
       4A    -11.398540     5A    -11.394844     6A    -11.260157
       7A    -11.259349     8A    -11.237937     9A    -11.235947
      10A    -11.226079    11A    -11.223445    12A     -1.477161
      13A     -1.390945    14A     -1.347657    15A     -1.113830
      16A     -1.097767    17A     -0.954126    18A     -0.948050
      19A     -0.939202    20A     -0.869146    21A     -0.794464
      22A     -0.733321    23A     -0.704261    24A     -0.701929
      25A     -0.670854    26A     -0.643510    27A     -0.630859
      28A     -0.614793    29A     -0.604493    30A     -0.574724
      31A     -0.568394    32A     -0.554592    33A     -0.552213
      34A     -0.536909    35A     -0.531569    36A     -0.523780
      37A     -0.503831    38A     -0.499708    39A     -0.495419
      40A     -0.489937    41A     -0.469613    42A     -0.467522
      43A     -0.435418

  @DF-RHF Final Energy:  -535.90474673387939

   => Energetics <=

    Nuclear Repulsion Energy =            648.2256966042073145
    One-Electron Energy =               -2017.4259089269801279
    Two-Electron Energy =                 833.2954655888934212
    Total Energy =                       -535.9047467338793922
  Basis Set: (AUG-CC-PVTZ AUX)
    Blend: AUG-CC-PVTZ-RI
    Molecular point group: c1

    Geometry (in Angstrom), charge = 0, multiplicity = 1:

       Center              X                  Y                   Z               Mass
    ------------   -----------------  -----------------  -----------------  -----------------
         O            0.022024655962     0.241380052502    -0.402395361952    15.994914619570
         O           -1.301169344038    -1.632296947498    -0.239659361952    15.994914619570
         O            1.118339655962    -1.090176947498     1.115981638048    15.994914619570
         C           -2.334318344038     0.574779052502    -0.268971361952    12.000000000000
         C            2.402435655962     0.211789052502    -0.495372361952    12.000000000000
         C           -1.228888044038    -0.391749947498    -0.311692061952    12.000000000000
         C            1.163330655962    -0.331422947498     0.174816638048    12.000000000000
         C           -3.671811344038    -0.120792947498    -0.489390361952    12.000000000000
         C           -2.293172344038     1.347852052502     1.056117638048    12.000000000000
         C            2.479313655962     1.731478052502    -0.297854361952    12.000000000000
         C            3.643719655962    -0.498483947498     0.030957638048    12.000000000000
         H           -2.138558344038     1.281899052502    -1.084930361952     1.007825032230
         H            2.283583655962     0.011658052502    -1.568074361952     1.007825032230
         H           -4.478265344038     0.617543052502    -0.509511361952     1.007825032230
         H           -3.680896344038    -0.672155947498    -1.432652361952     1.007825032230
         H           -3.868493344038    -0.832223947498     0.316182638048     1.007825032230
         H           -3.097843344038     2.087988052502     1.078866638048     1.007825032230
         H           -2.433439344038     0.664281052502     1.899185638048     1.007825032230
         H           -1.340324344038     1.866472052502     1.182665638048     1.007825032230
         H            2.546013655962     1.972117052502     0.767915638048     1.007825032230
         H            1.603520655962     2.231981052502    -0.715060361952     1.007825032230
         H            3.373511655962     2.123602052502    -0.790396361952     1.007825032230
         H            3.767368655962    -0.309463947498     1.100132638048     1.007825032230
         H            4.531529655962    -0.134184947498    -0.493497361952     1.007825032230
         H            3.572034655962    -1.579020947498    -0.111759361952     1.007825032230

  Basis Set: AUG-CC-PVTZ
    Blend: AUG-CC-PVTZ
  Basis Set: (AUG-CC-PVTZ AUX)
    Blend: AUG-CC-PVTZ-JKFIT
	 Reference Energy          =    -535.9047467338793922 [Eh]
	 Singles Energy            =      -0.0000000000000000 [Eh]
	 Same-Spin Energy          =      -0.5386232953916782 [Eh]
	 Opposite-Spin Energy      =      -1.7547220330730755 [Eh]
	 Correlation Energy        =      -2.2933453284647536 [Eh]
	 Total Energy              =    -538.1980920623441307 [Eh]

	 ================> DF-SCS-MP2 Energies <==================
	-----------------------------------------------------------
	 SCS Same-Spin Scale       =       0.3333333333333333 [-]
	 SCS Opposite-Spin Scale   =       1.2000000000000000 [-]
	 SCS Same-Spin Energy      =      -0.1795410984638927 [Eh]
	 SCS Opposite-Spin Energy  =      -2.1056664396876905 [Eh]
	 SCS Correlation Energy    =      -2.2852075381515831 [Eh]
	 SCS Total Energy          =    -538.1899542720309455 [Eh]
	-----------------------------------------------------------

  Dipole Moment: [D]
     X:     0.1011      Y:     3.5902      Z:    -1.4148     Total:     3.8602

*** Psi4 exiting successfully. Buy a developer a beer!
