                               Psi4 1.3.2 release

  ==> Input File <==

--------------------------------------------------------------------------
#psi4
#
memory 32 gb

molecule  {
0 1
  O        0.0168640     0.1901590    -0.4020990
  O       -1.3063300    -1.6835180    -0.2393630
  O        1.1131790    -1.1413980     1.1162780
  C       -2.3394790     0.5235580    -0.2686750
  C        2.3972750     0.1605680    -0.4950760
  C       -1.1406002    -0.5828502    -0.2107964
  C        1.1581700    -0.3826440     0.1751130
  C       -3.6769720    -0.1720140    -0.4890940
  C       -2.2983330     1.2966310     1.0564140
  C        2.4741530     1.6802570    -0.2975580
  C        3.6385590    -0.5497050     0.0312540
  H       -2.1437190     1.2306780    -1.0846340
  H        2.2784230    -0.0395630    -1.5677780
  H       -4.4834260     0.5663220    -0.5092150
  H       -3.6860570    -0.7233770    -1.4323560
  H       -3.8736540    -0.8834450     0.3164790
  H       -3.1030040     2.0367670     1.0791630
  H       -2.4386000     0.6130600     1.8994820
  H       -1.3454850     1.8152510     1.1829620
  H        2.5408530     1.9208960     0.7682120
  H        1.5983600     2.1807600    -0.7147640
  H        3.3683510     2.0723810    -0.7901000
  H        3.7622080    -0.3606850     1.1004290
  H        4.5263690    -0.1854060    -0.4932010
  H        3.5668740    -1.6302420    -0.1114630
units angstrom
no_reorient  #important for SAPT in psi4, default
symmetry c1  #important for SAPT in psi4, default
}

set PROPERTIES_ORIGIN ["COM"]
properties('MP2/aug-cc-pvtz', properties = ['dipole'])
--------------------------------------------------------------------------

    Molecular point group: c1
  Charge       = 0
  Multiplicity = 1
  Basis Set: AUG-CC-PVTZ
    Blend: AUG-CC-PVTZ
  Basis Set: (AUG-CC-PVTZ AUX)
    Blend: AUG-CC-PVTZ-JKFIT

    Orbital Energies [Eh]
    ---------------------

    Doubly Occupied:

       1A    -20.625475     2A    -20.573001     3A    -20.564639
       4A    -11.395288     5A    -11.383495     6A    -11.259324
       7A    -11.251366     8A    -11.236568     9A    -11.224653
      10A    -11.224270    11A    -11.217830    12A     -1.508187
      13A     -1.446013    14A     -1.375112    15A     -1.103959
      16A     -1.077370    17A     -0.949801    18A     -0.940417
      19A     -0.927402    20A     -0.847080    21A     -0.784172
      22A     -0.746493    23A     -0.713215    24A     -0.707297
      25A     -0.689345    26A     -0.651575    27A     -0.632526
      28A     -0.619545    29A     -0.606773    30A     -0.581919
      31A     -0.565038    32A     -0.555267    33A     -0.551772
      34A     -0.549888    35A     -0.537785    36A     -0.534976
      37A     -0.503534    38A     -0.496329    39A     -0.491695
      40A     -0.488494    41A     -0.486256    42A     -0.465937
      43A     -0.412015

  @DF-RHF Final Energy:  -535.89380979334703

   => Energetics <=

    Nuclear Repulsion Energy =            649.4868414474287874
    One-Electron Energy =               -2019.7551109006737988
    Two-Electron Energy =                 834.3744596598979797
    Total Energy =                       -535.8938097933470317
  Basis Set: (AUG-CC-PVTZ AUX)
    Blend: AUG-CC-PVTZ-RI
    Molecular point group: c1

    Geometry (in Angstrom), charge = 0, multiplicity = 1:

       Center              X                  Y                   Z               Mass
    ------------   -----------------  -----------------  -----------------  -----------------
         O            0.014931534703     0.251997452753    -0.410031258018    15.994914619570
         O           -1.308262465297    -1.621679547247    -0.247295258018    15.994914619570
         O            1.111246534703    -1.079559547247     1.108345741982    15.994914619570
         C           -2.341411465297     0.585396452753    -0.276607258018    12.000000000000
         C            2.395342534703     0.222406452753    -0.503008258018    12.000000000000
         C           -1.142532665297    -0.521011747247    -0.218728658018    12.000000000000
         C            1.156237534703    -0.320805547247     0.167180741982    12.000000000000
         C           -3.678904465297    -0.110175547247    -0.497026258018    12.000000000000
         C           -2.300265465297     1.358469452753     1.048481741982    12.000000000000
         C            2.472220534703     1.742095452753    -0.305490258018    12.000000000000
         C            3.636626534703    -0.487866547247     0.023321741982    12.000000000000
         H           -2.145651465297     1.292516452753    -1.092566258018     1.007825032230
         H            2.276490534703     0.022275452753    -1.575710258018     1.007825032230
         H           -4.485358465297     0.628160452753    -0.517147258018     1.007825032230
         H           -3.687989465297    -0.661538547247    -1.440288258018     1.007825032230
         H           -3.875586465297    -0.821606547247     0.308546741982     1.007825032230
         H           -3.104936465297     2.098605452753     1.071230741982     1.007825032230
         H           -2.440532465297     0.674898452753     1.891549741982     1.007825032230
         H           -1.347417465297     1.877089452753     1.175029741982     1.007825032230
         H            2.538920534703     1.982734452753     0.760279741982     1.007825032230
         H            1.596427534703     2.242598452753    -0.722696258018     1.007825032230
         H            3.366418534703     2.134219452753    -0.798032258018     1.007825032230
         H            3.760275534703    -0.298846547247     1.092496741982     1.007825032230
         H            4.524436534703    -0.123567547247    -0.501133258018     1.007825032230
         H            3.564941534703    -1.568403547247    -0.119395258018     1.007825032230

  Basis Set: AUG-CC-PVTZ
    Blend: AUG-CC-PVTZ
  Basis Set: (AUG-CC-PVTZ AUX)
    Blend: AUG-CC-PVTZ-JKFIT
	 Reference Energy          =    -535.8938097933470317 [Eh]
	 Singles Energy            =      -0.0000000000000000 [Eh]
	 Same-Spin Energy          =      -0.5353404732238984 [Eh]
	 Opposite-Spin Energy      =      -1.7486063960974276 [Eh]
	 Correlation Energy        =      -2.2839468693213263 [Eh]
	 Total Energy              =    -538.1777566626683438 [Eh]

	 ================> DF-SCS-MP2 Energies <==================
	-----------------------------------------------------------
	 SCS Same-Spin Scale       =       0.3333333333333333 [-]
	 SCS Opposite-Spin Scale   =       1.2000000000000000 [-]
	 SCS Same-Spin Energy      =      -0.1784468244079661 [Eh]
	 SCS Opposite-Spin Energy  =      -2.0983276753169129 [Eh]
	 SCS Correlation Energy    =      -2.2767744997248789 [Eh]
	 SCS Total Energy          =    -538.1705842930718973 [Eh]
	-----------------------------------------------------------

  Dipole Moment: [D]
     X:     0.5888      Y:     2.7721      Z:    -1.4262     Total:     3.1726

*** Psi4 exiting successfully. Buy a developer a beer!
