                               Psi4 1.3.2 release

  ==> Input File <==

--------------------------------------------------------------------------
#psi4
#
memory 32 gb

molecule  {
0 1
  O        0.0168640     0.1901590    -0.4020990
  O       -1.3063300    -1.6835180    -0.2393630
  O        1.1131790    -1.1413980     1.1162780
  C       -2.3394790     0.5235580    -0.2686750
  C        2.3972750     0.1605680    -0.4950760
  C       -1.0378426    -0.3839197    -0.3025298
  C        1.1581700    -0.3826440     0.1751130
  C       -3.6769720    -0.1720140    -0.4890940
  C       -2.2983330     1.2966310     1.0564140
  C        2.4741530     1.6802570    -0.2975580
  C        3.6385590    -0.5497050     0.0312540
  H       -2.1437190     1.2306780    -1.0846340
  H        2.2784230    -0.0395630    -1.5677780
  H       -4.4834260     0.5663220    -0.5092150
  H       -3.6860570    -0.7233770    -1.4323560
  H       -3.8736540    -0.8834450     0.3164790
  H       -3.1030040     2.0367670     1.0791630
  H       -2.4386000     0.6130600     1.8994820
  H       -1.3454850     1.8152510     1.1829620
  H        2.5408530     1.9208960     0.7682120
  H        1.5983600     2.1807600    -0.7147640
  H        3.3683510     2.0723810    -0.7901000
  H        3.7622080    -0.3606850     1.1004290
  H        4.5263690    -0.1854060    -0.4932010
  H        3.5668740    -1.6302420    -0.1114630
units angstrom
no_reorient  #important for SAPT in psi4, default
symmetry c1  #important for SAPT in psi4, default
}

set PROPERTIES_ORIGIN ["COM"]
properties('MP2/aug-cc-pvtz', properties = ['dipole'])
--------------------------------------------------------------------------

    Molecular point group: c1
  Charge       = 0
  Multiplicity = 1
  Basis Set: AUG-CC-PVTZ
    Blend: AUG-CC-PVTZ
  Basis Set: (AUG-CC-PVTZ AUX)
    Blend: AUG-CC-PVTZ-JKFIT

    Orbital Energies [Eh]
    ---------------------

    Doubly Occupied:

       1A    -20.668547     2A    -20.586720     3A    -20.522790
       4A    -11.421001     5A    -11.391887     6A    -11.275360
       7A    -11.252454     8A    -11.248702     9A    -11.234876
      10A    -11.227745    11A    -11.214274    12A     -1.573031
      13A     -1.417662    14A     -1.293838    15A     -1.124303
      16A     -1.081072    17A     -0.995804    18A     -0.957732
      19A     -0.936394    20A     -0.864192    21A     -0.817773
      22A     -0.768677    23A     -0.730246    24A     -0.719624
      25A     -0.676743    26A     -0.659159    27A     -0.632870
      28A     -0.617222    29A     -0.595099    30A     -0.579772
      31A     -0.567679    32A     -0.562392    33A     -0.548800
      34A     -0.542095    35A     -0.536685    36A     -0.520146
      37A     -0.504967    38A     -0.503639    39A     -0.489167
      40A     -0.484955    41A     -0.476994    42A     -0.436594
      43A     -0.406458

  @DF-RHF Final Energy:  -535.85823392946850

   => Energetics <=

    Nuclear Repulsion Energy =            650.0713676664006471
    One-Electron Energy =               -2020.5269260398904407
    Two-Electron Energy =                 834.5973244440212966
    Total Energy =                       -535.8582339294684971
  Basis Set: (AUG-CC-PVTZ AUX)
    Blend: AUG-CC-PVTZ-RI
    Molecular point group: c1

    Geometry (in Angstrom), charge = 0, multiplicity = 1:

       Center              X                  Y                   Z               Mass
    ------------   -----------------  -----------------  -----------------  -----------------
         O            0.007131814887     0.236897818636    -0.403068319825    15.994914619570
         O           -1.316062185113    -1.636779181364    -0.240332319825    15.994914619570
         O            1.103446814887    -1.094659181364     1.115308680175    15.994914619570
         C           -2.349211185113     0.570296818636    -0.269644319825    12.000000000000
         C            2.387542814887     0.207306818636    -0.496045319825    12.000000000000
         C           -1.047574785113    -0.337180881364    -0.303499119825    12.000000000000
         C            1.148437814887    -0.335905181364     0.174143680175    12.000000000000
         C           -3.686704185113    -0.125275181364    -0.490063319825    12.000000000000
         C           -2.308065185113     1.343369818636     1.055444680175    12.000000000000
         C            2.464420814887     1.726995818636    -0.298527319825    12.000000000000
         C            3.628826814887    -0.502966181364     0.030284680175    12.000000000000
         H           -2.153451185113     1.277416818636    -1.085603319825     1.007825032230
         H            2.268690814887     0.007175818636    -1.568747319825     1.007825032230
         H           -4.493158185113     0.613060818636    -0.510184319825     1.007825032230
         H           -3.695789185113    -0.676638181364    -1.433325319825     1.007825032230
         H           -3.883386185113    -0.836706181364     0.315509680175     1.007825032230
         H           -3.112736185113     2.083505818636     1.078193680175     1.007825032230
         H           -2.448332185113     0.659798818636     1.898512680175     1.007825032230
         H           -1.355217185113     1.861989818636     1.181992680175     1.007825032230
         H            2.531120814887     1.967634818636     0.767242680175     1.007825032230
         H            1.588627814887     2.227498818636    -0.715733319825     1.007825032230
         H            3.358618814887     2.119119818636    -0.791069319825     1.007825032230
         H            3.752475814887    -0.313946181364     1.099459680175     1.007825032230
         H            4.516636814887    -0.138667181364    -0.494170319825     1.007825032230
         H            3.557141814887    -1.583503181364    -0.112432319825     1.007825032230

  Basis Set: AUG-CC-PVTZ
    Blend: AUG-CC-PVTZ
  Basis Set: (AUG-CC-PVTZ AUX)
    Blend: AUG-CC-PVTZ-JKFIT
	 Reference Energy          =    -535.8582339294684971 [Eh]
	 Singles Energy            =      -0.0000000000000000 [Eh]
	 Same-Spin Energy          =      -0.5392129591168320 [Eh]
	 Opposite-Spin Energy      =      -1.7559675781876964 [Eh]
	 Correlation Energy        =      -2.2951805373045282 [Eh]
	 Total Energy              =    -538.1534144667730288 [Eh]

	 ================> DF-SCS-MP2 Energies <==================
	-----------------------------------------------------------
	 SCS Same-Spin Scale       =       0.3333333333333333 [-]
	 SCS Opposite-Spin Scale   =       1.2000000000000000 [-]
	 SCS Same-Spin Energy      =      -0.1797376530389440 [Eh]
	 SCS Opposite-Spin Energy  =      -2.1071610938252356 [Eh]
	 SCS Correlation Energy    =      -2.2868987468641797 [Eh]
	 SCS Total Energy          =    -538.1451326763326506 [Eh]
	-----------------------------------------------------------

  Dipole Moment: [D]
     X:     2.1715      Y:     3.9929      Z:    -1.3469     Total:     4.7406

*** Psi4 exiting successfully. Buy a developer a beer!
