                               Psi4 1.3.2 release

  ==> Input File <==

--------------------------------------------------------------------------
#psi4
#
memory 32 gb

molecule  {
0 1
  O       -0.0072975     0.2328306    -0.4016484
  O       -1.3063300    -1.6835180    -0.2393630
  O        1.1131790    -1.1413980     1.1162780
  C       -2.3394790     0.5235580    -0.2686750
  C        2.3972750     0.1605680    -0.4950760
  C       -1.2129060    -0.4792070    -0.2860030
  C        1.1581700    -0.3826440     0.1751130
  C       -3.6769720    -0.1720140    -0.4890940
  C       -2.2983330     1.2966310     1.0564140
  C        2.4741530     1.6802570    -0.2975580
  C        3.6385590    -0.5497050     0.0312540
  H       -2.1437190     1.2306780    -1.0846340
  H        2.2784230    -0.0395630    -1.5677780
  H       -4.4834260     0.5663220    -0.5092150
  H       -3.6860570    -0.7233770    -1.4323560
  H       -3.8736540    -0.8834450     0.3164790
  H       -3.1030040     2.0367670     1.0791630
  H       -2.4386000     0.6130600     1.8994820
  H       -1.3454850     1.8152510     1.1829620
  H        2.5408530     1.9208960     0.7682120
  H        1.5983600     2.1807600    -0.7147640
  H        3.3683510     2.0723810    -0.7901000
  H        3.7622080    -0.3606850     1.1004290
  H        4.5263690    -0.1854060    -0.4932010
  H        3.5668740    -1.6302420    -0.1114630
units angstrom
no_reorient  #important for SAPT in psi4, default
symmetry c1  #important for SAPT in psi4, default
}

set PROPERTIES_ORIGIN ["COM"]
properties('MP2/aug-cc-pvtz', properties = ['dipole'])
--------------------------------------------------------------------------

    Molecular point group: c1
  Charge       = 0
  Multiplicity = 1
  Basis Set: AUG-CC-PVTZ
    Blend: AUG-CC-PVTZ
  Basis Set: (AUG-CC-PVTZ AUX)
    Blend: AUG-CC-PVTZ-JKFIT

    Orbital Energies [Eh]
    ---------------------

    Doubly Occupied:

       1A    -20.623472     2A    -20.568106     3A    -20.560998
       4A    -11.399580     5A    -11.391999     6A    -11.261605
       7A    -11.255238     8A    -11.237001     9A    -11.232563
      10A    -11.225275    11A    -11.221798    12A     -1.473689
      13A     -1.403492    14A     -1.360338    15A     -1.107926
      16A     -1.093887    17A     -0.951106    18A     -0.945366
      19A     -0.931523    20A     -0.863142    21A     -0.785101
      22A     -0.736833    23A     -0.704276    24A     -0.701146
      25A     -0.673346    26A     -0.645970    27A     -0.629125
      28A     -0.615972    29A     -0.605757    30A     -0.577053
      31A     -0.565879    32A     -0.554662    33A     -0.550749
      34A     -0.537230    35A     -0.533811    36A     -0.528841
      37A     -0.502688    38A     -0.497728    39A     -0.495005
      40A     -0.491021    41A     -0.479279    42A     -0.468470
      43A     -0.431937

  @DF-RHF Final Energy:  -535.90790113765706

   => Energetics <=

    Nuclear Repulsion Energy =            647.8467897250687884
    One-Electron Energy =               -2016.6694193309742786
    Two-Electron Energy =                 832.9147284682485406
    Total Energy =                       -535.9079011376570634
  Basis Set: (AUG-CC-PVTZ AUX)
    Blend: AUG-CC-PVTZ-RI
    Molecular point group: c1

    Geometry (in Angstrom), charge = 0, multiplicity = 1:

       Center              X                  Y                   Z               Mass
    ------------   -----------------  -----------------  -----------------  -----------------
         O           -0.001297163326     0.282484887555    -0.403917759839    15.994914619570
         O           -1.300329663326    -1.633863712445    -0.241632359839    15.994914619570
         O            1.119179336674    -1.091743712445     1.114008640161    15.994914619570
         C           -2.333478663326     0.573212287555    -0.270944359839    12.000000000000
         C            2.403275336674     0.210222287555    -0.497345359839    12.000000000000
         C           -1.206905663326    -0.429552712445    -0.288272359839    12.000000000000
         C            1.164170336674    -0.332989712445     0.172843640161    12.000000000000
         C           -3.670971663326    -0.122359712445    -0.491363359839    12.000000000000
         C           -2.292332663326     1.346285287555     1.054144640161    12.000000000000
         C            2.480153336674     1.729911287555    -0.299827359839    12.000000000000
         C            3.644559336674    -0.500050712445     0.028984640161    12.000000000000
         H           -2.137718663326     1.280332287555    -1.086903359839     1.007825032230
         H            2.284423336674     0.010091287555    -1.570047359839     1.007825032230
         H           -4.477425663326     0.615976287555    -0.511484359839     1.007825032230
         H           -3.680056663326    -0.673722712445    -1.434625359839     1.007825032230
         H           -3.867653663326    -0.833790712445     0.314209640161     1.007825032230
         H           -3.097003663326     2.086421287555     1.076893640161     1.007825032230
         H           -2.432599663326     0.662714287555     1.897212640161     1.007825032230
         H           -1.339484663326     1.864905287555     1.180692640161     1.007825032230
         H            2.546853336674     1.970550287555     0.765942640161     1.007825032230
         H            1.604360336674     2.230414287555    -0.717033359839     1.007825032230
         H            3.374351336674     2.122035287555    -0.792369359839     1.007825032230
         H            3.768208336674    -0.311030712445     1.098159640161     1.007825032230
         H            4.532369336674    -0.135751712445    -0.495470359839     1.007825032230
         H            3.572874336674    -1.580587712445    -0.113732359839     1.007825032230

  Basis Set: AUG-CC-PVTZ
    Blend: AUG-CC-PVTZ
  Basis Set: (AUG-CC-PVTZ AUX)
    Blend: AUG-CC-PVTZ-JKFIT
	 Reference Energy          =    -535.9079011376570634 [Eh]
	 Singles Energy            =      -0.0000000000000000 [Eh]
	 Same-Spin Energy          =      -0.5381582615906402 [Eh]
	 Opposite-Spin Energy      =      -1.7543149186316542 [Eh]
	 Correlation Energy        =      -2.2924731802222942 [Eh]
	 Total Energy              =    -538.2003743178793229 [Eh]

	 ================> DF-SCS-MP2 Energies <==================
	-----------------------------------------------------------
	 SCS Same-Spin Scale       =       0.3333333333333333 [-]
	 SCS Opposite-Spin Scale   =       1.2000000000000000 [-]
	 SCS Same-Spin Energy      =      -0.1793860871968800 [Eh]
	 SCS Opposite-Spin Energy  =      -2.1051779023579851 [Eh]
	 SCS Correlation Energy    =      -2.2845639895548651 [Eh]
	 SCS Total Energy          =    -538.1924651272119036 [Eh]
	-----------------------------------------------------------

  Dipole Moment: [D]
     X:     0.4939      Y:     3.3009      Z:    -1.3560     Total:     3.6026

*** Psi4 exiting successfully. Buy a developer a beer!
