                               Psi4 1.4a3.dev225

  ==> Input File <==

--------------------------------------------------------------------------
#psi4
#
memory 32 gb

molecule  {
0 1
  O        0.0168770     0.1900940    -0.4022940
  O       -1.3063670    -1.6835610    -0.2394920
  O        1.1130200    -1.1412560     1.1163620
  C       -2.3394820     0.5235460    -0.2686790
  C        2.3972900     0.1604980    -0.4950420
  C       -1.1980073    -0.4925530    -0.2863351
  C        1.1580970    -0.3826160     0.1751030
  C       -3.6770470    -0.1720400    -0.4887310
  C       -2.2980570     1.2968550     1.0562380
  C        2.4742070     1.6801910    -0.2976680
  C        3.6385230    -0.5497820     0.0314390
  H       -2.1438530     1.2305020    -1.0848160
  H        2.2785110    -0.0397390    -1.5677300
  H       -4.4835100     0.5662920    -0.5086310
  H       -3.6863850    -0.7233940    -1.4319940
  H       -3.8734940    -0.8834740     0.3168940
  H       -3.1026030     2.0371270     1.0789400
  H       -2.4383350     0.6134670     1.8994540
  H       -1.3451120     1.8153510     1.1825900
  H        2.5409520     1.9209190     0.7680790
  H        1.5984060     2.1806800    -0.7148800
  H        3.3683910     2.0722630    -0.7902800
  H        3.7619980    -0.3608140     1.1006380
  H        4.5264120    -0.1854560    -0.4928670
  H        3.5668710    -1.6303120    -0.1113440
units angstrom
no_reorient  #important for SAPT in psi4, default
symmetry c1  #important for SAPT in psi4, default
}

set PROPERTIES_ORIGIN ["COM"]
properties('MP2/aug-cc-pvtz', properties = ['dipole'])
--------------------------------------------------------------------------

    Molecular point group: c1
  Charge       = 0
  Multiplicity = 1
  Basis Set: AUG-CC-PVTZ
    Blend: AUG-CC-PVTZ
  Basis Set: (AUG-CC-PVTZ AUX)
    Blend: AUG-CC-PVTZ-JKFIT

    Orbital Energies [Eh]
    ---------------------

    Doubly Occupied:

       1A    -20.625014     2A    -20.562151     3A    -20.562079
       4A    -11.395356     5A    -11.392346     6A    -11.259641
       7A    -11.257833     8A    -11.236402     9A    -11.233041
      10A    -11.223943    11A    -11.222791    12A     -1.485135
      13A     -1.406650    14A     -1.364874    15A     -1.106827
      16A     -1.092713    17A     -0.952057    18A     -0.945816
      19A     -0.935752    20A     -0.860957    21A     -0.791728
      22A     -0.736871    23A     -0.707136    24A     -0.702008
      25A     -0.677372    26A     -0.646184    27A     -0.629932
      28A     -0.616231    29A     -0.607070    30A     -0.576624
      31A     -0.567159    32A     -0.554103    33A     -0.551395
      34A     -0.536736    35A     -0.533273    36A     -0.529708
      37A     -0.502923    38A     -0.498072    39A     -0.494595
      40A     -0.491235    41A     -0.479625    42A     -0.468512
      43A     -0.430941

  @DF-RHF Final Energy:  -535.91338741007735

   => Energetics <=

    Nuclear Repulsion Energy =            648.6499278088429037
    One-Electron Energy =               -2018.2250121947793104
    Two-Electron Energy =                 833.6616969758590585
    Total Energy =                       -535.9133874100773482
  Basis Set: (AUG-CC-PVTZ AUX)
    Blend: AUG-CC-PVTZ-RI
    Molecular point group: c1

    Geometry (in Angstrom), charge = 0, multiplicity = 1:

       Center              X                  Y                   Z               Mass
    ------------   -----------------  -----------------  -----------------  -----------------
         O            0.019303669589     0.245074916564    -0.404495022531    15.994914619570
         O           -1.303940330411    -1.628580083436    -0.241693022531    15.994914619570
         O            1.115446669589    -1.086275083436     1.114160977469    15.994914619570
         C           -2.337055330411     0.578526916564    -0.270880022531    12.000000000000
         C            2.399716669589     0.215478916564    -0.497243022531    12.000000000000
         C           -1.195580630411    -0.437572083436    -0.288536122531    12.000000000000
         C            1.160523669589    -0.327635083436     0.172901977469    12.000000000000
         C           -3.674620330411    -0.117059083436    -0.490932022531    12.000000000000
         C           -2.295630330411     1.351835916564     1.054036977469    12.000000000000
         C            2.476633669589     1.735171916564    -0.299869022531    12.000000000000
         C            3.640949669589    -0.494801083436     0.029237977469    12.000000000000
         H           -2.141426330411     1.285482916564    -1.087017022531     1.007825032230
         H            2.280937669589     0.015241916564    -1.569931022531     1.007825032230
         H           -4.481083330411     0.621272916564    -0.510832022531     1.007825032230
         H           -3.683958330411    -0.668413083436    -1.434195022531     1.007825032230
         H           -3.871067330411    -0.828493083436     0.314692977469     1.007825032230
         H           -3.100176330411     2.092107916564     1.076738977469     1.007825032230
         H           -2.435908330411     0.668447916564     1.897252977469     1.007825032230
         H           -1.342685330411     1.870331916564     1.180388977469     1.007825032230
         H            2.543378669589     1.975899916564     0.765877977469     1.007825032230
         H            1.600832669589     2.235660916564    -0.717081022531     1.007825032230
         H            3.370817669589     2.127243916564    -0.792481022531     1.007825032230
         H            3.764424669589    -0.305833083436     1.098436977469     1.007825032230
         H            4.528838669589    -0.130475083436    -0.495068022531     1.007825032230
         H            3.569297669589    -1.575331083436    -0.113545022531     1.007825032230

  Basis Set: AUG-CC-PVTZ
    Blend: AUG-CC-PVTZ
  Basis Set: (AUG-CC-PVTZ AUX)
    Blend: AUG-CC-PVTZ-JKFIT
	 Reference Energy          =    -535.9133874100773482 [Eh]
	 Singles Energy            =      -0.0000000000000000 [Eh]
	 Same-Spin Energy          =      -0.5369474067110432 [Eh]
	 Opposite-Spin Energy      =      -1.7515558969835312 [Eh]
	 Correlation Energy        =      -2.2885033036945743 [Eh]
	 Total Energy              =    -538.2018907137719452 [Eh]

	 ================> DF-SCS-MP2 Energies <==================
	-----------------------------------------------------------
	 SCS Same-Spin Scale       =       0.3333333333333333 [-]
	 SCS Opposite-Spin Scale   =       1.2000000000000000 [-]
	 SCS Same-Spin Energy      =      -0.1789824689036811 [Eh]
	 SCS Opposite-Spin Energy  =      -2.1018670763802372 [Eh]
	 SCS Correlation Energy    =      -2.2808495452839184 [Eh]
	 SCS Total Energy          =    -538.1942369553612480 [Eh]
	-----------------------------------------------------------

  Dipole Moment: [D]
     X:     0.3086      Y:     3.3302      Z:    -1.4293     Total:     3.6371

*** Psi4 exiting successfully. Buy a developer a beer!
