                               Psi4 1.4a3.dev225

  ==> Input File <==

--------------------------------------------------------------------------
#psi4
#
memory 32 gb

molecule  {
0 1
  O        0.0168770     0.1900940    -0.4022940
  O       -1.3063670    -1.6835610    -0.2394920
  O        1.1130200    -1.1412560     1.1163620
  C       -2.3394820     0.5235460    -0.2686790
  C        2.3972900     0.1604980    -0.4950420
  C       -1.2113993    -0.4593307    -0.2868752
  C        1.1580970    -0.3826160     0.1751030
  C       -3.6770470    -0.1720400    -0.4887310
  C       -2.2980570     1.2968550     1.0562380
  C        2.4742070     1.6801910    -0.2976680
  C        3.6385230    -0.5497820     0.0314390
  H       -2.1438530     1.2305020    -1.0848160
  H        2.2785110    -0.0397390    -1.5677300
  H       -4.4835100     0.5662920    -0.5086310
  H       -3.6863850    -0.7233940    -1.4319940
  H       -3.8734940    -0.8834740     0.3168940
  H       -3.1026030     2.0371270     1.0789400
  H       -2.4383350     0.6134670     1.8994540
  H       -1.3451120     1.8153510     1.1825900
  H        2.5409520     1.9209190     0.7680790
  H        1.5984060     2.1806800    -0.7148800
  H        3.3683910     2.0722630    -0.7902800
  H        3.7619980    -0.3608140     1.1006380
  H        4.5264120    -0.1854560    -0.4928670
  H        3.5668710    -1.6303120    -0.1113440
units angstrom
no_reorient  #important for SAPT in psi4, default
symmetry c1  #important for SAPT in psi4, default
}

set PROPERTIES_ORIGIN ["COM"]
properties('MP2/aug-cc-pvtz', properties = ['dipole'])
--------------------------------------------------------------------------

    Molecular point group: c1
  Charge       = 0
  Multiplicity = 1
  Basis Set: AUG-CC-PVTZ
    Blend: AUG-CC-PVTZ
  Basis Set: (AUG-CC-PVTZ AUX)
    Blend: AUG-CC-PVTZ-JKFIT

    Orbital Energies [Eh]
    ---------------------

    Doubly Occupied:

       1A    -20.626385     2A    -20.561879     3A    -20.558034
       4A    -11.396112     5A    -11.395731     6A    -11.260124
       7A    -11.258949     8A    -11.236678     9A    -11.235462
      10A    -11.224304    11A    -11.224124    12A     -1.482860
      13A     -1.395490    14A     -1.355587    15A     -1.110035
      16A     -1.096426    17A     -0.953941    18A     -0.947161
      19A     -0.938452    20A     -0.865506    21A     -0.794393
      22A     -0.735399    23A     -0.706505    24A     -0.702064
      25A     -0.674042    26A     -0.644997    27A     -0.629605
      28A     -0.616024    29A     -0.605611    30A     -0.575776
      31A     -0.568156    32A     -0.554404    33A     -0.552038
      34A     -0.535985    35A     -0.532523    36A     -0.525332
      37A     -0.503272    38A     -0.499366    39A     -0.495480
      40A     -0.490855    41A     -0.473657    42A     -0.468343
      43A     -0.433865

  @DF-RHF Final Energy:  -535.90969069751782

   => Energetics <=

    Nuclear Repulsion Energy =            648.5067628583416308
    One-Electron Energy =               -2017.9510448595005982
    Two-Electron Energy =                 833.5345913036412639
    Total Energy =                       -535.9096906975178172
  Basis Set: (AUG-CC-PVTZ AUX)
    Blend: AUG-CC-PVTZ-RI
    Molecular point group: c1

    Geometry (in Angstrom), charge = 0, multiplicity = 1:

       Center              X                  Y                   Z               Mass
    ------------   -----------------  -----------------  -----------------  -----------------
         O            0.020320176862     0.242553208860    -0.404454026744    15.994914619570
         O           -1.302923823138    -1.631101791140    -0.241652026744    15.994914619570
         O            1.116463176862    -1.088796791140     1.114201973256    15.994914619570
         C           -2.336038823138     0.576005208860    -0.270839026744    12.000000000000
         C            2.400733176862     0.212957208860    -0.497202026744    12.000000000000
         C           -1.207956123138    -0.406871491140    -0.289035226744    12.000000000000
         C            1.161540176862    -0.330156791140     0.172942973256    12.000000000000
         C           -3.673603823138    -0.119580791140    -0.490891026744    12.000000000000
         C           -2.294613823138     1.349314208860     1.054077973256    12.000000000000
         C            2.477650176862     1.732650208860    -0.299828026744    12.000000000000
         C            3.641966176862    -0.497322791140     0.029278973256    12.000000000000
         H           -2.140409823138     1.282961208860    -1.086976026744     1.007825032230
         H            2.281954176862     0.012720208860    -1.569890026744     1.007825032230
         H           -4.480066823138     0.618751208860    -0.510791026744     1.007825032230
         H           -3.682941823138    -0.670934791140    -1.434154026744     1.007825032230
         H           -3.870050823138    -0.831014791140     0.314733973256     1.007825032230
         H           -3.099159823138     2.089586208860     1.076779973256     1.007825032230
         H           -2.434891823138     0.665926208860     1.897293973256     1.007825032230
         H           -1.341668823138     1.867810208860     1.180429973256     1.007825032230
         H            2.544395176862     1.973378208860     0.765918973256     1.007825032230
         H            1.601849176862     2.233139208860    -0.717040026744     1.007825032230
         H            3.371834176862     2.124722208860    -0.792440026744     1.007825032230
         H            3.765441176862    -0.308354791140     1.098477973256     1.007825032230
         H            4.529855176862    -0.132996791140    -0.495027026744     1.007825032230
         H            3.570314176862    -1.577852791140    -0.113504026744     1.007825032230

  Basis Set: AUG-CC-PVTZ
    Blend: AUG-CC-PVTZ
  Basis Set: (AUG-CC-PVTZ AUX)
    Blend: AUG-CC-PVTZ-JKFIT
	 Reference Energy          =    -535.9096906975178172 [Eh]
	 Singles Energy            =      -0.0000000000000000 [Eh]
	 Same-Spin Energy          =      -0.5378876382846571 [Eh]
	 Opposite-Spin Energy      =      -1.7533488432200466 [Eh]
	 Correlation Energy        =      -2.2912364815047037 [Eh]
	 Total Energy              =    -538.2009271790225284 [Eh]

	 ================> DF-SCS-MP2 Energies <==================
	-----------------------------------------------------------
	 SCS Same-Spin Scale       =       0.3333333333333333 [-]
	 SCS Opposite-Spin Scale   =       1.2000000000000000 [-]
	 SCS Same-Spin Energy      =      -0.1792958794282190 [Eh]
	 SCS Opposite-Spin Energy  =      -2.1040186118640558 [Eh]
	 SCS Correlation Energy    =      -2.2833144912922747 [Eh]
	 SCS Total Energy          =    -538.1930051888100479 [Eh]
	-----------------------------------------------------------

  Dipole Moment: [D]
     X:     0.2660      Y:     3.5093      Z:    -1.4092     Total:     3.7910

*** Psi4 exiting successfully. Buy a developer a beer!
