                               Psi4 1.3.2 release

  ==> Input File <==

--------------------------------------------------------------------------
#psi4
#
memory 32 gb

molecule  {
0 1
  O        0.0396143     0.1467262    -0.4011718
  O       -1.3063300    -1.6835180    -0.2393630
  O        1.1131790    -1.1413980     1.1162780
  C       -2.3394790     0.5235580    -0.2686750
  C        2.3972750     0.1605680    -0.4950760
  C       -1.2129060    -0.4792070    -0.2860030
  C        1.1581700    -0.3826440     0.1751130
  C       -3.6769720    -0.1720140    -0.4890940
  C       -2.2983330     1.2966310     1.0564140
  C        2.4741530     1.6802570    -0.2975580
  C        3.6385590    -0.5497050     0.0312540
  H       -2.1437190     1.2306780    -1.0846340
  H        2.2784230    -0.0395630    -1.5677780
  H       -4.4834260     0.5663220    -0.5092150
  H       -3.6860570    -0.7233770    -1.4323560
  H       -3.8736540    -0.8834450     0.3164790
  H       -3.1030040     2.0367670     1.0791630
  H       -2.4386000     0.6130600     1.8994820
  H       -1.3454850     1.8152510     1.1829620
  H        2.5408530     1.9208960     0.7682120
  H        1.5983600     2.1807600    -0.7147640
  H        3.3683510     2.0723810    -0.7901000
  H        3.7622080    -0.3606850     1.1004290
  H        4.5263690    -0.1854060    -0.4932010
  H        3.5668740    -1.6302420    -0.1114630
units angstrom
no_reorient  #important for SAPT in psi4, default
symmetry c1  #important for SAPT in psi4, default
}

set PROPERTIES_ORIGIN ["COM"]
properties('MP2/aug-cc-pvtz', properties = ['dipole'])
--------------------------------------------------------------------------

    Molecular point group: c1
  Charge       = 0
  Multiplicity = 1
  Basis Set: AUG-CC-PVTZ
    Blend: AUG-CC-PVTZ
  Basis Set: (AUG-CC-PVTZ AUX)
    Blend: AUG-CC-PVTZ-JKFIT

    Orbital Energies [Eh]
    ---------------------

    Doubly Occupied:

       1A    -20.623369     2A    -20.562244     3A    -20.553263
       4A    -11.396638     5A    -11.389407     6A    -11.262490
       7A    -11.256853     8A    -11.236703     9A    -11.235022
      10A    -11.226315    11A    -11.221825    12A     -1.490045
      13A     -1.400677    14A     -1.359570    15A     -1.109292
      16A     -1.095430    17A     -0.955215    18A     -0.947185
      19A     -0.939761    20A     -0.864031    21A     -0.798260
      22A     -0.734654    23A     -0.708540    24A     -0.701462
      25A     -0.677156    26A     -0.644785    27A     -0.631644
      28A     -0.615234    29A     -0.607079    30A     -0.575248
      31A     -0.568734    32A     -0.554664    33A     -0.551526
      34A     -0.537464    35A     -0.530388    36A     -0.526859
      37A     -0.504312    38A     -0.498793    39A     -0.495309
      40A     -0.490483    41A     -0.474232    42A     -0.468173
      43A     -0.432810

  @DF-RHF Final Energy:  -535.91412340844875

   => Energetics <=

    Nuclear Repulsion Energy =            649.2138215469643683
    One-Electron Energy =               -2019.3495934530858449
    Two-Electron Energy =                 834.2216484976728452
    Total Energy =                       -535.9141234084487451
  Basis Set: (AUG-CC-PVTZ AUX)
    Blend: AUG-CC-PVTZ-RI
    Molecular point group: c1

    Geometry (in Angstrom), charge = 0, multiplicity = 1:

       Center              X                  Y                   Z               Mass
    ------------   -----------------  -----------------  -----------------  -----------------
         O            0.040868417091     0.205091950119    -0.403489379013    15.994914619570
         O           -1.305075882909    -1.625152249881    -0.241680579013    15.994914619570
         O            1.114433117091    -1.083032249881     1.113960420987    15.994914619570
         C           -2.338224882909     0.581923750119    -0.270992579013    12.000000000000
         C            2.398529117091     0.218933750119    -0.497393579013    12.000000000000
         C           -1.211651882909    -0.420841249881    -0.288320579013    12.000000000000
         C            1.159424117091    -0.324278249881     0.172795420987    12.000000000000
         C           -3.675717882909    -0.113648249881    -0.491411579013    12.000000000000
         C           -2.297078882909     1.354996750119     1.054096420987    12.000000000000
         C            2.475407117091     1.738622750119    -0.299875579013    12.000000000000
         C            3.639813117091    -0.491339249881     0.028936420987    12.000000000000
         H           -2.142464882909     1.289043750119    -1.086951579013     1.007825032230
         H            2.279677117091     0.018802750119    -1.570095579013     1.007825032230
         H           -4.482171882909     0.624687750119    -0.511532579013     1.007825032230
         H           -3.684802882909    -0.665011249881    -1.434673579013     1.007825032230
         H           -3.872399882909    -0.825079249881     0.314161420987     1.007825032230
         H           -3.101749882909     2.095132750119     1.076845420987     1.007825032230
         H           -2.437345882909     0.671425750119     1.897164420987     1.007825032230
         H           -1.344230882909     1.873616750119     1.180644420987     1.007825032230
         H            2.542107117091     1.979261750119     0.765894420987     1.007825032230
         H            1.599614117091     2.239125750119    -0.717081579013     1.007825032230
         H            3.369605117091     2.130746750119    -0.792417579013     1.007825032230
         H            3.763462117091    -0.302319249881     1.098111420987     1.007825032230
         H            4.527623117091    -0.127040249881    -0.495518579013     1.007825032230
         H            3.568128117091    -1.571876249881    -0.113780579013     1.007825032230

  Basis Set: AUG-CC-PVTZ
    Blend: AUG-CC-PVTZ
  Basis Set: (AUG-CC-PVTZ AUX)
    Blend: AUG-CC-PVTZ-JKFIT
	 Reference Energy          =    -535.9141234084487451 [Eh]
	 Singles Energy            =      -0.0000000000000000 [Eh]
	 Same-Spin Energy          =      -0.5367668518907371 [Eh]
	 Opposite-Spin Energy      =      -1.7507161426209814 [Eh]
	 Correlation Energy        =      -2.2874829945117185 [Eh]
	 Total Energy              =    -538.2016064029604649 [Eh]

	 ================> DF-SCS-MP2 Energies <==================
	-----------------------------------------------------------
	 SCS Same-Spin Scale       =       0.3333333333333333 [-]
	 SCS Opposite-Spin Scale   =       1.2000000000000000 [-]
	 SCS Same-Spin Energy      =      -0.1789222839635790 [Eh]
	 SCS Opposite-Spin Energy  =      -2.1008593711451775 [Eh]
	 SCS Correlation Energy    =      -2.2797816551087564 [Eh]
	 SCS Total Energy          =    -538.1939050635575086 [Eh]
	-----------------------------------------------------------

  Dipole Moment: [D]
     X:    -0.1024      Y:     3.5026      Z:    -1.4932     Total:     3.8090

*** Psi4 exiting successfully. Buy a developer a beer!
