                               Psi4 1.3.2 release

  ==> Input File <==

--------------------------------------------------------------------------
#psi4
#
memory 32 gb

molecule  {
0 1
  O        0.0283846     0.1685141    -0.4022713
  O       -1.3063300    -1.6835180    -0.2393630
  O        1.1131790    -1.1413980     1.1162780
  C       -2.3394790     0.5235580    -0.2686750
  C        2.3972750     0.1605680    -0.4950760
  C       -1.2129060    -0.4792070    -0.2860030
  C        1.1581700    -0.3826440     0.1751130
  C       -3.6769720    -0.1720140    -0.4890940
  C       -2.2983330     1.2966310     1.0564140
  C        2.4741530     1.6802570    -0.2975580
  C        3.6385590    -0.5497050     0.0312540
  H       -2.1437190     1.2306780    -1.0846340
  H        2.2784230    -0.0395630    -1.5677780
  H       -4.4834260     0.5663220    -0.5092150
  H       -3.6860570    -0.7233770    -1.4323560
  H       -3.8736540    -0.8834450     0.3164790
  H       -3.1030040     2.0367670     1.0791630
  H       -2.4386000     0.6130600     1.8994820
  H       -1.3454850     1.8152510     1.1829620
  H        2.5408530     1.9208960     0.7682120
  H        1.5983600     2.1807600    -0.7147640
  H        3.3683510     2.0723810    -0.7901000
  H        3.7622080    -0.3606850     1.1004290
  H        4.5263690    -0.1854060    -0.4932010
  H        3.5668740    -1.6302420    -0.1114630
units angstrom
no_reorient  #important for SAPT in psi4, default
symmetry c1  #important for SAPT in psi4, default
}

set PROPERTIES_ORIGIN ["COM"]
properties('MP2/aug-cc-pvtz', properties = ['dipole'])
--------------------------------------------------------------------------

    Molecular point group: c1
  Charge       = 0
  Multiplicity = 1
  Basis Set: AUG-CC-PVTZ
    Blend: AUG-CC-PVTZ
  Basis Set: (AUG-CC-PVTZ AUX)
    Blend: AUG-CC-PVTZ-JKFIT

    Orbital Energies [Eh]
    ---------------------

    Doubly Occupied:

       1A    -20.623511     2A    -20.561896     3A    -20.557160
       4A    -11.395398     5A    -11.392043     6A    -11.260663
       7A    -11.258003     8A    -11.235679     9A    -11.235497
      10A    -11.225186    11A    -11.222677    12A     -1.485542
      13A     -1.401118    14A     -1.360166    15A     -1.108689
      16A     -1.095295    17A     -0.953430    18A     -0.946901
      19A     -0.938092    20A     -0.863697    21A     -0.794962
      22A     -0.735089    23A     -0.707226    24A     -0.701769
      25A     -0.676026    26A     -0.645018    27A     -0.630844
      28A     -0.615431    29A     -0.606961    30A     -0.575504
      31A     -0.568206    32A     -0.554131    33A     -0.551891
      34A     -0.536929    35A     -0.531405    36A     -0.527575
      37A     -0.503667    38A     -0.498784    39A     -0.494977
      40A     -0.490876    41A     -0.475745    42A     -0.468380
      43A     -0.432861

  @DF-RHF Final Energy:  -535.91348031665189

   => Energetics <=

    Nuclear Repulsion Energy =            648.8573923186362435
    One-Electron Energy =               -2018.6519438964342044
    Two-Electron Energy =                 833.8810712611459621
    Total Energy =                       -535.9134803166518850
  Basis Set: (AUG-CC-PVTZ AUX)
    Blend: AUG-CC-PVTZ-RI
    Molecular point group: c1

    Geometry (in Angstrom), charge = 0, multiplicity = 1:

       Center              X                  Y                   Z               Mass
    ------------   -----------------  -----------------  -----------------  -----------------
         O            0.030774862411     0.224675497319    -0.404477639017    15.994914619570
         O           -1.303939737589    -1.627356602681    -0.241569339017    15.994914619570
         O            1.115569262411    -1.085236602681     1.114071660983    15.994914619570
         C           -2.337088737589     0.579719397319    -0.270881339017    12.000000000000
         C            2.399665262411     0.216729397319    -0.497282339017    12.000000000000
         C           -1.210515737589    -0.423045602681    -0.288209339017    12.000000000000
         C            1.160560262411    -0.326482602681     0.172906660983    12.000000000000
         C           -3.674581737589    -0.115852602681    -0.491300339017    12.000000000000
         C           -2.295942737589     1.352792397319     1.054207660983    12.000000000000
         C            2.476543262411     1.736418397319    -0.299764339017    12.000000000000
         C            3.640949262411    -0.493543602681     0.029047660983    12.000000000000
         H           -2.141328737589     1.286839397319    -1.086840339017     1.007825032230
         H            2.280813262411     0.016598397319    -1.569984339017     1.007825032230
         H           -4.481035737589     0.622483397319    -0.511421339017     1.007825032230
         H           -3.683666737589    -0.667215602681    -1.434562339017     1.007825032230
         H           -3.871263737589    -0.827283602681     0.314272660983     1.007825032230
         H           -3.100613737589     2.092928397319     1.076956660983     1.007825032230
         H           -2.436209737589     0.669221397319     1.897275660983     1.007825032230
         H           -1.343094737589     1.871412397319     1.180755660983     1.007825032230
         H            2.543243262411     1.977057397319     0.766005660983     1.007825032230
         H            1.600750262411     2.236921397319    -0.716970339017     1.007825032230
         H            3.370741262411     2.128542397319    -0.792306339017     1.007825032230
         H            3.764598262411    -0.304523602681     1.098222660983     1.007825032230
         H            4.528759262411    -0.129244602681    -0.495407339017     1.007825032230
         H            3.569264262411    -1.574080602681    -0.113669339017     1.007825032230

  Basis Set: AUG-CC-PVTZ
    Blend: AUG-CC-PVTZ
  Basis Set: (AUG-CC-PVTZ AUX)
    Blend: AUG-CC-PVTZ-JKFIT
	 Reference Energy          =    -535.9134803166518850 [Eh]
	 Singles Energy            =      -0.0000000000000000 [Eh]
	 Same-Spin Energy          =      -0.5370765676201251 [Eh]
	 Opposite-Spin Energy      =      -1.7515450901288481 [Eh]
	 Correlation Energy        =      -2.2886216577489731 [Eh]
	 Total Energy              =    -538.2021019744008754 [Eh]

	 ================> DF-SCS-MP2 Energies <==================
	-----------------------------------------------------------
	 SCS Same-Spin Scale       =       0.3333333333333333 [-]
	 SCS Opposite-Spin Scale   =       1.2000000000000000 [-]
	 SCS Same-Spin Energy      =      -0.1790255225400417 [Eh]
	 SCS Opposite-Spin Energy  =      -2.1018541081546176 [Eh]
	 SCS Correlation Energy    =      -2.2808796306946593 [Eh]
	 SCS Total Energy          =    -538.1943599473465838 [Eh]
	-----------------------------------------------------------

  Dipole Moment: [D]
     X:     0.0463      Y:     3.4508      Z:    -1.4560     Total:     3.7457

*** Psi4 exiting successfully. Buy a developer a beer!
