                               Psi4 1.3.2 release

  ==> Input File <==

--------------------------------------------------------------------------
#psi4
#
memory 32 gb

molecule  {
0 1
  O        0.0168640     0.1901590    -0.4020990
  O       -1.3482886    -1.6794537    -0.2375491
  O        1.1131790    -1.1413980     1.1162780
  C       -2.3394790     0.5235580    -0.2686750
  C        2.3972750     0.1605680    -0.4950760
  C       -1.2129060    -0.4792070    -0.2860030
  C        1.1581700    -0.3826440     0.1751130
  C       -3.6769720    -0.1720140    -0.4890940
  C       -2.2983330     1.2966310     1.0564140
  C        2.4741530     1.6802570    -0.2975580
  C        3.6385590    -0.5497050     0.0312540
  H       -2.1437190     1.2306780    -1.0846340
  H        2.2784230    -0.0395630    -1.5677780
  H       -4.4834260     0.5663220    -0.5092150
  H       -3.6860570    -0.7233770    -1.4323560
  H       -3.8736540    -0.8834450     0.3164790
  H       -3.1030040     2.0367670     1.0791630
  H       -2.4386000     0.6130600     1.8994820
  H       -1.3454850     1.8152510     1.1829620
  H        2.5408530     1.9208960     0.7682120
  H        1.5983600     2.1807600    -0.7147640
  H        3.3683510     2.0723810    -0.7901000
  H        3.7622080    -0.3606850     1.1004290
  H        4.5263690    -0.1854060    -0.4932010
  H        3.5668740    -1.6302420    -0.1114630
units angstrom
no_reorient  #important for SAPT in psi4, default
symmetry c1  #important for SAPT in psi4, default
}

set PROPERTIES_ORIGIN ["COM"]
properties('MP2/aug-cc-pvtz', properties = ['dipole'])
--------------------------------------------------------------------------

    Molecular point group: c1
  Charge       = 0
  Multiplicity = 1
  Basis Set: AUG-CC-PVTZ
    Blend: AUG-CC-PVTZ
  Basis Set: (AUG-CC-PVTZ AUX)
    Blend: AUG-CC-PVTZ-JKFIT

    Orbital Energies [Eh]
    ---------------------

    Doubly Occupied:

       1A    -20.626425     2A    -20.562459     3A    -20.562081
       4A    -11.395979     5A    -11.394465     6A    -11.260071
       7A    -11.256754     8A    -11.236675     9A    -11.233681
      10A    -11.224233    11A    -11.222617    12A     -1.482014
      13A     -1.402998    14A     -1.362824    15A     -1.108062
      16A     -1.094438    17A     -0.952510    18A     -0.946149
      19A     -0.936496    20A     -0.863255    21A     -0.792128
      22A     -0.736365    23A     -0.706521    24A     -0.702449
      25A     -0.676134    26A     -0.646085    27A     -0.629671
      28A     -0.616183    29A     -0.606837    30A     -0.576436
      31A     -0.567410    32A     -0.554260    33A     -0.551654
      34A     -0.535917    35A     -0.533008    36A     -0.527988
      37A     -0.503027    38A     -0.498449    39A     -0.494933
      40A     -0.490942    41A     -0.478676    42A     -0.468671
      43A     -0.432970

  @DF-RHF Final Energy:  -535.91169151210090

   => Energetics <=

    Nuclear Repulsion Energy =            648.2918949344206112
    One-Electron Energy =               -2017.5053801531387307
    Two-Electron Energy =                 833.3017937066173317
    Total Energy =                       -535.9116915121009015
  Basis Set: (AUG-CC-PVTZ AUX)
    Blend: AUG-CC-PVTZ-RI
    Molecular point group: c1

    Geometry (in Angstrom), charge = 0, multiplicity = 1:

       Center              X                  Y                   Z               Mass
    ------------   -----------------  -----------------  -----------------  -----------------
         O            0.024664927241     0.243719313828    -0.404506289340    15.994914619570
         O           -1.340487672759    -1.625893386172    -0.239956389340    15.994914619570
         O            1.120979927241    -1.087837686172     1.113870710660    15.994914619570
         C           -2.331678072759     0.577118313828    -0.271082289340    12.000000000000
         C            2.405075927241     0.214128313828    -0.497483289340    12.000000000000
         C           -1.205105072759    -0.425646686172    -0.288410289340    12.000000000000
         C            1.165970927241    -0.329083686172     0.172705710660    12.000000000000
         C           -3.669171072759    -0.118453686172    -0.491501289340    12.000000000000
         C           -2.290532072759     1.350191313828     1.054006710660    12.000000000000
         C            2.481953927241     1.733817313828    -0.299965289340    12.000000000000
         C            3.646359927241    -0.496144686172     0.028846710660    12.000000000000
         H           -2.135918072759     1.284238313828    -1.087041289340     1.007825032230
         H            2.286223927241     0.013997313828    -1.570185289340     1.007825032230
         H           -4.475625072759     0.619882313828    -0.511622289340     1.007825032230
         H           -3.678256072759    -0.669816686172    -1.434763289340     1.007825032230
         H           -3.865853072759    -0.829884686172     0.314071710660     1.007825032230
         H           -3.095203072759     2.090327313828     1.076755710660     1.007825032230
         H           -2.430799072759     0.666620313828     1.897074710660     1.007825032230
         H           -1.337684072759     1.868811313828     1.180554710660     1.007825032230
         H            2.548653927241     1.974456313828     0.765804710660     1.007825032230
         H            1.606160927241     2.234320313828    -0.717171289340     1.007825032230
         H            3.376151927241     2.125941313828    -0.792507289340     1.007825032230
         H            3.770008927241    -0.307124686172     1.098021710660     1.007825032230
         H            4.534169927241    -0.131845686172    -0.495608289340     1.007825032230
         H            3.574674927241    -1.576681686172    -0.113870289340     1.007825032230

  Basis Set: AUG-CC-PVTZ
    Blend: AUG-CC-PVTZ
  Basis Set: (AUG-CC-PVTZ AUX)
    Blend: AUG-CC-PVTZ-JKFIT
	 Reference Energy          =    -535.9116915121009015 [Eh]
	 Singles Energy            =      -0.0000000000000000 [Eh]
	 Same-Spin Energy          =      -0.5374574361111927 [Eh]
	 Opposite-Spin Energy      =      -1.7525342620262736 [Eh]
	 Correlation Energy        =      -2.2899916981374662 [Eh]
	 Total Energy              =    -538.2016832102383432 [Eh]

	 ================> DF-SCS-MP2 Energies <==================
	-----------------------------------------------------------
	 SCS Same-Spin Scale       =       0.3333333333333333 [-]
	 SCS Opposite-Spin Scale   =       1.2000000000000000 [-]
	 SCS Same-Spin Energy      =      -0.1791524787037309 [Eh]
	 SCS Opposite-Spin Energy  =      -2.1030411144315284 [Eh]
	 SCS Correlation Energy    =      -2.2821935931352595 [Eh]
	 SCS Total Energy          =    -538.1938851052361770 [Eh]
	-----------------------------------------------------------

  Dipole Moment: [D]
     X:     0.3335      Y:     3.3750      Z:    -1.4257     Total:     3.6789

*** Psi4 exiting successfully. Buy a developer a beer!
