                               Psi4 1.3.2 release

  ==> Input File <==

--------------------------------------------------------------------------
#psi4
#
memory 32 gb

molecule  {
0 1
  O        0.0168640     0.1901590    -0.4020990
  O       -1.2221227    -1.6872417    -0.2431591
  O        1.1131790    -1.1413980     1.1162780
  C       -2.3394790     0.5235580    -0.2686750
  C        2.3972750     0.1605680    -0.4950760
  C       -1.2129060    -0.4792070    -0.2860030
  C        1.1581700    -0.3826440     0.1751130
  C       -3.6769720    -0.1720140    -0.4890940
  C       -2.2983330     1.2966310     1.0564140
  C        2.4741530     1.6802570    -0.2975580
  C        3.6385590    -0.5497050     0.0312540
  H       -2.1437190     1.2306780    -1.0846340
  H        2.2784230    -0.0395630    -1.5677780
  H       -4.4834260     0.5663220    -0.5092150
  H       -3.6860570    -0.7233770    -1.4323560
  H       -3.8736540    -0.8834450     0.3164790
  H       -3.1030040     2.0367670     1.0791630
  H       -2.4386000     0.6130600     1.8994820
  H       -1.3454850     1.8152510     1.1829620
  H        2.5408530     1.9208960     0.7682120
  H        1.5983600     2.1807600    -0.7147640
  H        3.3683510     2.0723810    -0.7901000
  H        3.7622080    -0.3606850     1.1004290
  H        4.5263690    -0.1854060    -0.4932010
  H        3.5668740    -1.6302420    -0.1114630
units angstrom
no_reorient  #important for SAPT in psi4, default
symmetry c1  #important for SAPT in psi4, default
}

set PROPERTIES_ORIGIN ["COM"]
properties('MP2/aug-cc-pvtz', properties = ['dipole'])
--------------------------------------------------------------------------

    Molecular point group: c1
  Charge       = 0
  Multiplicity = 1
  Basis Set: AUG-CC-PVTZ
    Blend: AUG-CC-PVTZ
  Basis Set: (AUG-CC-PVTZ AUX)
    Blend: AUG-CC-PVTZ-JKFIT

    Orbital Energies [Eh]
    ---------------------

    Doubly Occupied:

       1A    -20.617686     2A    -20.560384     3A    -20.557598
       4A    -11.393840     5A    -11.391691     6A    -11.263007
       7A    -11.257338     8A    -11.236531     9A    -11.234556
      10A    -11.226877    11A    -11.222097    12A     -1.480440
      13A     -1.399138    14A     -1.355539    15A     -1.109323
      16A     -1.095296    17A     -0.952151    18A     -0.946967
      19A     -0.935076    20A     -0.863801    21A     -0.790776
      22A     -0.734073    23A     -0.705652    24A     -0.700088
      25A     -0.672808    26A     -0.643767    27A     -0.631235
      28A     -0.614568    29A     -0.606467    30A     -0.574962
      31A     -0.567707    32A     -0.554354    33A     -0.551360
      34A     -0.538409    35A     -0.530862    36A     -0.527813
      37A     -0.504255    38A     -0.498407    39A     -0.495156
      40A     -0.490478    41A     -0.473548    42A     -0.467588
      43A     -0.431668

  @DF-RHF Final Energy:  -535.91112752477591

   => Energetics <=

    Nuclear Repulsion Energy =            649.0781574734271544
    One-Electron Energy =               -2019.1678914796402751
    Two-Electron Energy =                 834.1786064814372139
    Total Energy =                       -535.9111275247759067
  Basis Set: (AUG-CC-PVTZ AUX)
    Blend: AUG-CC-PVTZ-RI
    Molecular point group: c1

    Geometry (in Angstrom), charge = 0, multiplicity = 1:

       Center              X                  Y                   Z               Mass
    ------------   -----------------  -----------------  -----------------  -----------------
         O            0.011900312254     0.244507251151    -0.403938707370    15.994914619570
         O           -1.227086387746    -1.632893448849    -0.244998807370    15.994914619570
         O            1.108215312254    -1.087049748849     1.114438292630    15.994914619570
         C           -2.344442687746     0.577906251151    -0.270514707370    12.000000000000
         C            2.392311312254     0.214916251151    -0.496915707370    12.000000000000
         C           -1.217869687746    -0.424858748849    -0.287842707370    12.000000000000
         C            1.153206312254    -0.328295748849     0.173273292630    12.000000000000
         C           -3.681935687746    -0.117665748849    -0.490933707370    12.000000000000
         C           -2.303296687746     1.350979251151     1.054574292630    12.000000000000
         C            2.469189312254     1.734605251151    -0.299397707370    12.000000000000
         C            3.633595312254    -0.495356748849     0.029414292630    12.000000000000
         H           -2.148682687746     1.285026251151    -1.086473707370     1.007825032230
         H            2.273459312254     0.014785251151    -1.569617707370     1.007825032230
         H           -4.488389687746     0.620670251151    -0.511054707370     1.007825032230
         H           -3.691020687746    -0.669028748849    -1.434195707370     1.007825032230
         H           -3.878617687746    -0.829096748849     0.314639292630     1.007825032230
         H           -3.107967687746     2.091115251151     1.077323292630     1.007825032230
         H           -2.443563687746     0.667408251151     1.897642292630     1.007825032230
         H           -1.350448687746     1.869599251151     1.181122292630     1.007825032230
         H            2.535889312254     1.975244251151     0.766372292630     1.007825032230
         H            1.593396312254     2.235108251151    -0.716603707370     1.007825032230
         H            3.363387312254     2.126729251151    -0.791939707370     1.007825032230
         H            3.757244312254    -0.306336748849     1.098589292630     1.007825032230
         H            4.521405312254    -0.131057748849    -0.495040707370     1.007825032230
         H            3.561910312254    -1.575893748849    -0.113302707370     1.007825032230

  Basis Set: AUG-CC-PVTZ
    Blend: AUG-CC-PVTZ
  Basis Set: (AUG-CC-PVTZ AUX)
    Blend: AUG-CC-PVTZ-JKFIT
	 Reference Energy          =    -535.9111275247759067 [Eh]
	 Singles Energy            =      -0.0000000000000000 [Eh]
	 Same-Spin Energy          =      -0.5374010614770677 [Eh]
	 Opposite-Spin Energy      =      -1.7523389420552535 [Eh]
	 Correlation Energy        =      -2.2897400035323212 [Eh]
	 Total Energy              =    -538.2008675283082084 [Eh]

	 ================> DF-SCS-MP2 Energies <==================
	-----------------------------------------------------------
	 SCS Same-Spin Scale       =       0.3333333333333333 [-]
	 SCS Opposite-Spin Scale   =       1.2000000000000000 [-]
	 SCS Same-Spin Energy      =      -0.1791336871590226 [Eh]
	 SCS Opposite-Spin Energy  =      -2.1028067304663041 [Eh]
	 SCS Correlation Energy    =      -2.2819404176253268 [Eh]
	 SCS Total Energy          =    -538.1930679424012851 [Eh]
	-----------------------------------------------------------

  Dipole Moment: [D]
     X:    -0.0860      Y:     3.4406      Z:    -1.4144     Total:     3.7209

*** Psi4 exiting successfully. Buy a developer a beer!
