                               Psi4 1.4a3.dev225

  ==> Input File <==

--------------------------------------------------------------------------
#psi4
#
memory 32 gb

molecule  {
0 1
  O        0.0168770     0.1900940    -0.4022940
  O       -1.3063670    -1.6835610    -0.2394920
  O        1.1130200    -1.1412560     1.1163620
  C       -2.3394820     0.5235460    -0.2686790
  C        2.3972900     0.1604980    -0.4950420
  C       -1.2278827    -0.4659590    -0.2858729
  C        1.1580970    -0.3826160     0.1751030
  C       -3.6770470    -0.1720400    -0.4887310
  C       -2.2980570     1.2968550     1.0562380
  C        2.4742070     1.6801910    -0.2976680
  C        3.6385230    -0.5497820     0.0314390
  H       -2.1438530     1.2305020    -1.0848160
  H        2.2785110    -0.0397390    -1.5677300
  H       -4.4835100     0.5662920    -0.5086310
  H       -3.6863850    -0.7233940    -1.4319940
  H       -3.8734940    -0.8834740     0.3168940
  H       -3.1026030     2.0371270     1.0789400
  H       -2.4383350     0.6134670     1.8994540
  H       -1.3451120     1.8153510     1.1825900
  H        2.5409520     1.9209190     0.7680790
  H        1.5984060     2.1806800    -0.7148800
  H        3.3683910     2.0722630    -0.7902800
  H        3.7619980    -0.3608140     1.1006380
  H        4.5264120    -0.1854560    -0.4928670
  H        3.5668710    -1.6303120    -0.1113440
units angstrom
no_reorient  #important for SAPT in psi4, default
symmetry c1  #important for SAPT in psi4, default
}

set PROPERTIES_ORIGIN ["COM"]
properties('MP2/aug-cc-pvtz', properties = ['dipole'])
--------------------------------------------------------------------------

    Molecular point group: c1
  Charge       = 0
  Multiplicity = 1
  Basis Set: AUG-CC-PVTZ
    Blend: AUG-CC-PVTZ
  Basis Set: (AUG-CC-PVTZ AUX)
    Blend: AUG-CC-PVTZ-JKFIT

    Orbital Energies [Eh]
    ---------------------

    Doubly Occupied:

       1A    -20.622134     2A    -20.561055     3A    -20.559646
       4A    -11.396212     5A    -11.393777     6A    -11.259758
       7A    -11.258694     8A    -11.236297     9A    -11.235555
      10A    -11.225366    11A    -11.223108    12A     -1.477682
      13A     -1.397229    14A     -1.355659    15A     -1.110756
      16A     -1.096422    17A     -0.952493    18A     -0.947238
      19A     -0.936501    20A     -0.865941    21A     -0.791572
      22A     -0.734558    23A     -0.704996    24A     -0.701708
      25A     -0.672753    26A     -0.644380    27A     -0.630591
      28A     -0.615071    29A     -0.606086    30A     -0.575253
      31A     -0.567774    32A     -0.554282    33A     -0.551951
      34A     -0.536879    35A     -0.531715    36A     -0.526519
      37A     -0.503685    38A     -0.498928    39A     -0.495085
      40A     -0.490635    41A     -0.474392    42A     -0.468298
      43A     -0.434052

  @DF-RHF Final Energy:  -535.90988822813051

   => Energetics <=

    Nuclear Repulsion Energy =            648.3935341146848259
    One-Electron Energy =               -2017.7614742039836528
    Two-Electron Energy =                 833.4580518611683146
    Total Energy =                       -535.9098882281305123
  Basis Set: (AUG-CC-PVTZ AUX)
    Blend: AUG-CC-PVTZ-RI
    Molecular point group: c1

    Geometry (in Angstrom), charge = 0, multiplicity = 1:

       Center              X                  Y                   Z               Mass
    ------------   -----------------  -----------------  -----------------  -----------------
         O            0.021571333970     0.243056323791    -0.404530105391    15.994914619570
         O           -1.301672666030    -1.630598676209    -0.241728105391    15.994914619570
         O            1.117714333970    -1.088293676209     1.114125894609    15.994914619570
         C           -2.334787666030     0.576508323791    -0.270915105391    12.000000000000
         C            2.401984333970     0.213460323791    -0.497278105391    12.000000000000
         C           -1.223188366030    -0.412996676209    -0.288109005391    12.000000000000
         C            1.162791333970    -0.329653676209     0.172866894609    12.000000000000
         C           -3.672352666030    -0.119077676209    -0.490967105391    12.000000000000
         C           -2.293362666030     1.349817323791     1.054001894609    12.000000000000
         C            2.478901333970     1.733153323791    -0.299904105391    12.000000000000
         C            3.643217333970    -0.496819676209     0.029202894609    12.000000000000
         H           -2.139158666030     1.283464323791    -1.087052105391     1.007825032230
         H            2.283205333970     0.013223323791    -1.569966105391     1.007825032230
         H           -4.478815666030     0.619254323791    -0.510867105391     1.007825032230
         H           -3.681690666030    -0.670431676209    -1.434230105391     1.007825032230
         H           -3.868799666030    -0.830511676209     0.314657894609     1.007825032230
         H           -3.097908666030     2.090089323791     1.076703894609     1.007825032230
         H           -2.433640666030     0.666429323791     1.897217894609     1.007825032230
         H           -1.340417666030     1.868313323791     1.180353894609     1.007825032230
         H            2.545646333970     1.973881323791     0.765842894609     1.007825032230
         H            1.603100333970     2.233642323791    -0.717116105391     1.007825032230
         H            3.373085333970     2.125225323791    -0.792516105391     1.007825032230
         H            3.766692333970    -0.307851676209     1.098401894609     1.007825032230
         H            4.531106333970    -0.132493676209    -0.495103105391     1.007825032230
         H            3.571565333970    -1.577349676209    -0.113580105391     1.007825032230

  Basis Set: AUG-CC-PVTZ
    Blend: AUG-CC-PVTZ
  Basis Set: (AUG-CC-PVTZ AUX)
    Blend: AUG-CC-PVTZ-JKFIT
	 Reference Energy          =    -535.9098882281305123 [Eh]
	 Singles Energy            =      -0.0000000000000000 [Eh]
	 Same-Spin Energy          =      -0.5379200945603975 [Eh]
	 Opposite-Spin Energy      =      -1.7533608816326365 [Eh]
	 Correlation Energy        =      -2.2912809761930339 [Eh]
	 Total Energy              =    -538.2011692043234916 [Eh]

	 ================> DF-SCS-MP2 Energies <==================
	-----------------------------------------------------------
	 SCS Same-Spin Scale       =       0.3333333333333333 [-]
	 SCS Opposite-Spin Scale   =       1.2000000000000000 [-]
	 SCS Same-Spin Energy      =      -0.1793066981867991 [Eh]
	 SCS Opposite-Spin Energy  =      -2.1040330579591635 [Eh]
	 SCS Correlation Energy    =      -2.2833397561459625 [Eh]
	 SCS Total Energy          =    -538.1932279842765183 [Eh]
	-----------------------------------------------------------

  Dipole Moment: [D]
     X:     0.0790      Y:     3.4685      Z:    -1.4142     Total:     3.7466

*** Psi4 exiting successfully. Buy a developer a beer!
