                               Psi4 1.3.2 release

  ==> Input File <==

--------------------------------------------------------------------------
#psi4
#
memory 32 gb

molecule  {
0 1
  O        0.0168640     0.1901590    -0.4020990
  O       -1.3063300    -1.6835180    -0.2393630
  O        1.1131790    -1.1413980     1.1162780
  C       -2.3394790     0.5235580    -0.2686750
  C        2.3972750     0.1605680    -0.4950760
  C       -1.1902650    -0.5146274    -0.2607518
  C        1.1581700    -0.3826440     0.1751130
  C       -3.6769720    -0.1720140    -0.4890940
  C       -2.2983330     1.2966310     1.0564140
  C        2.4741530     1.6802570    -0.2975580
  C        3.6385590    -0.5497050     0.0312540
  H       -2.1437190     1.2306780    -1.0846340
  H        2.2784230    -0.0395630    -1.5677780
  H       -4.4834260     0.5663220    -0.5092150
  H       -3.6860570    -0.7233770    -1.4323560
  H       -3.8736540    -0.8834450     0.3164790
  H       -3.1030040     2.0367670     1.0791630
  H       -2.4386000     0.6130600     1.8994820
  H       -1.3454850     1.8152510     1.1829620
  H        2.5408530     1.9208960     0.7682120
  H        1.5983600     2.1807600    -0.7147640
  H        3.3683510     2.0723810    -0.7901000
  H        3.7622080    -0.3606850     1.1004290
  H        4.5263690    -0.1854060    -0.4932010
  H        3.5668740    -1.6302420    -0.1114630
units angstrom
no_reorient  #important for SAPT in psi4, default
symmetry c1  #important for SAPT in psi4, default
}

set PROPERTIES_ORIGIN ["COM"]
properties('MP2/aug-cc-pvtz', properties = ['dipole'])
--------------------------------------------------------------------------

    Molecular point group: c1
  Charge       = 0
  Multiplicity = 1
  Basis Set: AUG-CC-PVTZ
    Blend: AUG-CC-PVTZ
  Basis Set: (AUG-CC-PVTZ AUX)
    Blend: AUG-CC-PVTZ-JKFIT

    Orbital Energies [Eh]
    ---------------------

    Doubly Occupied:

       1A    -20.623867     2A    -20.565359     3A    -20.561874
       4A    -11.394518     5A    -11.390112     6A    -11.259085
       7A    -11.257022     8A    -11.236084     9A    -11.231363
      10A    -11.223678    11A    -11.222042    12A     -1.487326
      13A     -1.416866    14A     -1.367775    15A     -1.105333
      16A     -1.090095    17A     -0.950759    18A     -0.944963
      19A     -0.932972    20A     -0.857798    21A     -0.789042
      22A     -0.738540    23A     -0.707955    24A     -0.702634
      25A     -0.679805    26A     -0.647163    27A     -0.630338
      28A     -0.616639    29A     -0.607611    30A     -0.577222
      31A     -0.566504    32A     -0.553936    33A     -0.551221
      34A     -0.538577    35A     -0.534222    36A     -0.532840
      37A     -0.502788    38A     -0.496981    39A     -0.494302
      40A     -0.491186    41A     -0.482271    42A     -0.468091
      43A     -0.428176

  @DF-RHF Final Energy:  -535.91293555971970

   => Energetics <=

    Nuclear Repulsion Energy =            648.8293129762307672
    One-Electron Energy =               -2018.5706329899342109
    Two-Electron Energy =                 833.8283844539837446
    Total Energy =                       -535.9129355597196991
  Basis Set: (AUG-CC-PVTZ AUX)
    Blend: AUG-CC-PVTZ-RI
    Molecular point group: c1

    Geometry (in Angstrom), charge = 0, multiplicity = 1:

       Center              X                  Y                   Z               Mass
    ------------   -----------------  -----------------  -----------------  -----------------
         O            0.018701295038     0.246819064731    -0.406239439961    15.994914619570
         O           -1.304492704962    -1.626857935269    -0.243503439961    15.994914619570
         O            1.115016295038    -1.084737935269     1.112137560039    15.994914619570
         C           -2.337641704962     0.580218064731    -0.272815439961    12.000000000000
         C            2.399112295038     0.217228064731    -0.499216439961    12.000000000000
         C           -1.188427704962    -0.457967335269    -0.264892239961    12.000000000000
         C            1.160007295038    -0.325983935269     0.170972560039    12.000000000000
         C           -3.675134704962    -0.115353935269    -0.493234439961    12.000000000000
         C           -2.296495704962     1.353291064731     1.052273560039    12.000000000000
         C            2.475990295038     1.736917064731    -0.301698439961    12.000000000000
         C            3.640396295038    -0.493044935269     0.027113560039    12.000000000000
         H           -2.141881704962     1.287338064731    -1.088774439961     1.007825032230
         H            2.280260295038     0.017097064731    -1.571918439961     1.007825032230
         H           -4.481588704962     0.622982064731    -0.513355439961     1.007825032230
         H           -3.684219704962    -0.666716935269    -1.436496439961     1.007825032230
         H           -3.871816704962    -0.826784935269     0.312338560039     1.007825032230
         H           -3.101166704962     2.093427064731     1.075022560039     1.007825032230
         H           -2.436762704962     0.669720064731     1.895341560039     1.007825032230
         H           -1.343647704962     1.871911064731     1.178821560039     1.007825032230
         H            2.542690295038     1.977556064731     0.764071560039     1.007825032230
         H            1.600197295038     2.237420064731    -0.718904439961     1.007825032230
         H            3.370188295038     2.129041064731    -0.794240439961     1.007825032230
         H            3.764045295038    -0.304024935269     1.096288560039     1.007825032230
         H            4.528206295038    -0.128745935269    -0.497341439961     1.007825032230
         H            3.568711295038    -1.573581935269    -0.115603439961     1.007825032230

  Basis Set: AUG-CC-PVTZ
    Blend: AUG-CC-PVTZ
  Basis Set: (AUG-CC-PVTZ AUX)
    Blend: AUG-CC-PVTZ-JKFIT
	 Reference Energy          =    -535.9129355597196991 [Eh]
	 Singles Energy            =      -0.0000000000000000 [Eh]
	 Same-Spin Energy          =      -0.5364486255909642 [Eh]
	 Opposite-Spin Energy      =      -1.7506090433824297 [Eh]
	 Correlation Energy        =      -2.2870576689733939 [Eh]
	 Total Energy              =    -538.1999932286930743 [Eh]

	 ================> DF-SCS-MP2 Energies <==================
	-----------------------------------------------------------
	 SCS Same-Spin Scale       =       0.3333333333333333 [-]
	 SCS Opposite-Spin Scale   =       1.2000000000000000 [-]
	 SCS Same-Spin Energy      =      -0.1788162085303214 [Eh]
	 SCS Opposite-Spin Energy  =      -2.1007308520589154 [Eh]
	 SCS Correlation Energy    =      -2.2795470605892367 [Eh]
	 SCS Total Energy          =    -538.1924826203089651 [Eh]
	-----------------------------------------------------------

  Dipole Moment: [D]
     X:     0.3037      Y:     3.2001      Z:    -1.4257     Total:     3.5165

*** Psi4 exiting successfully. Buy a developer a beer!
