                               Psi4 1.3.2 release

  ==> Input File <==

--------------------------------------------------------------------------
#psi4
#
memory 32 gb

molecule  {
0 1
  O        0.0168640     0.1901590    -0.4020990
  O       -1.3063300    -1.6835180    -0.2393630
  O        1.1131790    -1.1413980     1.1162780
  C       -2.3394790     0.5235580    -0.2686750
  C        2.3972750     0.1605680    -0.4950760
  C       -1.2351570    -0.5035325    -0.2449554
  C        1.1581700    -0.3826440     0.1751130
  C       -3.6769720    -0.1720140    -0.4890940
  C       -2.2983330     1.2966310     1.0564140
  C        2.4741530     1.6802570    -0.2975580
  C        3.6385590    -0.5497050     0.0312540
  H       -2.1437190     1.2306780    -1.0846340
  H        2.2784230    -0.0395630    -1.5677780
  H       -4.4834260     0.5663220    -0.5092150
  H       -3.6860570    -0.7233770    -1.4323560
  H       -3.8736540    -0.8834450     0.3164790
  H       -3.1030040     2.0367670     1.0791630
  H       -2.4386000     0.6130600     1.8994820
  H       -1.3454850     1.8152510     1.1829620
  H        2.5408530     1.9208960     0.7682120
  H        1.5983600     2.1807600    -0.7147640
  H        3.3683510     2.0723810    -0.7901000
  H        3.7622080    -0.3606850     1.1004290
  H        4.5263690    -0.1854060    -0.4932010
  H        3.5668740    -1.6302420    -0.1114630
units angstrom
no_reorient  #important for SAPT in psi4, default
symmetry c1  #important for SAPT in psi4, default
}

set PROPERTIES_ORIGIN ["COM"]
properties('MP2/aug-cc-pvtz', properties = ['dipole'])
--------------------------------------------------------------------------

    Molecular point group: c1
  Charge       = 0
  Multiplicity = 1
  Basis Set: AUG-CC-PVTZ
    Blend: AUG-CC-PVTZ
  Basis Set: (AUG-CC-PVTZ AUX)
    Blend: AUG-CC-PVTZ-JKFIT

    Orbital Energies [Eh]
    ---------------------

    Doubly Occupied:

       1A    -20.615756     2A    -20.568779     3A    -20.556871
       4A    -11.393556     5A    -11.389968     6A    -11.260171
       7A    -11.256313     8A    -11.234845     9A    -11.233863
      10A    -11.225523    11A    -11.221598    12A     -1.476855
      13A     -1.413192    14A     -1.358106    15A     -1.107729
      16A     -1.094135    17A     -0.950227    18A     -0.945807
      19A     -0.929774    20A     -0.861920    21A     -0.784932
      22A     -0.736459    23A     -0.705991    24A     -0.700134
      25A     -0.675681    26A     -0.644954    27A     -0.631290
      28A     -0.614868    29A     -0.607529    30A     -0.575581
      31A     -0.566374    32A     -0.554558    33A     -0.550820
      34A     -0.539012    35A     -0.534051    36A     -0.530897
      37A     -0.503464    38A     -0.497303    39A     -0.494791
      40A     -0.491052    41A     -0.477567    42A     -0.467919
      43A     -0.431068

  @DF-RHF Final Energy:  -535.91155977311769

   => Energetics <=

    Nuclear Repulsion Energy =            648.5181131785094522
    One-Electron Energy =               -2018.0367835619756534
    Two-Electron Energy =                 833.6071106103483999
    Total Energy =                       -535.9115597731176877
  Basis Set: (AUG-CC-PVTZ AUX)
    Blend: AUG-CC-PVTZ-RI
    Molecular point group: c1

    Geometry (in Angstrom), charge = 0, multiplicity = 1:

       Center              X                  Y                   Z               Mass
    ------------   -----------------  -----------------  -----------------  -----------------
         O            0.022108780440     0.245976916691    -0.407438450974    15.994914619570
         O           -1.301085219560    -1.627700083309    -0.244702450974    15.994914619570
         O            1.118423780440    -1.085580083309     1.110938549026    15.994914619570
         C           -2.334234219560     0.579375916691    -0.274014450974    12.000000000000
         C            2.402519780440     0.216385916691    -0.500415450974    12.000000000000
         C           -1.229912219560    -0.447714583309    -0.250294850974    12.000000000000
         C            1.163414780440    -0.326826083309     0.169773549026    12.000000000000
         C           -3.671727219560    -0.116196083309    -0.494433450974    12.000000000000
         C           -2.293088219560     1.352448916691     1.051074549026    12.000000000000
         C            2.479397780440     1.736074916691    -0.302897450974    12.000000000000
         C            3.643803780440    -0.493887083309     0.025914549026    12.000000000000
         H           -2.138474219560     1.286495916691    -1.089973450974     1.007825032230
         H            2.283667780440     0.016254916691    -1.573117450974     1.007825032230
         H           -4.478181219560     0.622139916691    -0.514554450974     1.007825032230
         H           -3.680812219560    -0.667559083309    -1.437695450974     1.007825032230
         H           -3.868409219560    -0.827627083309     0.311139549026     1.007825032230
         H           -3.097759219560     2.092584916691     1.073823549026     1.007825032230
         H           -2.433355219560     0.668877916691     1.894142549026     1.007825032230
         H           -1.340240219560     1.871068916691     1.177622549026     1.007825032230
         H            2.546097780440     1.976713916691     0.762872549026     1.007825032230
         H            1.603604780440     2.236577916691    -0.720103450974     1.007825032230
         H            3.373595780440     2.128198916691    -0.795439450974     1.007825032230
         H            3.767452780440    -0.304867083309     1.095089549026     1.007825032230
         H            4.531613780440    -0.129588083309    -0.498540450974     1.007825032230
         H            3.572118780440    -1.574424083309    -0.116802450974     1.007825032230

  Basis Set: AUG-CC-PVTZ
    Blend: AUG-CC-PVTZ
  Basis Set: (AUG-CC-PVTZ AUX)
    Blend: AUG-CC-PVTZ-JKFIT
	 Reference Energy          =    -535.9115597731176877 [Eh]
	 Singles Energy            =      -0.0000000000000000 [Eh]
	 Same-Spin Energy          =      -0.5371847557639431 [Eh]
	 Opposite-Spin Energy      =      -1.7519309393960036 [Eh]
	 Correlation Energy        =      -2.2891156951599467 [Eh]
	 Total Energy              =    -538.2006754682776091 [Eh]

	 ================> DF-SCS-MP2 Energies <==================
	-----------------------------------------------------------
	 SCS Same-Spin Scale       =       0.3333333333333333 [-]
	 SCS Opposite-Spin Scale   =       1.2000000000000000 [-]
	 SCS Same-Spin Energy      =      -0.1790615852546477 [Eh]
	 SCS Opposite-Spin Energy  =      -2.1023171272752044 [Eh]
	 SCS Correlation Energy    =      -2.2813787125298521 [Eh]
	 SCS Total Energy          =    -538.1929384856475735 [Eh]
	-----------------------------------------------------------

  Dipole Moment: [D]
     X:    -0.1414      Y:     3.2495      Z:    -1.4110     Total:     3.5454

*** Psi4 exiting successfully. Buy a developer a beer!
