                               Psi4 1.3.2 release

  ==> Input File <==

--------------------------------------------------------------------------
#psi4
#
memory 32 gb

molecule  {
0 1
  O        0.0168640     0.1901590    -0.4020990
  O       -1.3063300    -1.6835180    -0.2393630
  O        1.1131790    -1.1413980     1.1162780
  C       -2.3394790     0.5235580    -0.2686750
  C        2.3972750     0.1605680    -0.4950760
  C       -1.2587534    -0.5266067    -0.2039367
  C        1.1581700    -0.3826440     0.1751130
  C       -3.6769720    -0.1720140    -0.4890940
  C       -2.2983330     1.2966310     1.0564140
  C        2.4741530     1.6802570    -0.2975580
  C        3.6385590    -0.5497050     0.0312540
  H       -2.1437190     1.2306780    -1.0846340
  H        2.2784230    -0.0395630    -1.5677780
  H       -4.4834260     0.5663220    -0.5092150
  H       -3.6860570    -0.7233770    -1.4323560
  H       -3.8736540    -0.8834450     0.3164790
  H       -3.1030040     2.0367670     1.0791630
  H       -2.4386000     0.6130600     1.8994820
  H       -1.3454850     1.8152510     1.1829620
  H        2.5408530     1.9208960     0.7682120
  H        1.5983600     2.1807600    -0.7147640
  H        3.3683510     2.0723810    -0.7901000
  H        3.7622080    -0.3606850     1.1004290
  H        4.5263690    -0.1854060    -0.4932010
  H        3.5668740    -1.6302420    -0.1114630
units angstrom
no_reorient  #important for SAPT in psi4, default
symmetry c1  #important for SAPT in psi4, default
}

set PROPERTIES_ORIGIN ["COM"]
properties('MP2/aug-cc-pvtz', properties = ['dipole'])
--------------------------------------------------------------------------

    Molecular point group: c1
  Charge       = 0
  Multiplicity = 1
  Basis Set: AUG-CC-PVTZ
    Blend: AUG-CC-PVTZ
  Basis Set: (AUG-CC-PVTZ AUX)
    Blend: AUG-CC-PVTZ-JKFIT

    Orbital Energies [Eh]
    ---------------------

    Doubly Occupied:

       1A    -20.607231     2A    -20.576218     3A    -20.552700
       4A    -11.393458     5A    -11.385153     6A    -11.262142
       7A    -11.253298     8A    -11.235236     9A    -11.231616
      10A    -11.227221    11A    -11.219543    12A     -1.478731
      13A     -1.421190    14A     -1.351542    15A     -1.108329
      16A     -1.092399    17A     -0.950752    18A     -0.943598
      19A     -0.923045    20A     -0.860471    21A     -0.778461
      22A     -0.738725    23A     -0.706968    24A     -0.697096
      25A     -0.677713    26A     -0.644058    27A     -0.632222
      28A     -0.614474    29A     -0.607544    30A     -0.575699
      31A     -0.565071    32A     -0.556003    33A     -0.549341
      34A     -0.541691    35A     -0.540057    36A     -0.529082
      37A     -0.504032    38A     -0.496931    39A     -0.495136
      40A     -0.489240    41A     -0.475017    42A     -0.466189
      43A     -0.428412

  @DF-RHF Final Energy:  -535.90640116832037

   => Energetics <=

    Nuclear Repulsion Energy =            648.4735116367064620
    One-Electron Energy =               -2017.9937593652662144
    Two-Electron Energy =                 833.6138465602393808
    Total Energy =                       -535.9064011683203717
  Basis Set: (AUG-CC-PVTZ AUX)
    Blend: AUG-CC-PVTZ-RI
    Molecular point group: c1

    Geometry (in Angstrom), charge = 0, multiplicity = 1:

       Center              X                  Y                   Z               Mass
    ------------   -----------------  -----------------  -----------------  -----------------
         O            0.023899843181     0.247728342328    -0.410551937151    15.994914619570
         O           -1.299294156819    -1.625948657672    -0.247815937151    15.994914619570
         O            1.120214843181    -1.083828657672     1.107825062849    15.994914619570
         C           -2.332443156819     0.581127342328    -0.277127937151    12.000000000000
         C            2.404310843181     0.218137342328    -0.503528937151    12.000000000000
         C           -1.251717556819    -0.469037357672    -0.212389637151    12.000000000000
         C            1.165205843181    -0.325074657672     0.166660062849    12.000000000000
         C           -3.669936156819    -0.114444657672    -0.497546937151    12.000000000000
         C           -2.291297156819     1.354200342328     1.047961062849    12.000000000000
         C            2.481188843181     1.737826342328    -0.306010937151    12.000000000000
         C            3.645594843181    -0.492135657672     0.022801062849    12.000000000000
         H           -2.136683156819     1.288247342328    -1.093086937151     1.007825032230
         H            2.285458843181     0.018006342328    -1.576230937151     1.007825032230
         H           -4.476390156819     0.623891342328    -0.517667937151     1.007825032230
         H           -3.679021156819    -0.665807657672    -1.440808937151     1.007825032230
         H           -3.866618156819    -0.825875657672     0.308026062849     1.007825032230
         H           -3.095968156819     2.094336342328     1.070710062849     1.007825032230
         H           -2.431564156819     0.670629342328     1.891029062849     1.007825032230
         H           -1.338449156819     1.872820342328     1.174509062849     1.007825032230
         H            2.547888843181     1.978465342328     0.759759062849     1.007825032230
         H            1.605395843181     2.238329342328    -0.723216937151     1.007825032230
         H            3.375386843181     2.129950342328    -0.798552937151     1.007825032230
         H            3.769243843181    -0.303115657672     1.091976062849     1.007825032230
         H            4.533404843181    -0.127836657672    -0.501653937151     1.007825032230
         H            3.573909843181    -1.572672657672    -0.119915937151     1.007825032230

  Basis Set: AUG-CC-PVTZ
    Blend: AUG-CC-PVTZ
  Basis Set: (AUG-CC-PVTZ AUX)
    Blend: AUG-CC-PVTZ-JKFIT
	 Reference Energy          =    -535.9064011683203717 [Eh]
	 Singles Energy            =      -0.0000000000000000 [Eh]
	 Same-Spin Energy          =      -0.5371864559960488 [Eh]
	 Opposite-Spin Energy      =      -1.7519505622190068 [Eh]
	 Correlation Energy        =      -2.2891370182150554 [Eh]
	 Total Energy              =    -538.1955381865353729 [Eh]

	 ================> DF-SCS-MP2 Energies <==================
	-----------------------------------------------------------
	 SCS Same-Spin Scale       =       0.3333333333333333 [-]
	 SCS Opposite-Spin Scale   =       1.2000000000000000 [-]
	 SCS Same-Spin Energy      =      -0.1790621519986829 [Eh]
	 SCS Opposite-Spin Energy  =      -2.1023406746628082 [Eh]
	 SCS Correlation Energy    =      -2.2814028266614912 [Eh]
	 SCS Total Energy          =    -538.1878039949818913 [Eh]
	-----------------------------------------------------------

  Dipole Moment: [D]
     X:    -0.4969      Y:     3.0986      Z:    -1.3947     Total:     3.4342

*** Psi4 exiting successfully. Buy a developer a beer!
