                               Psi4 1.3.2 release

  ==> Input File <==

--------------------------------------------------------------------------
#psi4
#
memory 32 gb

molecule  {
0 1
  O        0.0168640     0.1901590    -0.4020990
  O       -1.3063300    -1.6835180    -0.2393630
  O        1.1131790    -1.1413980     1.1162780
  C       -2.3394790     0.5235580    -0.2686750
  C        2.3972750     0.1605680    -0.4950760
  C       -1.3879694    -0.5744943    -0.2694762
  C        1.1581700    -0.3826440     0.1751130
  C       -3.6769720    -0.1720140    -0.4890940
  C       -2.2983330     1.2966310     1.0564140
  C        2.4741530     1.6802570    -0.2975580
  C        3.6385590    -0.5497050     0.0312540
  H       -2.1437190     1.2306780    -1.0846340
  H        2.2784230    -0.0395630    -1.5677780
  H       -4.4834260     0.5663220    -0.5092150
  H       -3.6860570    -0.7233770    -1.4323560
  H       -3.8736540    -0.8834450     0.3164790
  H       -3.1030040     2.0367670     1.0791630
  H       -2.4386000     0.6130600     1.8994820
  H       -1.3454850     1.8152510     1.1829620
  H        2.5408530     1.9208960     0.7682120
  H        1.5983600     2.1807600    -0.7147640
  H        3.3683510     2.0723810    -0.7901000
  H        3.7622080    -0.3606850     1.1004290
  H        4.5263690    -0.1854060    -0.4932010
  H        3.5668740    -1.6302420    -0.1114630
units angstrom
no_reorient  #important for SAPT in psi4, default
symmetry c1  #important for SAPT in psi4, default
}

set PROPERTIES_ORIGIN ["COM"]
properties('MP2/aug-cc-pvtz', properties = ['dipole'])
--------------------------------------------------------------------------

    Molecular point group: c1
  Charge       = 0
  Multiplicity = 1
  Basis Set: AUG-CC-PVTZ
    Blend: AUG-CC-PVTZ
  Basis Set: (AUG-CC-PVTZ AUX)
    Blend: AUG-CC-PVTZ-JKFIT

    Orbital Energies [Eh]
    ---------------------

    Doubly Occupied:

       1A    -20.601001     2A    -20.566531     3A    -20.534708
       4A    -11.400600     5A    -11.365585     6A    -11.273090
       7A    -11.243450     8A    -11.240917     9A    -11.237725
      10A    -11.221875    11A    -11.210658    12A     -1.510456
      13A     -1.406649    14A     -1.315634    15A     -1.127441
      16A     -1.081242    17A     -0.960103    18A     -0.933815
      19A     -0.915825    20A     -0.859443    21A     -0.767699
      22A     -0.744289    23A     -0.713492    24A     -0.684803
      25A     -0.677628    26A     -0.648178    27A     -0.629526
      28A     -0.613966    29A     -0.604464    30A     -0.574061
      31A     -0.570211    32A     -0.560441    33A     -0.550785
      34A     -0.546340    35A     -0.535512    36A     -0.521734
      37A     -0.512827    38A     -0.508533    39A     -0.485408
      40A     -0.478222    41A     -0.453848    42A     -0.451996
      43A     -0.416566

  @DF-RHF Final Energy:  -535.88259122540398

   => Energetics <=

    Nuclear Repulsion Energy =            647.6152553792068147
    One-Electron Energy =               -2016.4811354664977898
    Two-Electron Energy =                 832.9832888618868765
    Total Energy =                       -535.8825912254039849
  Basis Set: (AUG-CC-PVTZ AUX)
    Blend: AUG-CC-PVTZ-RI
    Molecular point group: c1

    Geometry (in Angstrom), charge = 0, multiplicity = 1:

       Center              X                  Y                   Z               Mass
    ------------   -----------------  -----------------  -----------------  -----------------
         O            0.033707863178     0.251363205955    -0.405577222513    15.994914619570
         O           -1.289486136822    -1.622313794045    -0.242841222513    15.994914619570
         O            1.130022863178    -1.080193794045     1.112799777487    15.994914619570
         C           -2.322635136822     0.584762205955    -0.272153222513    12.000000000000
         C            2.414118863178     0.221772205955    -0.498554222513    12.000000000000
         C           -1.371125536822    -0.513290094045    -0.272954422513    12.000000000000
         C            1.175013863178    -0.321439794045     0.171634777487    12.000000000000
         C           -3.660128136822    -0.110809794045    -0.492572222513    12.000000000000
         C           -2.281489136822     1.357835205955     1.052935777487    12.000000000000
         C            2.490996863178     1.741461205955    -0.301036222513    12.000000000000
         C            3.655402863178    -0.488500794045     0.027775777487    12.000000000000
         H           -2.126875136822     1.291882205955    -1.088112222513     1.007825032230
         H            2.295266863178     0.021641205955    -1.571256222513     1.007825032230
         H           -4.466582136822     0.627526205955    -0.512693222513     1.007825032230
         H           -3.669213136822    -0.662172794045    -1.435834222513     1.007825032230
         H           -3.856810136822    -0.822240794045     0.313000777487     1.007825032230
         H           -3.086160136822     2.097971205955     1.075684777487     1.007825032230
         H           -2.421756136822     0.674264205955     1.896003777487     1.007825032230
         H           -1.328641136822     1.876455205955     1.179483777487     1.007825032230
         H            2.557696863178     1.982100205955     0.764733777487     1.007825032230
         H            1.615203863178     2.241964205955    -0.718242222513     1.007825032230
         H            3.385194863178     2.133585205955    -0.793578222513     1.007825032230
         H            3.779051863178    -0.299480794045     1.096950777487     1.007825032230
         H            4.543212863178    -0.124201794045    -0.496679222513     1.007825032230
         H            3.583717863178    -1.569037794045    -0.114941222513     1.007825032230

  Basis Set: AUG-CC-PVTZ
    Blend: AUG-CC-PVTZ
  Basis Set: (AUG-CC-PVTZ AUX)
    Blend: AUG-CC-PVTZ-JKFIT
	 Reference Energy          =    -535.8825912254039849 [Eh]
	 Singles Energy            =      -0.0000000000000000 [Eh]
	 Same-Spin Energy          =      -0.5381984670419049 [Eh]
	 Opposite-Spin Energy      =      -1.7528817040447902 [Eh]
	 Correlation Energy        =      -2.2910801710866950 [Eh]
	 Total Energy              =    -538.1736713964907040 [Eh]

	 ================> DF-SCS-MP2 Energies <==================
	-----------------------------------------------------------
	 SCS Same-Spin Scale       =       0.3333333333333333 [-]
	 SCS Opposite-Spin Scale   =       1.2000000000000000 [-]
	 SCS Same-Spin Energy      =      -0.1793994890139683 [Eh]
	 SCS Opposite-Spin Energy  =      -2.1034580448537481 [Eh]
	 SCS Correlation Energy    =      -2.2828575338677162 [Eh]
	 SCS Total Energy          =    -538.1654487592717260 [Eh]
	-----------------------------------------------------------

  Dipole Moment: [D]
     X:    -2.0790      Y:     2.7725      Z:    -1.4907     Total:     3.7724

*** Psi4 exiting successfully. Buy a developer a beer!
