                               Psi4 1.3.2 release

  ==> Input File <==

--------------------------------------------------------------------------
#psi4
#
memory 32 gb

molecule  {
0 1
  O        0.0606645     0.1024221    -0.4025755
  O       -1.3063300    -1.6835180    -0.2393630
  O        1.1131790    -1.1413980     1.1162780
  C       -2.3394790     0.5235580    -0.2686750
  C        2.3972750     0.1605680    -0.4950760
  C       -1.2129060    -0.4792070    -0.2860030
  C        1.1581700    -0.3826440     0.1751130
  C       -3.6769720    -0.1720140    -0.4890940
  C       -2.2983330     1.2966310     1.0564140
  C        2.4741530     1.6802570    -0.2975580
  C        3.6385590    -0.5497050     0.0312540
  H       -2.1437190     1.2306780    -1.0846340
  H        2.2784230    -0.0395630    -1.5677780
  H       -4.4834260     0.5663220    -0.5092150
  H       -3.6860570    -0.7233770    -1.4323560
  H       -3.8736540    -0.8834450     0.3164790
  H       -3.1030040     2.0367670     1.0791630
  H       -2.4386000     0.6130600     1.8994820
  H       -1.3454850     1.8152510     1.1829620
  H        2.5408530     1.9208960     0.7682120
  H        1.5983600     2.1807600    -0.7147640
  H        3.3683510     2.0723810    -0.7901000
  H        3.7622080    -0.3606850     1.1004290
  H        4.5263690    -0.1854060    -0.4932010
  H        3.5668740    -1.6302420    -0.1114630
units angstrom
no_reorient  #important for SAPT in psi4, default
symmetry c1  #important for SAPT in psi4, default
}

set PROPERTIES_ORIGIN ["COM"]
properties('MP2/aug-cc-pvtz', properties = ['dipole'])
--------------------------------------------------------------------------

    Molecular point group: c1
  Charge       = 0
  Multiplicity = 1
  Basis Set: AUG-CC-PVTZ
    Blend: AUG-CC-PVTZ
  Basis Set: (AUG-CC-PVTZ AUX)
    Blend: AUG-CC-PVTZ-JKFIT

    Orbital Energies [Eh]
    ---------------------

    Doubly Occupied:

       1A    -20.622884     2A    -20.562889     3A    -20.545691
       4A    -11.399030     5A    -11.384383     6A    -11.266036
       7A    -11.254676     8A    -11.238691     9A    -11.234142
      10A    -11.228490    11A    -11.220201    12A     -1.499101
      13A     -1.400408    14A     -1.357610    15A     -1.110797
      16A     -1.095324    17A     -0.959540    18A     -0.948399
      19A     -0.941492    20A     -0.864923    21A     -0.804255
      22A     -0.734103    23A     -0.711163    24A     -0.700468
      25A     -0.679521    26A     -0.644525    27A     -0.633315
      28A     -0.615052    29A     -0.606849    30A     -0.575412
      31A     -0.569078    32A     -0.556043    33A     -0.550481
      34A     -0.538761    35A     -0.529124    36A     -0.524855
      37A     -0.505729    38A     -0.498661    39A     -0.495962
      40A     -0.489532    41A     -0.471262    42A     -0.467256
      43A     -0.432182

  @DF-RHF Final Energy:  -535.91339404062546

   => Energetics <=

    Nuclear Repulsion Energy =            649.8787519460840940
    One-Electron Energy =               -2020.6476999920457729
    Two-Electron Energy =                 834.8555540053362165
    Total Energy =                       -535.9133940406254624
  Basis Set: (AUG-CC-PVTZ AUX)
    Blend: AUG-CC-PVTZ-RI
    Molecular point group: c1

    Geometry (in Angstrom), charge = 0, multiplicity = 1:

       Center              X                  Y                   Z               Mass
    ------------   -----------------  -----------------  -----------------  -----------------
         O            0.059788899803     0.165270240200    -0.404751062112    15.994914619570
         O           -1.307205600197    -1.620669859800    -0.241538562112    15.994914619570
         O            1.112303399803    -1.078549859800     1.114102437888    15.994914619570
         C           -2.340354600197     0.586406140200    -0.270850562112    12.000000000000
         C            2.396399399803     0.223416140200    -0.497251562112    12.000000000000
         C           -1.213781600197    -0.416358859800    -0.288178562112    12.000000000000
         C            1.157294399803    -0.319795859800     0.172937437888    12.000000000000
         C           -3.677847600197    -0.109165859800    -0.491269562112    12.000000000000
         C           -2.299208600197     1.359479140200     1.054238437888    12.000000000000
         C            2.473277399803     1.743105140200    -0.299733562112    12.000000000000
         C            3.637683399803    -0.486856859800     0.029078437888    12.000000000000
         H           -2.144594600197     1.293526140200    -1.086809562112     1.007825032230
         H            2.277547399803     0.023285140200    -1.569953562112     1.007825032230
         H           -4.484301600197     0.629170140200    -0.511390562112     1.007825032230
         H           -3.686932600197    -0.660528859800    -1.434531562112     1.007825032230
         H           -3.874529600197    -0.820596859800     0.314303437888     1.007825032230
         H           -3.103879600197     2.099615140200     1.076987437888     1.007825032230
         H           -2.439475600197     0.675908140200     1.897306437888     1.007825032230
         H           -1.346360600197     1.878099140200     1.180786437888     1.007825032230
         H            2.539977399803     1.983744140200     0.766036437888     1.007825032230
         H            1.597484399803     2.243608140200    -0.716939562112     1.007825032230
         H            3.367475399803     2.135229140200    -0.792275562112     1.007825032230
         H            3.761332399803    -0.297836859800     1.098253437888     1.007825032230
         H            4.525493399803    -0.122557859800    -0.495376562112     1.007825032230
         H            3.565998399803    -1.567393859800    -0.113638562112     1.007825032230

  Basis Set: AUG-CC-PVTZ
    Blend: AUG-CC-PVTZ
  Basis Set: (AUG-CC-PVTZ AUX)
    Blend: AUG-CC-PVTZ-JKFIT
	 Reference Energy          =    -535.9133940406254624 [Eh]
	 Singles Energy            =      -0.0000000000000000 [Eh]
	 Same-Spin Energy          =      -0.5362510785293202 [Eh]
	 Opposite-Spin Energy      =      -1.7492996726729526 [Eh]
	 Correlation Energy        =      -2.2855507512022726 [Eh]
	 Total Energy              =    -538.1989447918277847 [Eh]

	 ================> DF-SCS-MP2 Energies <==================
	-----------------------------------------------------------
	 SCS Same-Spin Scale       =       0.3333333333333333 [-]
	 SCS Opposite-Spin Scale   =       1.2000000000000000 [-]
	 SCS Same-Spin Energy      =      -0.1787503595097734 [Eh]
	 SCS Opposite-Spin Energy  =      -2.0991596072075431 [Eh]
	 SCS Correlation Energy    =      -2.2779099667173166 [Eh]
	 SCS Total Energy          =    -538.1913040073427510 [Eh]
	-----------------------------------------------------------

  Dipole Moment: [D]
     X:    -0.3870      Y:     3.6047      Z:    -1.5636     Total:     3.9482

*** Psi4 exiting successfully. Buy a developer a beer!
