                               Psi4 1.3.2 release

  ==> Input File <==

--------------------------------------------------------------------------
#psi4
#
memory 32 gb

molecule  {
0 1
  O        0.0168640     0.1901590    -0.4020990
  O       -1.3063300    -1.6835180    -0.2393630
  O        1.1131790    -1.1413980     1.1162780
  C       -2.3394790     0.5235580    -0.2686750
  C        2.3972750     0.1605680    -0.4950760
  C       -1.2875970    -0.4127244    -0.2848542
  C        1.1581700    -0.3826440     0.1751130
  C       -3.6769720    -0.1720140    -0.4890940
  C       -2.2983330     1.2966310     1.0564140
  C        2.4741530     1.6802570    -0.2975580
  C        3.6385590    -0.5497050     0.0312540
  H       -2.1437190     1.2306780    -1.0846340
  H        2.2784230    -0.0395630    -1.5677780
  H       -4.4834260     0.5663220    -0.5092150
  H       -3.6860570    -0.7233770    -1.4323560
  H       -3.8736540    -0.8834450     0.3164790
  H       -3.1030040     2.0367670     1.0791630
  H       -2.4386000     0.6130600     1.8994820
  H       -1.3454850     1.8152510     1.1829620
  H        2.5408530     1.9208960     0.7682120
  H        1.5983600     2.1807600    -0.7147640
  H        3.3683510     2.0723810    -0.7901000
  H        3.7622080    -0.3606850     1.1004290
  H        4.5263690    -0.1854060    -0.4932010
  H        3.5668740    -1.6302420    -0.1114630
units angstrom
no_reorient  #important for SAPT in psi4, default
symmetry c1  #important for SAPT in psi4, default
}

set PROPERTIES_ORIGIN ["COM"]
properties('MP2/aug-cc-pvtz', properties = ['dipole'])
--------------------------------------------------------------------------

    Molecular point group: c1
  Charge       = 0
  Multiplicity = 1
  Basis Set: AUG-CC-PVTZ
    Blend: AUG-CC-PVTZ
  Basis Set: (AUG-CC-PVTZ AUX)
    Blend: AUG-CC-PVTZ-JKFIT

    Orbital Energies [Eh]
    ---------------------

    Doubly Occupied:

       1A    -20.616185     2A    -20.558590     3A    -20.554681
       4A    -11.404202     5A    -11.390443     6A    -11.262145
       7A    -11.256702     8A    -11.243370     9A    -11.233800
      10A    -11.230852    11A    -11.221367    12A     -1.463404
      13A     -1.382348    14A     -1.332967    15A     -1.128370
      16A     -1.096640    17A     -0.956673    18A     -0.948194
      19A     -0.938986    20A     -0.875017    21A     -0.789882
      22A     -0.733445    23A     -0.702704    24A     -0.698310
      25A     -0.664128    26A     -0.641055    27A     -0.633582
      28A     -0.613284    29A     -0.602159    30A     -0.572915
      31A     -0.567379    32A     -0.557813    33A     -0.550193
      34A     -0.541255    35A     -0.528920    36A     -0.522603
      37A     -0.506774    38A     -0.499486    39A     -0.494615
      40A     -0.487010    41A     -0.465133    42A     -0.462132
      43A     -0.435541

  @DF-RHF Final Energy:  -535.88857855326364

   => Energetics <=

    Nuclear Repulsion Energy =            647.9436226123517599
    One-Electron Energy =               -2016.9338940652055499
    Two-Electron Energy =                 833.1016928995902617
    Total Energy =                       -535.8885785532636419
  Basis Set: (AUG-CC-PVTZ AUX)
    Blend: AUG-CC-PVTZ-RI
    Molecular point group: c1

    Geometry (in Angstrom), charge = 0, multiplicity = 1:

       Center              X                  Y                   Z               Mass
    ------------   -----------------  -----------------  -----------------  -----------------
         O            0.026089189744     0.239084212532    -0.404409969762    15.994914619570
         O           -1.297104810256    -1.634592787468    -0.241673969762    15.994914619570
         O            1.122404189744    -1.092472787468     1.113967030238    15.994914619570
         C           -2.330253810256     0.572483212532    -0.270985969762    12.000000000000
         C            2.406500189744     0.209493212532    -0.497386969762    12.000000000000
         C           -1.278371810256    -0.363799187468    -0.287165169762    12.000000000000
         C            1.167395189744    -0.333718787468     0.172802030238    12.000000000000
         C           -3.667746810256    -0.123088787468    -0.491404969762    12.000000000000
         C           -2.289107810256     1.345556212532     1.054103030238    12.000000000000
         C            2.483378189744     1.729182212532    -0.299868969762    12.000000000000
         C            3.647784189744    -0.500779787468     0.028943030238    12.000000000000
         H           -2.134493810256     1.279603212532    -1.086944969762     1.007825032230
         H            2.287648189744     0.009362212532    -1.570088969762     1.007825032230
         H           -4.474200810256     0.615247212532    -0.511525969762     1.007825032230
         H           -3.676831810256    -0.674451787468    -1.434666969762     1.007825032230
         H           -3.864428810256    -0.834519787468     0.314168030238     1.007825032230
         H           -3.093778810256     2.085692212532     1.076852030238     1.007825032230
         H           -2.429374810256     0.661985212532     1.897171030238     1.007825032230
         H           -1.336259810256     1.864176212532     1.180651030238     1.007825032230
         H            2.550078189744     1.969821212532     0.765901030238     1.007825032230
         H            1.607585189744     2.229685212532    -0.717074969762     1.007825032230
         H            3.377576189744     2.121306212532    -0.792410969762     1.007825032230
         H            3.771433189744    -0.311759787468     1.098118030238     1.007825032230
         H            4.535594189744    -0.136480787468    -0.495511969762     1.007825032230
         H            3.576099189744    -1.581316787468    -0.113773969762     1.007825032230

  Basis Set: AUG-CC-PVTZ
    Blend: AUG-CC-PVTZ
  Basis Set: (AUG-CC-PVTZ AUX)
    Blend: AUG-CC-PVTZ-JKFIT
	 Reference Energy          =    -535.8885785532636419 [Eh]
	 Singles Energy            =      -0.0000000000000000 [Eh]
	 Same-Spin Energy          =      -0.5404917872389183 [Eh]
	 Opposite-Spin Energy      =      -1.7581079863799045 [Eh]
	 Correlation Energy        =      -2.2985997736188226 [Eh]
	 Total Energy              =    -538.1871783268824174 [Eh]

	 ================> DF-SCS-MP2 Energies <==================
	-----------------------------------------------------------
	 SCS Same-Spin Scale       =       0.3333333333333333 [-]
	 SCS Opposite-Spin Scale   =       1.2000000000000000 [-]
	 SCS Same-Spin Energy      =      -0.1801639290796394 [Eh]
	 SCS Opposite-Spin Energy  =      -2.1097295836558851 [Eh]
	 SCS Correlation Energy    =      -2.2898935127355244 [Eh]
	 SCS Total Energy          =    -538.1784720659991308 [Eh]
	-----------------------------------------------------------

  Dipole Moment: [D]
     X:    -0.3862      Y:     3.7328      Z:    -1.3823     Total:     3.9992

*** Psi4 exiting successfully. Buy a developer a beer!
