                               Psi4 1.3.2 release

  ==> Input File <==

--------------------------------------------------------------------------
#psi4
#
memory 32 gb

molecule  {
0 1
  O        0.0168640     0.1901590    -0.4020990
  O       -1.3063300    -1.6835180    -0.2393630
  O        1.1131790    -1.1413980     1.1162780
  C       -2.3394790     0.5235580    -0.2686750
  C        2.3972750     0.1605680    -0.4950760
  C       -1.1957619    -0.4596729    -0.2818209
  C        1.1581700    -0.3826440     0.1751130
  C       -3.6769720    -0.1720140    -0.4890940
  C       -2.2983330     1.2966310     1.0564140
  C        2.4741530     1.6802570    -0.2975580
  C        3.6385590    -0.5497050     0.0312540
  H       -2.1437190     1.2306780    -1.0846340
  H        2.2784230    -0.0395630    -1.5677780
  H       -4.4834260     0.5663220    -0.5092150
  H       -3.6860570    -0.7233770    -1.4323560
  H       -3.8736540    -0.8834450     0.3164790
  H       -3.1030040     2.0367670     1.0791630
  H       -2.4386000     0.6130600     1.8994820
  H       -1.3454850     1.8152510     1.1829620
  H        2.5408530     1.9208960     0.7682120
  H        1.5983600     2.1807600    -0.7147640
  H        3.3683510     2.0723810    -0.7901000
  H        3.7622080    -0.3606850     1.1004290
  H        4.5263690    -0.1854060    -0.4932010
  H        3.5668740    -1.6302420    -0.1114630
units angstrom
no_reorient  #important for SAPT in psi4, default
symmetry c1  #important for SAPT in psi4, default
}

set PROPERTIES_ORIGIN ["COM"]
properties('MP2/aug-cc-pvtz', properties = ['dipole'])
--------------------------------------------------------------------------

    Molecular point group: c1
  Charge       = 0
  Multiplicity = 1
  Basis Set: AUG-CC-PVTZ
    Blend: AUG-CC-PVTZ
  Basis Set: (AUG-CC-PVTZ AUX)
    Blend: AUG-CC-PVTZ-JKFIT

    Orbital Energies [Eh]
    ---------------------

    Doubly Occupied:

       1A    -20.629576     2A    -20.563684     3A    -20.556374
       4A    -11.397816     5A    -11.394804     6A    -11.261163
       7A    -11.258139     8A    -11.237527     9A    -11.234344
      10A    -11.224894    11A    -11.223236    12A     -1.487680
      13A     -1.396097    14A     -1.356910    15A     -1.109416
      16A     -1.095386    17A     -0.955158    18A     -0.946845
      19A     -0.939278    20A     -0.864266    21A     -0.795934
      22A     -0.736794    23A     -0.708115    24A     -0.701983
      25A     -0.675809    26A     -0.645763    27A     -0.628752
      28A     -0.616958    29A     -0.605422    30A     -0.576432
      31A     -0.568159    32A     -0.555015    33A     -0.551444
      34A     -0.535861    35A     -0.532791    36A     -0.525164
      37A     -0.503113    38A     -0.499337    39A     -0.495736
      40A     -0.491105    41A     -0.473952    42A     -0.468561
      43A     -0.432926

  @DF-RHF Final Energy:  -535.91002611277236

   => Energetics <=

    Nuclear Repulsion Energy =            648.6427840216117602
    One-Electron Energy =               -2018.1901845088113987
    Two-Electron Energy =                 833.6373743744272815
    Total Energy =                       -535.9100261127723570
  Basis Set: (AUG-CC-PVTZ AUX)
    Blend: AUG-CC-PVTZ-RI
    Molecular point group: c1

    Geometry (in Angstrom), charge = 0, multiplicity = 1:

       Center              X                  Y                   Z               Mass
    ------------   -----------------  -----------------  -----------------  -----------------
         O            0.019118532107     0.242647794649    -0.404640209570    15.994914619570
         O           -1.304075467893    -1.631029205351    -0.241904209570    15.994914619570
         O            1.115433532107    -1.088909205351     1.113736790430    15.994914619570
         C           -2.337224467893     0.576046794649    -0.271216209570    12.000000000000
         C            2.399529532107     0.213056794649    -0.497617209570    12.000000000000
         C           -1.193507367893    -0.407184105351    -0.284362109570    12.000000000000
         C            1.160424532107    -0.330155205351     0.172571790430    12.000000000000
         C           -3.674717467893    -0.119525205351    -0.491635209570    12.000000000000
         C           -2.296078467893     1.349119794649     1.053872790430    12.000000000000
         C            2.476407532107     1.732745794649    -0.300099209570    12.000000000000
         C            3.640813532107    -0.497216205351     0.028712790430    12.000000000000
         H           -2.141464467893     1.283166794649    -1.087175209570     1.007825032230
         H            2.280677532107     0.012925794649    -1.570319209570     1.007825032230
         H           -4.481171467893     0.618810794649    -0.511756209570     1.007825032230
         H           -3.683802467893    -0.670888205351    -1.434897209570     1.007825032230
         H           -3.871399467893    -0.830956205351     0.313937790430     1.007825032230
         H           -3.100749467893     2.089255794649     1.076621790430     1.007825032230
         H           -2.436345467893     0.665548794649     1.896940790430     1.007825032230
         H           -1.343230467893     1.867739794649     1.180420790430     1.007825032230
         H            2.543107532107     1.973384794649     0.765670790430     1.007825032230
         H            1.600614532107     2.233248794649    -0.717305209570     1.007825032230
         H            3.370605532107     2.124869794649    -0.792641209570     1.007825032230
         H            3.764462532107    -0.308196205351     1.097887790430     1.007825032230
         H            4.528623532107    -0.132917205351    -0.495742209570     1.007825032230
         H            3.569128532107    -1.577753205351    -0.114004209570     1.007825032230

  Basis Set: AUG-CC-PVTZ
    Blend: AUG-CC-PVTZ
  Basis Set: (AUG-CC-PVTZ AUX)
    Blend: AUG-CC-PVTZ-JKFIT
	 Reference Energy          =    -535.9100261127723570 [Eh]
	 Singles Energy            =      -0.0000000000000000 [Eh]
	 Same-Spin Energy          =      -0.5377183631688697 [Eh]
	 Opposite-Spin Energy      =      -1.7530630992096745 [Eh]
	 Correlation Energy        =      -2.2907814623785443 [Eh]
	 Total Energy              =    -538.2008075751508613 [Eh]

	 ================> DF-SCS-MP2 Energies <==================
	-----------------------------------------------------------
	 SCS Same-Spin Scale       =       0.3333333333333333 [-]
	 SCS Opposite-Spin Scale   =       1.2000000000000000 [-]
	 SCS Same-Spin Energy      =      -0.1792394543896232 [Eh]
	 SCS Opposite-Spin Energy  =      -2.1036757190516093 [Eh]
	 SCS Correlation Energy    =      -2.2829151734412325 [Eh]
	 SCS Total Energy          =    -538.1929412862135678 [Eh]
	-----------------------------------------------------------

  Dipole Moment: [D]
     X:     0.4187      Y:     3.5116      Z:    -1.4052     Total:     3.8055

*** Psi4 exiting successfully. Buy a developer a beer!
