                               Psi4 1.3.2 release

  ==> Input File <==

--------------------------------------------------------------------------
#psi4
#
memory 32 gb

molecule  {
0 1
  O        0.0168640     0.1901590    -0.4020990
  O       -1.3063300    -1.6835180    -0.2393630
  O        1.1131790    -1.1413980     1.1162780
  C       -2.3394790     0.5235580    -0.2686750
  C        2.3972750     0.1605680    -0.4950760
  C       -1.2536674    -0.4059637    -0.3368989
  C        1.1581700    -0.3826440     0.1751130
  C       -3.6769720    -0.1720140    -0.4890940
  C       -2.2983330     1.2966310     1.0564140
  C        2.4741530     1.6802570    -0.2975580
  C        3.6385590    -0.5497050     0.0312540
  H       -2.1437190     1.2306780    -1.0846340
  H        2.2784230    -0.0395630    -1.5677780
  H       -4.4834260     0.5663220    -0.5092150
  H       -3.6860570    -0.7233770    -1.4323560
  H       -3.8736540    -0.8834450     0.3164790
  H       -3.1030040     2.0367670     1.0791630
  H       -2.4386000     0.6130600     1.8994820
  H       -1.3454850     1.8152510     1.1829620
  H        2.5408530     1.9208960     0.7682120
  H        1.5983600     2.1807600    -0.7147640
  H        3.3683510     2.0723810    -0.7901000
  H        3.7622080    -0.3606850     1.1004290
  H        4.5263690    -0.1854060    -0.4932010
  H        3.5668740    -1.6302420    -0.1114630
units angstrom
no_reorient  #important for SAPT in psi4, default
symmetry c1  #important for SAPT in psi4, default
}

set PROPERTIES_ORIGIN ["COM"]
properties('MP2/aug-cc-pvtz', properties = ['dipole'])
--------------------------------------------------------------------------

    Molecular point group: c1
  Charge       = 0
  Multiplicity = 1
  Basis Set: AUG-CC-PVTZ
    Blend: AUG-CC-PVTZ
  Basis Set: (AUG-CC-PVTZ AUX)
    Blend: AUG-CC-PVTZ-JKFIT

    Orbital Energies [Eh]
    ---------------------

    Doubly Occupied:

       1A    -20.623516     2A    -20.559371     3A    -20.553426
       4A    -11.402767     5A    -11.395273     6A    -11.261023
       7A    -11.259583     8A    -11.241247     9A    -11.235956
      10A    -11.228107    11A    -11.223401    12A     -1.473981
      13A     -1.384996    14A     -1.329744    15A     -1.121300
      16A     -1.099053    17A     -0.956516    18A     -0.949780
      19A     -0.941901    20A     -0.874785    21A     -0.797248
      22A     -0.731689    23A     -0.702620    24A     -0.702376
      25A     -0.667556    26A     -0.642093    27A     -0.632115
      28A     -0.614102    29A     -0.601348    30A     -0.573173
      31A     -0.569049    32A     -0.555634    33A     -0.552171
      34A     -0.538624    35A     -0.531022    36A     -0.521621
      37A     -0.504447    38A     -0.500458    39A     -0.495624
      40A     -0.488374    41A     -0.465375    42A     -0.459605
      43A     -0.436510

  @DF-RHF Final Energy:  -535.89081501374199

   => Energetics <=

    Nuclear Repulsion Energy =            647.9540029161985331
    One-Electron Energy =               -2016.8925168234313787
    Two-Electron Energy =                 833.0476988934908604
    Total Energy =                       -535.8908150137419852
  Basis Set: (AUG-CC-PVTZ AUX)
    Blend: AUG-CC-PVTZ-RI
    Molecular point group: c1

    Geometry (in Angstrom), charge = 0, multiplicity = 1:

       Center              X                  Y                   Z               Mass
    ------------   -----------------  -----------------  -----------------  -----------------
         O            0.023513795093     0.238571047902    -0.400459565336    15.994914619570
         O           -1.299680204907    -1.635105952098    -0.237723565336    15.994914619570
         O            1.119828795093    -1.092985952098     1.117917434664    15.994914619570
         C           -2.332829204907     0.571970047902    -0.267035565336    12.000000000000
         C            2.403924795093     0.208980047902    -0.493436565336    12.000000000000
         C           -1.247017604907    -0.357551652098    -0.335259465336    12.000000000000
         C            1.164819795093    -0.334231952098     0.176752434664    12.000000000000
         C           -3.670322204907    -0.123601952098    -0.487454565336    12.000000000000
         C           -2.291683204907     1.345043047902     1.058053434664    12.000000000000
         C            2.480802795093     1.728669047902    -0.295918565336    12.000000000000
         C            3.645208795093    -0.501292952098     0.032893434664    12.000000000000
         H           -2.137069204907     1.279090047902    -1.082994565336     1.007825032230
         H            2.285072795093     0.008849047902    -1.566138565336     1.007825032230
         H           -4.476776204907     0.614734047902    -0.507575565336     1.007825032230
         H           -3.679407204907    -0.674964952098    -1.430716565336     1.007825032230
         H           -3.867004204907    -0.835032952098     0.318118434664     1.007825032230
         H           -3.096354204907     2.085179047902     1.080802434664     1.007825032230
         H           -2.431950204907     0.661472047902     1.901121434664     1.007825032230
         H           -1.338835204907     1.863663047902     1.184601434664     1.007825032230
         H            2.547502795093     1.969308047902     0.769851434664     1.007825032230
         H            1.605009795093     2.229172047902    -0.713124565336     1.007825032230
         H            3.375000795093     2.120793047902    -0.788460565336     1.007825032230
         H            3.768857795093    -0.312272952098     1.102068434664     1.007825032230
         H            4.533018795093    -0.136993952098    -0.491561565336     1.007825032230
         H            3.573523795093    -1.581829952098    -0.109823565336     1.007825032230

  Basis Set: AUG-CC-PVTZ
    Blend: AUG-CC-PVTZ
  Basis Set: (AUG-CC-PVTZ AUX)
    Blend: AUG-CC-PVTZ-JKFIT
	 Reference Energy          =    -535.8908150137419852 [Eh]
	 Singles Energy            =      -0.0000000000000000 [Eh]
	 Same-Spin Energy          =      -0.5400799330944813 [Eh]
	 Opposite-Spin Energy      =      -1.7575135508010726 [Eh]
	 Correlation Energy        =      -2.2975934838955538 [Eh]
	 Total Energy              =    -538.1884084976375107 [Eh]

	 ================> DF-SCS-MP2 Energies <==================
	-----------------------------------------------------------
	 SCS Same-Spin Scale       =       0.3333333333333333 [-]
	 SCS Opposite-Spin Scale   =       1.2000000000000000 [-]
	 SCS Same-Spin Energy      =      -0.1800266443648271 [Eh]
	 SCS Opposite-Spin Energy  =      -2.1090162609612872 [Eh]
	 SCS Correlation Energy    =      -2.2890429053261143 [Eh]
	 SCS Total Energy          =    -538.1798579190681266 [Eh]
	-----------------------------------------------------------

  Dipole Moment: [D]
     X:     0.0206      Y:     3.7684      Z:    -1.4042     Total:     4.0216

*** Psi4 exiting successfully. Buy a developer a beer!
