                               Psi4 1.4a3.dev225

  ==> Input File <==

--------------------------------------------------------------------------
#psi4
#
memory 32 gb

molecule  {
0 1
  O        0.0168770     0.1900940    -0.4022940
  O       -1.3063670    -1.6835610    -0.2394920
  O        1.1130200    -1.1412560     1.1163620
  C       -2.3394820     0.5235460    -0.2686790
  C        2.3972900     0.1604980    -0.4950420
  C       -1.2144907    -0.4991813    -0.2853328
  C        1.1580970    -0.3826160     0.1751030
  C       -3.6770470    -0.1720400    -0.4887310
  C       -2.2980570     1.2968550     1.0562380
  C        2.4742070     1.6801910    -0.2976680
  C        3.6385230    -0.5497820     0.0314390
  H       -2.1438530     1.2305020    -1.0848160
  H        2.2785110    -0.0397390    -1.5677300
  H       -4.4835100     0.5662920    -0.5086310
  H       -3.6863850    -0.7233940    -1.4319940
  H       -3.8734940    -0.8834740     0.3168940
  H       -3.1026030     2.0371270     1.0789400
  H       -2.4383350     0.6134670     1.8994540
  H       -1.3451120     1.8153510     1.1825900
  H        2.5409520     1.9209190     0.7680790
  H        1.5984060     2.1806800    -0.7148800
  H        3.3683910     2.0722630    -0.7902800
  H        3.7619980    -0.3608140     1.1006380
  H        4.5264120    -0.1854560    -0.4928670
  H        3.5668710    -1.6303120    -0.1113440
units angstrom
no_reorient  #important for SAPT in psi4, default
symmetry c1  #important for SAPT in psi4, default
}

set PROPERTIES_ORIGIN ["COM"]
properties('MP2/aug-cc-pvtz', properties = ['dipole'])
--------------------------------------------------------------------------

    Molecular point group: c1
  Charge       = 0
  Multiplicity = 1
  Basis Set: AUG-CC-PVTZ
    Blend: AUG-CC-PVTZ
  Basis Set: (AUG-CC-PVTZ AUX)
    Blend: AUG-CC-PVTZ-JKFIT

    Orbital Energies [Eh]
    ---------------------

    Doubly Occupied:

       1A    -20.620633     2A    -20.565131     3A    -20.559820
       4A    -11.392992     5A    -11.392665     6A    -11.258784
       7A    -11.258185     8A    -11.235259     9A    -11.233866
      10A    -11.223859    11A    -11.222910    12A     -1.481017
      13A     -1.410204    14A     -1.362464    15A     -1.106536
      16A     -1.093551    17A     -0.950580    18A     -0.946079
      19A     -0.933439    20A     -0.861412    21A     -0.789110
      22A     -0.736055    23A     -0.705969    24A     -0.701610
      25A     -0.676466    26A     -0.645602    27A     -0.630756
      28A     -0.615389    29A     -0.607426    30A     -0.576065
      31A     -0.566881    32A     -0.553656    33A     -0.551674
      34A     -0.537874    35A     -0.532190    36A     -0.531570
      37A     -0.502866    38A     -0.497864    39A     -0.494098
      40A     -0.491631    41A     -0.479158    42A     -0.468255
      43A     -0.431246

  @DF-RHF Final Energy:  -535.91339539017349

   => Energetics <=

    Nuclear Repulsion Energy =            648.5420622145595644
    One-Electron Energy =               -2018.0453167856385335
    Two-Electron Energy =                 833.5898591809054778
    Total Energy =                       -535.9133953901734913
  Basis Set: (AUG-CC-PVTZ AUX)
    Blend: AUG-CC-PVTZ-RI
    Molecular point group: c1

    Geometry (in Angstrom), charge = 0, multiplicity = 1:

       Center              X                  Y                   Z               Mass
    ------------   -----------------  -----------------  -----------------  -----------------
         O            0.020554826696     0.245578031495    -0.404571101178    15.994914619570
         O           -1.302689173304    -1.628076968505    -0.241769101178    15.994914619570
         O            1.116697826696    -1.085771968505     1.114084898822    15.994914619570
         C           -2.335804173304     0.579030031495    -0.270956101178    12.000000000000
         C            2.400967826696     0.215982031495    -0.497319101178    12.000000000000
         C           -1.210812873304    -0.443697268505    -0.287609901178    12.000000000000
         C            1.161774826696    -0.327131968505     0.172825898822    12.000000000000
         C           -3.673369173304    -0.116555968505    -0.491008101178    12.000000000000
         C           -2.294379173304     1.352339031495     1.053960898822    12.000000000000
         C            2.477884826696     1.735675031495    -0.299945101178    12.000000000000
         C            3.642200826696    -0.494297968505     0.029161898822    12.000000000000
         H           -2.140175173304     1.285986031495    -1.087093101178     1.007825032230
         H            2.282188826696     0.015745031495    -1.570007101178     1.007825032230
         H           -4.479832173304     0.621776031495    -0.510908101178     1.007825032230
         H           -3.682707173304    -0.667909968505    -1.434271101178     1.007825032230
         H           -3.869816173304    -0.827989968505     0.314616898822     1.007825032230
         H           -3.098925173304     2.092611031495     1.076662898822     1.007825032230
         H           -2.434657173304     0.668951031495     1.897176898822     1.007825032230
         H           -1.341434173304     1.870835031495     1.180312898822     1.007825032230
         H            2.544629826696     1.976403031495     0.765801898822     1.007825032230
         H            1.602083826696     2.236164031495    -0.717157101178     1.007825032230
         H            3.372068826696     2.127747031495    -0.792557101178     1.007825032230
         H            3.765675826696    -0.305329968505     1.098360898822     1.007825032230
         H            4.530089826696    -0.129971968505    -0.495144101178     1.007825032230
         H            3.570548826696    -1.574827968505    -0.113621101178     1.007825032230

  Basis Set: AUG-CC-PVTZ
    Blend: AUG-CC-PVTZ
  Basis Set: (AUG-CC-PVTZ AUX)
    Blend: AUG-CC-PVTZ-JKFIT
	 Reference Energy          =    -535.9133953901734913 [Eh]
	 Singles Energy            =      -0.0000000000000000 [Eh]
	 Same-Spin Energy          =      -0.5369551353984223 [Eh]
	 Opposite-Spin Energy      =      -1.7515165831244239 [Eh]
	 Correlation Energy        =      -2.2884717185228460 [Eh]
	 Total Energy              =    -538.2018671086963195 [Eh]

	 ================> DF-SCS-MP2 Energies <==================
	-----------------------------------------------------------
	 SCS Same-Spin Scale       =       0.3333333333333333 [-]
	 SCS Opposite-Spin Scale   =       1.2000000000000000 [-]
	 SCS Same-Spin Energy      =      -0.1789850451328074 [Eh]
	 SCS Opposite-Spin Energy  =      -2.1018198997493087 [Eh]
	 SCS Correlation Energy    =      -2.2808049448821159 [Eh]
	 SCS Total Energy          =    -538.1942003350555979 [Eh]
	-----------------------------------------------------------

  Dipole Moment: [D]
     X:     0.1185      Y:     3.2871      Z:    -1.4346     Total:     3.5885

*** Psi4 exiting successfully. Buy a developer a beer!
