                               Psi4 1.3.2 release

  ==> Input File <==

--------------------------------------------------------------------------
#psi4
#
memory 32 gb

molecule  {
0 1
  O       -0.0602568     0.3153577    -0.4040284
  O       -1.3063300    -1.6835180    -0.2393630
  O        1.1131790    -1.1413980     1.1162780
  C       -2.3394790     0.5235580    -0.2686750
  C        2.3972750     0.1605680    -0.4950760
  C       -1.2129060    -0.4792070    -0.2860030
  C        1.1581700    -0.3826440     0.1751130
  C       -3.6769720    -0.1720140    -0.4890940
  C       -2.2983330     1.2966310     1.0564140
  C        2.4741530     1.6802570    -0.2975580
  C        3.6385590    -0.5497050     0.0312540
  H       -2.1437190     1.2306780    -1.0846340
  H        2.2784230    -0.0395630    -1.5677780
  H       -4.4834260     0.5663220    -0.5092150
  H       -3.6860570    -0.7233770    -1.4323560
  H       -3.8736540    -0.8834450     0.3164790
  H       -3.1030040     2.0367670     1.0791630
  H       -2.4386000     0.6130600     1.8994820
  H       -1.3454850     1.8152510     1.1829620
  H        2.5408530     1.9208960     0.7682120
  H        1.5983600     2.1807600    -0.7147640
  H        3.3683510     2.0723810    -0.7901000
  H        3.7622080    -0.3606850     1.1004290
  H        4.5263690    -0.1854060    -0.4932010
  H        3.5668740    -1.6302420    -0.1114630
units angstrom
no_reorient  #important for SAPT in psi4, default
symmetry c1  #important for SAPT in psi4, default
}

set PROPERTIES_ORIGIN ["COM"]
properties('MP2/aug-cc-pvtz', properties = ['dipole'])
--------------------------------------------------------------------------

    Molecular point group: c1
  Charge       = 0
  Multiplicity = 1
  Basis Set: AUG-CC-PVTZ
    Blend: AUG-CC-PVTZ
  Basis Set: (AUG-CC-PVTZ AUX)
    Blend: AUG-CC-PVTZ-JKFIT

    Orbital Energies [Eh]
    ---------------------

    Doubly Occupied:

       1A    -20.622178     2A    -20.582143     3A    -20.559931
       4A    -11.409535     5A    -11.387733     6A    -11.266895
       7A    -11.247898     8A    -11.239217     9A    -11.228982
      10A    -11.228251    11A    -11.217105    12A     -1.461023
      13A     -1.408203    14A     -1.357694    15A     -1.109126
      16A     -1.089746    17A     -0.952599    18A     -0.940994
      19A     -0.921995    20A     -0.862959    21A     -0.772010
      22A     -0.740106    23A     -0.702058    24A     -0.697081
      25A     -0.670950    26A     -0.647532    27A     -0.629211
      28A     -0.615169    29A     -0.603120    30A     -0.579713
      31A     -0.562944    32A     -0.556336    33A     -0.547561
      34A     -0.542226    35A     -0.535262    36A     -0.528219
      37A     -0.503282    38A     -0.497513    39A     -0.494937
      40A     -0.488930    41A     -0.481282    42A     -0.467402
      43A     -0.428170

  @DF-RHF Final Energy:  -535.89248257335066

   => Energetics <=

    Nuclear Repulsion Energy =            646.5072887492166274
    One-Electron Energy =               -2014.0291030568173483
    Two-Electron Energy =                 831.6293317342501723
    Total Energy =                       -535.8924825733506623
  Basis Set: (AUG-CC-PVTZ AUX)
    Blend: AUG-CC-PVTZ-RI
    Molecular point group: c1

    Geometry (in Angstrom), charge = 0, multiplicity = 1:

       Center              X                  Y                   Z               Mass
    ------------   -----------------  -----------------  -----------------  -----------------
         O           -0.048898398473     0.356662452083    -0.406056967488    15.994914619570
         O           -1.294971598473    -1.642213247917    -0.241391567488    15.994914619570
         O            1.124537401527    -1.100093247917     1.114249432512    15.994914619570
         C           -2.328120598473     0.564862752083    -0.270703567488    12.000000000000
         C            2.408633401527     0.201872752083    -0.497104567488    12.000000000000
         C           -1.201547598473    -0.437902247917    -0.288031567488    12.000000000000
         C            1.169528401527    -0.341339247917     0.173084432512    12.000000000000
         C           -3.665613598473    -0.130709247917    -0.491122567488    12.000000000000
         C           -2.286974598473     1.337935752083     1.054385432512    12.000000000000
         C            2.485511401527     1.721561752083    -0.299586567488    12.000000000000
         C            3.649917401527    -0.508400247917     0.029225432512    12.000000000000
         H           -2.132360598473     1.271982752083    -1.086662567488     1.007825032230
         H            2.289781401527     0.001741752083    -1.569806567488     1.007825032230
         H           -4.472067598473     0.607626752083    -0.511243567488     1.007825032230
         H           -3.674698598473    -0.682072247917    -1.434384567488     1.007825032230
         H           -3.862295598473    -0.842140247917     0.314450432512     1.007825032230
         H           -3.091645598473     2.078071752083     1.077134432512     1.007825032230
         H           -2.427241598473     0.654364752083     1.897453432512     1.007825032230
         H           -1.334126598473     1.856555752083     1.180933432512     1.007825032230
         H            2.552211401527     1.962200752083     0.766183432512     1.007825032230
         H            1.609718401527     2.222064752083    -0.716792567488     1.007825032230
         H            3.379709401527     2.113685752083    -0.792128567488     1.007825032230
         H            3.773566401527    -0.319380247917     1.098400432512     1.007825032230
         H            4.537727401527    -0.144101247917    -0.495229567488     1.007825032230
         H            3.578232401527    -1.588937247917    -0.113491567488     1.007825032230

  Basis Set: AUG-CC-PVTZ
    Blend: AUG-CC-PVTZ
  Basis Set: (AUG-CC-PVTZ AUX)
    Blend: AUG-CC-PVTZ-JKFIT
	 Reference Energy          =    -535.8924825733506623 [Eh]
	 Singles Energy            =      -0.0000000000000000 [Eh]
	 Same-Spin Energy          =      -0.5400711217688410 [Eh]
	 Opposite-Spin Energy      =      -1.7589214902739823 [Eh]
	 Correlation Energy        =      -2.2989926120428232 [Eh]
	 Total Energy              =    -538.1914751853935286 [Eh]

	 ================> DF-SCS-MP2 Energies <==================
	-----------------------------------------------------------
	 SCS Same-Spin Scale       =       0.3333333333333333 [-]
	 SCS Opposite-Spin Scale   =       1.2000000000000000 [-]
	 SCS Same-Spin Energy      =      -0.1800237072562803 [Eh]
	 SCS Opposite-Spin Energy  =      -2.1107057883287785 [Eh]
	 SCS Correlation Energy    =      -2.2907294955850590 [Eh]
	 SCS Total Energy          =    -538.1832120689357453 [Eh]
	-----------------------------------------------------------

  Dipole Moment: [D]
     X:     1.1111      Y:     3.1048      Z:    -1.2282     Total:     3.5189

*** Psi4 exiting successfully. Buy a developer a beer!
