                               Psi4 1.3.2 release

  ==> Input File <==

--------------------------------------------------------------------------
#psi4
#
memory 32 gb

molecule  {
0 1
  O        0.0168640     0.1901590    -0.4020990
  O       -1.3063300    -1.6835180    -0.2393630
  O        1.1131790    -1.1413980     1.1162780
  C       -2.3394790     0.5235580    -0.2686750
  C        2.3972750     0.1605680    -0.4950760
  C       -1.3227869    -0.5897952    -0.3109401
  C        1.1581700    -0.3826440     0.1751130
  C       -3.6769720    -0.1720140    -0.4890940
  C       -2.2983330     1.2966310     1.0564140
  C        2.4741530     1.6802570    -0.2975580
  C        3.6385590    -0.5497050     0.0312540
  H       -2.1437190     1.2306780    -1.0846340
  H        2.2784230    -0.0395630    -1.5677780
  H       -4.4834260     0.5663220    -0.5092150
  H       -3.6860570    -0.7233770    -1.4323560
  H       -3.8736540    -0.8834450     0.3164790
  H       -3.1030040     2.0367670     1.0791630
  H       -2.4386000     0.6130600     1.8994820
  H       -1.3454850     1.8152510     1.1829620
  H        2.5408530     1.9208960     0.7682120
  H        1.5983600     2.1807600    -0.7147640
  H        3.3683510     2.0723810    -0.7901000
  H        3.7622080    -0.3606850     1.1004290
  H        4.5263690    -0.1854060    -0.4932010
  H        3.5668740    -1.6302420    -0.1114630
units angstrom
no_reorient  #important for SAPT in psi4, default
symmetry c1  #important for SAPT in psi4, default
}

set PROPERTIES_ORIGIN ["COM"]
properties('MP2/aug-cc-pvtz', properties = ['dipole'])
--------------------------------------------------------------------------

    Molecular point group: c1
  Charge       = 0
  Multiplicity = 1
  Basis Set: AUG-CC-PVTZ
    Blend: AUG-CC-PVTZ
  Basis Set: (AUG-CC-PVTZ AUX)
    Blend: AUG-CC-PVTZ-JKFIT

    Orbital Energies [Eh]
    ---------------------

    Doubly Occupied:

       1A    -20.593964     2A    -20.580016     3A    -20.542174
       4A    -11.391890     5A    -11.372791     6A    -11.268042
       7A    -11.245462     8A    -11.238182     9A    -11.231485
      10A    -11.225408    11A    -11.214035    12A     -1.518754
      13A     -1.416871    14A     -1.330476    15A     -1.110834
      16A     -1.085571    17A     -0.953580    18A     -0.937355
      19A     -0.912560    20A     -0.858204    21A     -0.770848
      22A     -0.745251    23A     -0.711722    24A     -0.690301
      25A     -0.681672    26A     -0.648212    27A     -0.632227
      28A     -0.615048    29A     -0.606446    30A     -0.577160
      31A     -0.568424    32A     -0.557368    33A     -0.551758
      34A     -0.546521    35A     -0.539452    36A     -0.523844
      37A     -0.506529    38A     -0.502693    39A     -0.489499
      40A     -0.482440    41A     -0.463192    42A     -0.457560
      43A     -0.420042

  @DF-RHF Final Energy:  -535.88965233008742

   => Energetics <=

    Nuclear Repulsion Energy =            647.9721731143544048
    One-Electron Energy =               -2017.0919241531353236
    Two-Electron Energy =                 833.2300987086936175
    Total Energy =                       -535.8896523300874151
  Basis Set: (AUG-CC-PVTZ AUX)
    Blend: AUG-CC-PVTZ-RI
    Molecular point group: c1

    Geometry (in Angstrom), charge = 0, multiplicity = 1:

       Center              X                  Y                   Z               Mass
    ------------   -----------------  -----------------  -----------------  -----------------
         O            0.028760246292     0.252524606502    -0.402429943845    15.994914619570
         O           -1.294433753708    -1.621152393498    -0.239693943845    15.994914619570
         O            1.125075246292    -1.079032393498     1.115947056155    15.994914619570
         C           -2.327582753708     0.585923606502    -0.269005943845    12.000000000000
         C            2.409171246292     0.222933606502    -0.495406943845    12.000000000000
         C           -1.310890653708    -0.527429593498    -0.311271043845    12.000000000000
         C            1.170066246292    -0.320278393498     0.174782056155    12.000000000000
         C           -3.665075753708    -0.109648393498    -0.489424943845    12.000000000000
         C           -2.286436753708     1.358996606502     1.056083056155    12.000000000000
         C            2.486049246292     1.742622606502    -0.297888943845    12.000000000000
         C            3.650455246292    -0.487339393498     0.030923056155    12.000000000000
         H           -2.131822753708     1.293043606502    -1.084964943845     1.007825032230
         H            2.290319246292     0.022802606502    -1.568108943845     1.007825032230
         H           -4.471529753708     0.628687606502    -0.509545943845     1.007825032230
         H           -3.674160753708    -0.661011393498    -1.432686943845     1.007825032230
         H           -3.861757753708    -0.821079393498     0.316148056155     1.007825032230
         H           -3.091107753708     2.099132606502     1.078832056155     1.007825032230
         H           -2.426703753708     0.675425606502     1.899151056155     1.007825032230
         H           -1.333588753708     1.877616606502     1.182631056155     1.007825032230
         H            2.552749246292     1.983261606502     0.767881056155     1.007825032230
         H            1.610256246292     2.243125606502    -0.715094943845     1.007825032230
         H            3.380247246292     2.134746606502    -0.790430943845     1.007825032230
         H            3.774104246292    -0.298319393498     1.100098056155     1.007825032230
         H            4.538265246292    -0.123040393498    -0.493531943845     1.007825032230
         H            3.578770246292    -1.567876393498    -0.111793943845     1.007825032230

  Basis Set: AUG-CC-PVTZ
    Blend: AUG-CC-PVTZ
  Basis Set: (AUG-CC-PVTZ AUX)
    Blend: AUG-CC-PVTZ-JKFIT
	 Reference Energy          =    -535.8896523300874151 [Eh]
	 Singles Energy            =      -0.0000000000000000 [Eh]
	 Same-Spin Energy          =      -0.5364636296630330 [Eh]
	 Opposite-Spin Energy      =      -1.7499543201901311 [Eh]
	 Correlation Energy        =      -2.2864179498531643 [Eh]
	 Total Energy              =    -538.1760702799406317 [Eh]

	 ================> DF-SCS-MP2 Energies <==================
	-----------------------------------------------------------
	 SCS Same-Spin Scale       =       0.3333333333333333 [-]
	 SCS Opposite-Spin Scale   =       1.2000000000000000 [-]
	 SCS Same-Spin Energy      =      -0.1788212098876776 [Eh]
	 SCS Opposite-Spin Energy  =      -2.0999451842281571 [Eh]
	 SCS Correlation Energy    =      -2.2787663941158347 [Eh]
	 SCS Total Energy          =    -538.1684187242032067 [Eh]
	-----------------------------------------------------------

  Dipole Moment: [D]
     X:    -1.3813      Y:     2.7002      Z:    -1.5322     Total:     3.3980

*** Psi4 exiting successfully. Buy a developer a beer!
