                               Psi4 1.3.2 release

  ==> Input File <==

--------------------------------------------------------------------------
#psi4
#
memory 32 gb

molecule  {
0 1
  O        0.0049252     0.2115729    -0.4025096
  O       -1.3063300    -1.6835180    -0.2393630
  O        1.1131790    -1.1413980     1.1162780
  C       -2.3394790     0.5235580    -0.2686750
  C        2.3972750     0.1605680    -0.4950760
  C       -1.2129060    -0.4792070    -0.2860030
  C        1.1581700    -0.3826440     0.1751130
  C       -3.6769720    -0.1720140    -0.4890940
  C       -2.2983330     1.2966310     1.0564140
  C        2.4741530     1.6802570    -0.2975580
  C        3.6385590    -0.5497050     0.0312540
  H       -2.1437190     1.2306780    -1.0846340
  H        2.2784230    -0.0395630    -1.5677780
  H       -4.4834260     0.5663220    -0.5092150
  H       -3.6860570    -0.7233770    -1.4323560
  H       -3.8736540    -0.8834450     0.3164790
  H       -3.1030040     2.0367670     1.0791630
  H       -2.4386000     0.6130600     1.8994820
  H       -1.3454850     1.8152510     1.1829620
  H        2.5408530     1.9208960     0.7682120
  H        1.5983600     2.1807600    -0.7147640
  H        3.3683510     2.0723810    -0.7901000
  H        3.7622080    -0.3606850     1.1004290
  H        4.5263690    -0.1854060    -0.4932010
  H        3.5668740    -1.6302420    -0.1114630
units angstrom
no_reorient  #important for SAPT in psi4, default
symmetry c1  #important for SAPT in psi4, default
}

set PROPERTIES_ORIGIN ["COM"]
properties('MP2/aug-cc-pvtz', properties = ['dipole'])
--------------------------------------------------------------------------

    Molecular point group: c1
  Charge       = 0
  Multiplicity = 1
  Basis Set: AUG-CC-PVTZ
    Blend: AUG-CC-PVTZ
  Basis Set: (AUG-CC-PVTZ AUX)
    Blend: AUG-CC-PVTZ-JKFIT

    Orbital Energies [Eh]
    ---------------------

    Doubly Occupied:

       1A    -20.623563     2A    -20.564576     3A    -20.561274
       4A    -11.397129     5A    -11.393082     6A    -11.260378
       7A    -11.257038     8A    -11.236487     9A    -11.233610
      10A    -11.224401    11A    -11.222929    12A     -1.477365
      13A     -1.402559    14A     -1.360517    15A     -1.108000
      16A     -1.094529    17A     -0.951356    18A     -0.946129
      19A     -0.933848    20A     -0.863262    21A     -0.788363
      22A     -0.736187    23A     -0.705036    24A     -0.701668
      25A     -0.674126    26A     -0.645624    27A     -0.629553
      28A     -0.615855    29A     -0.606264    30A     -0.576454
      31A     -0.566721    32A     -0.554223    33A     -0.551417
      34A     -0.536639    35A     -0.533338    36A     -0.528534
      37A     -0.502831    38A     -0.498262    39A     -0.494764
      40A     -0.491198    41A     -0.478286    42A     -0.468515
      43A     -0.432419

  @DF-RHF Final Energy:  -535.91032586718939

   => Energetics <=

    Nuclear Repulsion Energy =            648.1737574748408406
    One-Electron Energy =               -2017.3115486238691574
    Two-Electron Energy =                 833.2274652818389313
    Total Energy =                       -535.9103258671893855
  Basis Set: (AUG-CC-PVTZ AUX)
    Blend: AUG-CC-PVTZ-RI
    Molecular point group: c1

    Geometry (in Angstrom), charge = 0, multiplicity = 1:

       Center              X                  Y                   Z               Mass
    ------------   -----------------  -----------------  -----------------  -----------------
         O            0.009688926309     0.263377898294    -0.404691829430    15.994914619570
         O           -1.301566273691    -1.631713001706    -0.241545229430    15.994914619570
         O            1.117942726309    -1.089593001706     1.114095770570    15.994914619570
         C           -2.334715273691     0.575362998294    -0.270857229430    12.000000000000
         C            2.402038726309     0.212372998294    -0.497258229430    12.000000000000
         C           -1.208142273691    -0.427402001706    -0.288185229430    12.000000000000
         C            1.162933726309    -0.330839001706     0.172930770570    12.000000000000
         C           -3.672208273691    -0.120209001706    -0.491276229430    12.000000000000
         C           -2.293569273691     1.348435998294     1.054231770570    12.000000000000
         C            2.478916726309     1.732061998294    -0.299740229430    12.000000000000
         C            3.643322726309    -0.497900001706     0.029071770570    12.000000000000
         H           -2.138955273691     1.282482998294    -1.086816229430     1.007825032230
         H            2.283186726309     0.012241998294    -1.569960229430     1.007825032230
         H           -4.478662273691     0.618126998294    -0.511397229430     1.007825032230
         H           -3.681293273691    -0.671572001706    -1.434538229430     1.007825032230
         H           -3.868890273691    -0.831640001706     0.314296770570     1.007825032230
         H           -3.098240273691     2.088571998294     1.076980770570     1.007825032230
         H           -2.433836273691     0.664864998294     1.897299770570     1.007825032230
         H           -1.340721273691     1.867055998294     1.180779770570     1.007825032230
         H            2.545616726309     1.972700998294     0.766029770570     1.007825032230
         H            1.603123726309     2.232564998294    -0.716946229430     1.007825032230
         H            3.373114726309     2.124185998294    -0.792282229430     1.007825032230
         H            3.766971726309    -0.308880001706     1.098246770570     1.007825032230
         H            4.531132726309    -0.133601001706    -0.495383229430     1.007825032230
         H            3.571637726309    -1.578437001706    -0.113645229430     1.007825032230

  Basis Set: AUG-CC-PVTZ
    Blend: AUG-CC-PVTZ
  Basis Set: (AUG-CC-PVTZ AUX)
    Blend: AUG-CC-PVTZ-JKFIT
	 Reference Energy          =    -535.9103258671893855 [Eh]
	 Singles Energy            =      -0.0000000000000000 [Eh]
	 Same-Spin Energy          =      -0.5377719445913097 [Eh]
	 Opposite-Spin Energy      =      -1.7533447007124037 [Eh]
	 Correlation Energy        =      -2.2911166453037133 [Eh]
	 Total Energy              =    -538.2014425124931449 [Eh]

	 ================> DF-SCS-MP2 Energies <==================
	-----------------------------------------------------------
	 SCS Same-Spin Scale       =       0.3333333333333333 [-]
	 SCS Opposite-Spin Scale   =       1.2000000000000000 [-]
	 SCS Same-Spin Energy      =      -0.1792573148637699 [Eh]
	 SCS Opposite-Spin Energy  =      -2.1040136408548844 [Eh]
	 SCS Correlation Energy    =      -2.2832709557186543 [Eh]
	 SCS Total Energy          =    -538.1935968229080345 [Eh]
	-----------------------------------------------------------

  Dipole Moment: [D]
     X:     0.3445      Y:     3.3500      Z:    -1.3874     Total:     3.6422

*** Psi4 exiting successfully. Buy a developer a beer!
