                               Psi4 1.3.2 release

  ==> Input File <==

--------------------------------------------------------------------------
#psi4
#
memory 32 gb

molecule  {
0 1
  O        0.0168640     0.1901590    -0.4020990
  O       -1.3063300    -1.6835180    -0.2393630
  O        1.1131790    -1.1413980     1.1162780
  C       -2.3394790     0.5235580    -0.2686750
  C        2.3972750     0.1605680    -0.4950760
  C       -1.1920276    -0.4536598    -0.3270295
  C        1.1581700    -0.3826440     0.1751130
  C       -3.6769720    -0.1720140    -0.4890940
  C       -2.2983330     1.2966310     1.0564140
  C        2.4741530     1.6802570    -0.2975580
  C        3.6385590    -0.5497050     0.0312540
  H       -2.1437190     1.2306780    -1.0846340
  H        2.2784230    -0.0395630    -1.5677780
  H       -4.4834260     0.5663220    -0.5092150
  H       -3.6860570    -0.7233770    -1.4323560
  H       -3.8736540    -0.8834450     0.3164790
  H       -3.1030040     2.0367670     1.0791630
  H       -2.4386000     0.6130600     1.8994820
  H       -1.3454850     1.8152510     1.1829620
  H        2.5408530     1.9208960     0.7682120
  H        1.5983600     2.1807600    -0.7147640
  H        3.3683510     2.0723810    -0.7901000
  H        3.7622080    -0.3606850     1.1004290
  H        4.5263690    -0.1854060    -0.4932010
  H        3.5668740    -1.6302420    -0.1114630
units angstrom
no_reorient  #important for SAPT in psi4, default
symmetry c1  #important for SAPT in psi4, default
}

set PROPERTIES_ORIGIN ["COM"]
properties('MP2/aug-cc-pvtz', properties = ['dipole'])
--------------------------------------------------------------------------

    Molecular point group: c1
  Charge       = 0
  Multiplicity = 1
  Basis Set: AUG-CC-PVTZ
    Blend: AUG-CC-PVTZ
  Basis Set: (AUG-CC-PVTZ AUX)
    Blend: AUG-CC-PVTZ-JKFIT

    Orbital Energies [Eh]
    ---------------------

    Doubly Occupied:

       1A    -20.630746     2A    -20.564712     3A    -20.554553
       4A    -11.398985     5A    -11.395372     6A    -11.261886
       7A    -11.258133     8A    -11.237988     9A    -11.234633
      10A    -11.225349    11A    -11.222821    12A     -1.489555
      13A     -1.395011    14A     -1.353566    15A     -1.109741
      16A     -1.095153    17A     -0.956722    18A     -0.946797
      19A     -0.940872    20A     -0.865076    21A     -0.798557
      22A     -0.736162    23A     -0.708402    24A     -0.700878
      25A     -0.676037    26A     -0.645513    27A     -0.628745
      28A     -0.616766    29A     -0.604568    30A     -0.576632
      31A     -0.568153    32A     -0.555364    33A     -0.550983
      34A     -0.536022    35A     -0.532556    36A     -0.524258
      37A     -0.502810    38A     -0.499588    39A     -0.495654
      40A     -0.490999    41A     -0.472041    42A     -0.468135
      43A     -0.433078

  @DF-RHF Final Energy:  -535.90801872817497

   => Energetics <=

    Nuclear Repulsion Energy =            648.4792004507316960
    One-Electron Energy =               -2017.8552992271925177
    Two-Electron Energy =                 833.4680800482858558
    Total Energy =                       -535.9080187281749659
  Basis Set: (AUG-CC-PVTZ AUX)
    Blend: AUG-CC-PVTZ-RI
    Molecular point group: c1

    Geometry (in Angstrom), charge = 0, multiplicity = 1:

       Center              X                  Y                   Z               Mass
    ------------   -----------------  -----------------  -----------------  -----------------
         O            0.018835083548     0.242191375900    -0.401208692940    15.994914619570
         O           -1.304358916452    -1.631485624100    -0.238472692940    15.994914619570
         O            1.115150083548    -1.089365624100     1.117168307060    15.994914619570
         C           -2.337507916452     0.575590375900    -0.267784692940    12.000000000000
         C            2.399246083548     0.212600375900    -0.494185692940    12.000000000000
         C           -1.190056516452    -0.401627424100    -0.326139192940    12.000000000000
         C            1.160141083548    -0.330611624100     0.176003307060    12.000000000000
         C           -3.675000916452    -0.119981624100    -0.488203692940    12.000000000000
         C           -2.296361916452     1.348663375900     1.057304307060    12.000000000000
         C            2.476124083548     1.732289375900    -0.296667692940    12.000000000000
         C            3.640530083548    -0.497672624100     0.032144307060    12.000000000000
         H           -2.141747916452     1.282710375900    -1.083743692940     1.007825032230
         H            2.280394083548     0.012469375900    -1.566887692940     1.007825032230
         H           -4.481454916452     0.618354375900    -0.508324692940     1.007825032230
         H           -3.684085916452    -0.671344624100    -1.431465692940     1.007825032230
         H           -3.871682916452    -0.831412624100     0.317369307060     1.007825032230
         H           -3.101032916452     2.088799375900     1.080053307060     1.007825032230
         H           -2.436628916452     0.665092375900     1.900372307060     1.007825032230
         H           -1.343513916452     1.867283375900     1.183852307060     1.007825032230
         H            2.542824083548     1.972928375900     0.769102307060     1.007825032230
         H            1.600331083548     2.232792375900    -0.713873692940     1.007825032230
         H            3.370322083548     2.124413375900    -0.789209692940     1.007825032230
         H            3.764179083548    -0.308652624100     1.101319307060     1.007825032230
         H            4.528340083548    -0.133373624100    -0.492310692940     1.007825032230
         H            3.568845083548    -1.578209624100    -0.110572692940     1.007825032230

  Basis Set: AUG-CC-PVTZ
    Blend: AUG-CC-PVTZ
  Basis Set: (AUG-CC-PVTZ AUX)
    Blend: AUG-CC-PVTZ-JKFIT
	 Reference Energy          =    -535.9080187281749659 [Eh]
	 Singles Energy            =      -0.0000000000000000 [Eh]
	 Same-Spin Energy          =      -0.5378596572997805 [Eh]
	 Opposite-Spin Energy      =      -1.7533922959949164 [Eh]
	 Correlation Energy        =      -2.2912519532946969 [Eh]
	 Total Energy              =    -538.1992706814696703 [Eh]

	 ================> DF-SCS-MP2 Energies <==================
	-----------------------------------------------------------
	 SCS Same-Spin Scale       =       0.3333333333333333 [-]
	 SCS Opposite-Spin Scale   =       1.2000000000000000 [-]
	 SCS Same-Spin Energy      =      -0.1792865524332601 [Eh]
	 SCS Opposite-Spin Energy  =      -2.1040707551938995 [Eh]
	 SCS Correlation Energy    =      -2.2833573076271598 [Eh]
	 SCS Total Energy          =    -538.1913760358021364 [Eh]
	-----------------------------------------------------------

  Dipole Moment: [D]
     X:     0.5090      Y:     3.5491      Z:    -1.4265     Total:     3.8587

*** Psi4 exiting successfully. Buy a developer a beer!
