                               Psi4 1.3.2 release

  ==> Input File <==

--------------------------------------------------------------------------
#psi4
#
memory 32 gb

molecule  {
0 1
  O       -0.0599957     0.3155205    -0.4003252
  O       -1.3063300    -1.6835180    -0.2393630
  O        1.1131790    -1.1413980     1.1162780
  C       -2.3394790     0.5235580    -0.2686750
  C        2.3972750     0.1605680    -0.4950760
  C       -1.2129060    -0.4792070    -0.2860030
  C        1.1581700    -0.3826440     0.1751130
  C       -3.6769720    -0.1720140    -0.4890940
  C       -2.2983330     1.2966310     1.0564140
  C        2.4741530     1.6802570    -0.2975580
  C        3.6385590    -0.5497050     0.0312540
  H       -2.1437190     1.2306780    -1.0846340
  H        2.2784230    -0.0395630    -1.5677780
  H       -4.4834260     0.5663220    -0.5092150
  H       -3.6860570    -0.7233770    -1.4323560
  H       -3.8736540    -0.8834450     0.3164790
  H       -3.1030040     2.0367670     1.0791630
  H       -2.4386000     0.6130600     1.8994820
  H       -1.3454850     1.8152510     1.1829620
  H        2.5408530     1.9208960     0.7682120
  H        1.5983600     2.1807600    -0.7147640
  H        3.3683510     2.0723810    -0.7901000
  H        3.7622080    -0.3606850     1.1004290
  H        4.5263690    -0.1854060    -0.4932010
  H        3.5668740    -1.6302420    -0.1114630
units angstrom
no_reorient  #important for SAPT in psi4, default
symmetry c1  #important for SAPT in psi4, default
}

set PROPERTIES_ORIGIN ["COM"]
properties('MP2/aug-cc-pvtz', properties = ['dipole'])
--------------------------------------------------------------------------

    Molecular point group: c1
  Charge       = 0
  Multiplicity = 1
  Basis Set: AUG-CC-PVTZ
    Blend: AUG-CC-PVTZ
  Basis Set: (AUG-CC-PVTZ AUX)
    Blend: AUG-CC-PVTZ-JKFIT

    Orbital Energies [Eh]
    ---------------------

    Doubly Occupied:

       1A    -20.622222     2A    -20.581852     3A    -20.559985
       4A    -11.409314     5A    -11.387838     6A    -11.266863
       7A    -11.247964     8A    -11.239202     9A    -11.228949
      10A    -11.228257    11A    -11.217144    12A     -1.461229
      13A     -1.408088    14A     -1.357803    15A     -1.109115
      16A     -1.089796    17A     -0.952588    18A     -0.941033
      19A     -0.922126    20A     -0.862989    21A     -0.772253
      22A     -0.740015    23A     -0.702120    24A     -0.697122
      25A     -0.671023    26A     -0.647492    27A     -0.629230
      28A     -0.615101    29A     -0.603213    30A     -0.579682
      31A     -0.562947    32A     -0.556324    33A     -0.547576
      34A     -0.542116    35A     -0.535202    36A     -0.528275
      37A     -0.503273    38A     -0.497496    39A     -0.494951
      40A     -0.488904    41A     -0.481282    42A     -0.467438
      43A     -0.428242

  @DF-RHF Final Energy:  -535.89275803093676

   => Energetics <=

    Nuclear Repulsion Energy =            646.5472183496050320
    One-Electron Energy =               -2014.1086838439325675
    Two-Electron Energy =                 831.6687074633906605
    Total Energy =                       -535.8927580309367613
  Basis Set: (AUG-CC-PVTZ AUX)
    Blend: AUG-CC-PVTZ-RI
    Molecular point group: c1

    Geometry (in Angstrom), charge = 0, multiplicity = 1:

       Center              X                  Y                   Z               Mass
    ------------   -----------------  -----------------  -----------------  -----------------
         O           -0.048663714810     0.356808781077    -0.402728432292    15.994914619570
         O           -1.294998014810    -1.642229718923    -0.241766232292    15.994914619570
         O            1.124510985190    -1.100109718923     1.113874767708    15.994914619570
         C           -2.328147014810     0.564846281077    -0.271078232292    12.000000000000
         C            2.408606985190     0.201856281077    -0.497479232292    12.000000000000
         C           -1.201574014810    -0.437918718923    -0.288406232292    12.000000000000
         C            1.169501985190    -0.341355718923     0.172709767708    12.000000000000
         C           -3.665640014810    -0.130725718923    -0.491497232292    12.000000000000
         C           -2.287001014810     1.337919281077     1.054010767708    12.000000000000
         C            2.485484985190     1.721545281077    -0.299961232292    12.000000000000
         C            3.649890985190    -0.508416718923     0.028850767708    12.000000000000
         H           -2.132387014810     1.271966281077    -1.087037232292     1.007825032230
         H            2.289754985190     0.001725281077    -1.570181232292     1.007825032230
         H           -4.472094014810     0.607610281077    -0.511618232292     1.007825032230
         H           -3.674725014810    -0.682088718923    -1.434759232292     1.007825032230
         H           -3.862322014810    -0.842156718923     0.314075767708     1.007825032230
         H           -3.091672014810     2.078055281077     1.076759767708     1.007825032230
         H           -2.427268014810     0.654348281077     1.897078767708     1.007825032230
         H           -1.334153014810     1.856539281077     1.180558767708     1.007825032230
         H            2.552184985190     1.962184281077     0.765808767708     1.007825032230
         H            1.609691985190     2.222048281077    -0.717167232292     1.007825032230
         H            3.379682985190     2.113669281077    -0.792503232292     1.007825032230
         H            3.773539985190    -0.319396718923     1.098025767708     1.007825032230
         H            4.537700985190    -0.144117718923    -0.495604232292     1.007825032230
         H            3.578205985190    -1.588953718923    -0.113866232292     1.007825032230

  Basis Set: AUG-CC-PVTZ
    Blend: AUG-CC-PVTZ
  Basis Set: (AUG-CC-PVTZ AUX)
    Blend: AUG-CC-PVTZ-JKFIT
	 Reference Energy          =    -535.8927580309367613 [Eh]
	 Singles Energy            =      -0.0000000000000000 [Eh]
	 Same-Spin Energy          =      -0.5400391615378184 [Eh]
	 Opposite-Spin Energy      =      -1.7588420627130361 [Eh]
	 Correlation Energy        =      -2.2988812242508545 [Eh]
	 Total Energy              =    -538.1916392551876243 [Eh]

	 ================> DF-SCS-MP2 Energies <==================
	-----------------------------------------------------------
	 SCS Same-Spin Scale       =       0.3333333333333333 [-]
	 SCS Opposite-Spin Scale   =       1.2000000000000000 [-]
	 SCS Same-Spin Energy      =      -0.1800130538459395 [Eh]
	 SCS Opposite-Spin Energy  =      -2.1106104752556432 [Eh]
	 SCS Correlation Energy    =      -2.2906235291015826 [Eh]
	 SCS Total Energy          =    -538.1833815600383559 [Eh]
	-----------------------------------------------------------

  Dipole Moment: [D]
     X:     1.1053      Y:     3.1070      Z:    -1.2343     Total:     3.5212

*** Psi4 exiting successfully. Buy a developer a beer!
