                               Psi4 1.4a3.dev225

  ==> Input File <==

--------------------------------------------------------------------------
#psi4
#
memory 32 gb

molecule  {
0 1
  O        0.0168770     0.1900940    -0.4022940
  O       -1.3063670    -1.6835610    -0.2394920
  O        1.1130200    -1.1412560     1.1163620
  C       -2.3394820     0.5235460    -0.2686790
  C        2.3972900     0.1604980    -0.4950420
  C       -1.2567113    -0.5030765    -0.2819691
  C        1.1580970    -0.3826160     0.1751030
  C       -3.6770470    -0.1720400    -0.4887310
  C       -2.2980570     1.2968550     1.0562380
  C        2.4742070     1.6801910    -0.2976680
  C        3.6385230    -0.5497820     0.0314390
  H       -2.1438530     1.2305020    -1.0848160
  H        2.2785110    -0.0397390    -1.5677300
  H       -4.4835100     0.5662920    -0.5086310
  H       -3.6863850    -0.7233940    -1.4319940
  H       -3.8734940    -0.8834740     0.3168940
  H       -3.1026030     2.0371270     1.0789400
  H       -2.4383350     0.6134670     1.8994540
  H       -1.3451120     1.8153510     1.1825900
  H        2.5409520     1.9209190     0.7680790
  H        1.5984060     2.1806800    -0.7148800
  H        3.3683910     2.0722630    -0.7902800
  H        3.7619980    -0.3608140     1.1006380
  H        4.5264120    -0.1854560    -0.4928670
  H        3.5668710    -1.6303120    -0.1113440
units angstrom
no_reorient  #important for SAPT in psi4, default
symmetry c1  #important for SAPT in psi4, default
}

set PROPERTIES_ORIGIN ["COM"]
properties('MP2/aug-cc-pvtz', properties = ['dipole'])
--------------------------------------------------------------------------

    Molecular point group: c1
  Charge       = 0
  Multiplicity = 1
  Basis Set: AUG-CC-PVTZ
    Blend: AUG-CC-PVTZ
  Basis Set: (AUG-CC-PVTZ AUX)
    Blend: AUG-CC-PVTZ-JKFIT

    Orbital Energies [Eh]
    ---------------------

    Doubly Occupied:

       1A    -20.610889     2A    -20.570703     3A    -20.554593
       4A    -11.394994     5A    -11.387788     6A    -11.261424
       7A    -11.254980     8A    -11.236629     9A    -11.232718
      10A    -11.226936    11A    -11.220579    12A     -1.472850
      13A     -1.412711    14A     -1.353772    15A     -1.110231
      16A     -1.093877    17A     -0.950914    18A     -0.945129
      19A     -0.929261    20A     -0.863769    21A     -0.783601
      22A     -0.735445    23A     -0.704469    24A     -0.698325
      25A     -0.674369    26A     -0.643613    27A     -0.632516
      28A     -0.613734    29A     -0.607157    30A     -0.574881
      31A     -0.566007    32A     -0.555284    33A     -0.549990
      34A     -0.540179    35A     -0.534197    36A     -0.529463
      37A     -0.504154    38A     -0.497187    39A     -0.495335
      40A     -0.490024    41A     -0.475351    42A     -0.467766
      43A     -0.431428

  @DF-RHF Final Energy:  -535.91073209848912

   => Energetics <=

    Nuclear Repulsion Energy =            648.2574655523064848
    One-Electron Energy =               -2017.5579490864345189
    Two-Electron Energy =                 833.3897514356389138
    Total Energy =                       -535.9107320984891203
  Basis Set: (AUG-CC-PVTZ AUX)
    Blend: AUG-CC-PVTZ-RI
    Molecular point group: c1

    Geometry (in Angstrom), charge = 0, multiplicity = 1:

       Center              X                  Y                   Z               Mass
    ------------   -----------------  -----------------  -----------------  -----------------
         O            0.023759541972     0.245873693019    -0.404826419690    15.994914619570
         O           -1.299484458028    -1.627781306981    -0.242024419690    15.994914619570
         O            1.119902541972    -1.085476306981     1.113829580310    15.994914619570
         C           -2.332599458028     0.579325693019    -0.271211419690    12.000000000000
         C            2.404172541972     0.216277693019    -0.497574419690    12.000000000000
         C           -1.249828758028    -0.447296806981    -0.284501519690    12.000000000000
         C            1.164979541972    -0.326836306981     0.172570580310    12.000000000000
         C           -3.670164458028    -0.116260306981    -0.491263419690    12.000000000000
         C           -2.291174458028     1.352634693019     1.053705580310    12.000000000000
         C            2.481089541972     1.735970693019    -0.300200419690    12.000000000000
         C            3.645405541972    -0.494002306981     0.028906580310    12.000000000000
         H           -2.136970458028     1.286281693019    -1.087348419690     1.007825032230
         H            2.285393541972     0.016040693019    -1.570262419690     1.007825032230
         H           -4.476627458028     0.622071693019    -0.511163419690     1.007825032230
         H           -3.679502458028    -0.667614306981    -1.434526419690     1.007825032230
         H           -3.866611458028    -0.827694306981     0.314361580310     1.007825032230
         H           -3.095720458028     2.092906693019     1.076407580310     1.007825032230
         H           -2.431452458028     0.669246693019     1.896921580310     1.007825032230
         H           -1.338229458028     1.871130693019     1.180057580310     1.007825032230
         H            2.547834541972     1.976698693019     0.765546580310     1.007825032230
         H            1.605288541972     2.236459693019    -0.717412419690     1.007825032230
         H            3.375273541972     2.128042693019    -0.792812419690     1.007825032230
         H            3.768880541972    -0.305034306981     1.098105580310     1.007825032230
         H            4.533294541972    -0.129676306981    -0.495399419690     1.007825032230
         H            3.573753541972    -1.574532306981    -0.113876419690     1.007825032230

  Basis Set: AUG-CC-PVTZ
    Blend: AUG-CC-PVTZ
  Basis Set: (AUG-CC-PVTZ AUX)
    Blend: AUG-CC-PVTZ-JKFIT
	 Reference Energy          =    -535.9107320984891203 [Eh]
	 Singles Energy            =      -0.0000000000000000 [Eh]
	 Same-Spin Energy          =      -0.5374074300027084 [Eh]
	 Opposite-Spin Energy      =      -1.7522349914029847 [Eh]
	 Correlation Energy        =      -2.2896424214056932 [Eh]
	 Total Energy              =    -538.2003745198948081 [Eh]

	 ================> DF-SCS-MP2 Energies <==================
	-----------------------------------------------------------
	 SCS Same-Spin Scale       =       0.3333333333333333 [-]
	 SCS Opposite-Spin Scale   =       1.2000000000000000 [-]
	 SCS Same-Spin Energy      =      -0.1791358100009028 [Eh]
	 SCS Opposite-Spin Energy  =      -2.1026819896835813 [Eh]
	 SCS Correlation Energy    =      -2.2818177996844842 [Eh]
	 SCS Total Energy          =    -538.1925498981736382 [Eh]
	-----------------------------------------------------------

  Dipole Moment: [D]
     X:    -0.3367      Y:     3.2517      Z:    -1.4386     Total:     3.5717

*** Psi4 exiting successfully. Buy a developer a beer!
