                               Psi4 1.3.2 release

  ==> Input File <==

--------------------------------------------------------------------------
#psi4
#
memory 32 gb

molecule  {
0 1
  O        0.0802501     0.0574638    -0.4026008
  O       -1.3063300    -1.6835180    -0.2393630
  O        1.1131790    -1.1413980     1.1162780
  C       -2.3394790     0.5235580    -0.2686750
  C        2.3972750     0.1605680    -0.4950760
  C       -1.2129060    -0.4792070    -0.2860030
  C        1.1581700    -0.3826440     0.1751130
  C       -3.6769720    -0.1720140    -0.4890940
  C       -2.2983330     1.2966310     1.0564140
  C        2.4741530     1.6802570    -0.2975580
  C        3.6385590    -0.5497050     0.0312540
  H       -2.1437190     1.2306780    -1.0846340
  H        2.2784230    -0.0395630    -1.5677780
  H       -4.4834260     0.5663220    -0.5092150
  H       -3.6860570    -0.7233770    -1.4323560
  H       -3.8736540    -0.8834450     0.3164790
  H       -3.1030040     2.0367670     1.0791630
  H       -2.4386000     0.6130600     1.8994820
  H       -1.3454850     1.8152510     1.1829620
  H        2.5408530     1.9208960     0.7682120
  H        1.5983600     2.1807600    -0.7147640
  H        3.3683510     2.0723810    -0.7901000
  H        3.7622080    -0.3606850     1.1004290
  H        4.5263690    -0.1854060    -0.4932010
  H        3.5668740    -1.6302420    -0.1114630
units angstrom
no_reorient  #important for SAPT in psi4, default
symmetry c1  #important for SAPT in psi4, default
}

set PROPERTIES_ORIGIN ["COM"]
properties('MP2/aug-cc-pvtz', properties = ['dipole'])
--------------------------------------------------------------------------

    Molecular point group: c1
  Charge       = 0
  Multiplicity = 1
  Basis Set: AUG-CC-PVTZ
    Blend: AUG-CC-PVTZ
  Basis Set: (AUG-CC-PVTZ AUX)
    Blend: AUG-CC-PVTZ-JKFIT

    Orbital Energies [Eh]
    ---------------------

    Doubly Occupied:

       1A    -20.622125     2A    -20.563567     3A    -20.537831
       4A    -11.401551     5A    -11.379276     6A    -11.269567
       7A    -11.252606     8A    -11.240632     9A    -11.233334
      10A    -11.230638    11A    -11.218620    12A     -1.508812
      13A     -1.400886    14A     -1.354610    15A     -1.112610
      16A     -1.094893    17A     -0.964772    18A     -0.950439
      19A     -0.941613    20A     -0.866186    21A     -0.809910
      22A     -0.733870    23A     -0.713905    24A     -0.699018
      25A     -0.682245    26A     -0.644537    27A     -0.635090
      28A     -0.615037    29A     -0.606131    30A     -0.576246
      31A     -0.568666    32A     -0.557503    33A     -0.549355
      34A     -0.540214    35A     -0.528702    36A     -0.522425
      37A     -0.506968    38A     -0.498791    39A     -0.496163
      40A     -0.488508    41A     -0.469024    42A     -0.464791
      43A     -0.430891

  @DF-RHF Final Energy:  -535.90995172642874

   => Energetics <=

    Nuclear Repulsion Energy =            650.5550343793191814
    One-Electron Energy =               -2021.9648519456575286
    Two-Electron Energy =                 835.4998658399097167
    Total Energy =                       -535.9099517264287442
  Basis Set: (AUG-CC-PVTZ AUX)
    Blend: AUG-CC-PVTZ-RI
    Molecular point group: c1

    Geometry (in Angstrom), charge = 0, multiplicity = 1:

       Center              X                  Y                   Z               Mass
    ------------   -----------------  -----------------  -----------------  -----------------
         O            0.077392960867     0.124860517827    -0.404773802429    15.994914619570
         O           -1.309187139133    -1.616121282173    -0.241536002429    15.994914619570
         O            1.110321860867    -1.074001282173     1.114104997571    15.994914619570
         C           -2.342336139133     0.590954717827    -0.270848002429    12.000000000000
         C            2.394417860867     0.227964717827    -0.497249002429    12.000000000000
         C           -1.215763139133    -0.411810282173    -0.288176002429    12.000000000000
         C            1.155312860867    -0.315247282173     0.172939997571    12.000000000000
         C           -3.679829139133    -0.104617282173    -0.491267002429    12.000000000000
         C           -2.301190139133     1.364027717827     1.054240997571    12.000000000000
         C            2.471295860867     1.747653717827    -0.299731002429    12.000000000000
         C            3.635701860867    -0.482308282173     0.029080997571    12.000000000000
         H           -2.146576139133     1.298074717827    -1.086807002429     1.007825032230
         H            2.275565860867     0.027833717827    -1.569951002429     1.007825032230
         H           -4.486283139133     0.633718717827    -0.511388002429     1.007825032230
         H           -3.688914139133    -0.655980282173    -1.434529002429     1.007825032230
         H           -3.876511139133    -0.816048282173     0.314305997571     1.007825032230
         H           -3.105861139133     2.104163717827     1.076989997571     1.007825032230
         H           -2.441457139133     0.680456717827     1.897308997571     1.007825032230
         H           -1.348342139133     1.882647717827     1.180788997571     1.007825032230
         H            2.537995860867     1.988292717827     0.766038997571     1.007825032230
         H            1.595502860867     2.248156717827    -0.716937002429     1.007825032230
         H            3.365493860867     2.139777717827    -0.792273002429     1.007825032230
         H            3.759350860867    -0.293288282173     1.098255997571     1.007825032230
         H            4.523511860867    -0.118009282173    -0.495374002429     1.007825032230
         H            3.564016860867    -1.562845282173    -0.113636002429     1.007825032230

  Basis Set: AUG-CC-PVTZ
    Blend: AUG-CC-PVTZ
  Basis Set: (AUG-CC-PVTZ AUX)
    Blend: AUG-CC-PVTZ-JKFIT
	 Reference Energy          =    -535.9099517264287442 [Eh]
	 Singles Energy            =      -0.0000000000000000 [Eh]
	 Same-Spin Energy          =      -0.5358264938397379 [Eh]
	 Opposite-Spin Energy      =      -1.7480820258829226 [Eh]
	 Correlation Energy        =      -2.2839085197226607 [Eh]
	 Total Energy              =    -538.1938602461514165 [Eh]

	 ================> DF-SCS-MP2 Energies <==================
	-----------------------------------------------------------
	 SCS Same-Spin Scale       =       0.3333333333333333 [-]
	 SCS Opposite-Spin Scale   =       1.2000000000000000 [-]
	 SCS Same-Spin Energy      =      -0.1786088312799126 [Eh]
	 SCS Opposite-Spin Energy  =      -2.0976984310595070 [Eh]
	 SCS Correlation Energy    =      -2.2763072623394196 [Eh]
	 SCS Total Energy          =    -538.1862589887681452 [Eh]
	-----------------------------------------------------------

  Dipole Moment: [D]
     X:    -0.6651      Y:     3.7092      Z:    -1.6390     Total:     4.1093

*** Psi4 exiting successfully. Buy a developer a beer!
