                               Psi4 1.3.2 release

  ==> Input File <==

--------------------------------------------------------------------------
#psi4
#
memory 32 gb

molecule  {
0 1
  O        0.0168640     0.1901590    -0.4020990
  O       -1.3273267    -1.6816690    -0.2384488
  O        1.1131790    -1.1413980     1.1162780
  C       -2.3394790     0.5235580    -0.2686750
  C        2.3972750     0.1605680    -0.4950760
  C       -1.2129060    -0.4792070    -0.2860030
  C        1.1581700    -0.3826440     0.1751130
  C       -3.6769720    -0.1720140    -0.4890940
  C       -2.2983330     1.2966310     1.0564140
  C        2.4741530     1.6802570    -0.2975580
  C        3.6385590    -0.5497050     0.0312540
  H       -2.1437190     1.2306780    -1.0846340
  H        2.2784230    -0.0395630    -1.5677780
  H       -4.4834260     0.5663220    -0.5092150
  H       -3.6860570    -0.7233770    -1.4323560
  H       -3.8736540    -0.8834450     0.3164790
  H       -3.1030040     2.0367670     1.0791630
  H       -2.4386000     0.6130600     1.8994820
  H       -1.3454850     1.8152510     1.1829620
  H        2.5408530     1.9208960     0.7682120
  H        1.5983600     2.1807600    -0.7147640
  H        3.3683510     2.0723810    -0.7901000
  H        3.7622080    -0.3606850     1.1004290
  H        4.5263690    -0.1854060    -0.4932010
  H        3.5668740    -1.6302420    -0.1114630
units angstrom
no_reorient  #important for SAPT in psi4, default
symmetry c1  #important for SAPT in psi4, default
}

set PROPERTIES_ORIGIN ["COM"]
properties('MP2/aug-cc-pvtz', properties = ['dipole'])
--------------------------------------------------------------------------

    Molecular point group: c1
  Charge       = 0
  Multiplicity = 1
  Basis Set: AUG-CC-PVTZ
    Blend: AUG-CC-PVTZ
  Basis Set: (AUG-CC-PVTZ AUX)
    Blend: AUG-CC-PVTZ-JKFIT

    Orbital Energies [Eh]
    ---------------------

    Doubly Occupied:

       1A    -20.625009     2A    -20.561841     3A    -20.561669
       4A    -11.395280     5A    -11.394349     6A    -11.259623
       7A    -11.257809     8A    -11.236331     9A    -11.234169
      10A    -11.223882    11A    -11.223345    12A     -1.481684
      13A     -1.402375    14A     -1.361657    15A     -1.108133
      16A     -1.094755    17A     -0.952304    18A     -0.946396
      19A     -0.936310    20A     -0.863352    21A     -0.791923
      22A     -0.735977    23A     -0.706265    24A     -0.702178
      25A     -0.675588    26A     -0.645689    27A     -0.629903
      28A     -0.615913    29A     -0.606757    30A     -0.576174
      31A     -0.567466    32A     -0.554080    33A     -0.551795
      34A     -0.536212    35A     -0.532772    36A     -0.528079
      37A     -0.503052    38A     -0.498568    39A     -0.494812
      40A     -0.491086    41A     -0.477897    42A     -0.468598
      43A     -0.432879

  @DF-RHF Final Energy:  -535.91204517103893

   => Energetics <=

    Nuclear Repulsion Energy =            648.4006816020203132
    One-Electron Energy =               -2017.7375806061822914
    Two-Electron Energy =                 833.4248538331230520
    Total Energy =                       -535.9120451710389261
  Basis Set: (AUG-CC-PVTZ AUX)
    Blend: AUG-CC-PVTZ-RI
    Molecular point group: c1

    Geometry (in Angstrom), charge = 0, multiplicity = 1:

       Center              X                  Y                   Z               Mass
    ------------   -----------------  -----------------  -----------------  -----------------
         O            0.022544143551     0.243943442944    -0.404415263760    15.994914619570
         O           -1.321646556449    -1.627884557056    -0.240765063760    15.994914619570
         O            1.118859143551    -1.087613557056     1.113961736240    15.994914619570
         C           -2.333798856449     0.577342442944    -0.270991263760    12.000000000000
         C            2.402955143551     0.214352442944    -0.497392263760    12.000000000000
         C           -1.207225856449    -0.425422557056    -0.288319263760    12.000000000000
         C            1.163850143551    -0.328859557056     0.172796736240    12.000000000000
         C           -3.671291856449    -0.118229557056    -0.491410263760    12.000000000000
         C           -2.292652856449     1.350415442944     1.054097736240    12.000000000000
         C            2.479833143551     1.734041442944    -0.299874263760    12.000000000000
         C            3.644239143551    -0.495920557056     0.028937736240    12.000000000000
         H           -2.138038856449     1.284462442944    -1.086950263760     1.007825032230
         H            2.284103143551     0.014221442944    -1.570094263760     1.007825032230
         H           -4.477745856449     0.620106442944    -0.511531263760     1.007825032230
         H           -3.680376856449    -0.669592557056    -1.434672263760     1.007825032230
         H           -3.867973856449    -0.829660557056     0.314162736240     1.007825032230
         H           -3.097323856449     2.090551442944     1.076846736240     1.007825032230
         H           -2.432919856449     0.666844442944     1.897165736240     1.007825032230
         H           -1.339804856449     1.869035442944     1.180645736240     1.007825032230
         H            2.546533143551     1.974680442944     0.765895736240     1.007825032230
         H            1.604040143551     2.234544442944    -0.717080263760     1.007825032230
         H            3.374031143551     2.126165442944    -0.792416263760     1.007825032230
         H            3.767888143551    -0.306900557056     1.098112736240     1.007825032230
         H            4.532049143551    -0.131621557056    -0.495517263760     1.007825032230
         H            3.572554143551    -1.576457557056    -0.113779263760     1.007825032230

  Basis Set: AUG-CC-PVTZ
    Blend: AUG-CC-PVTZ
  Basis Set: (AUG-CC-PVTZ AUX)
    Blend: AUG-CC-PVTZ-JKFIT
	 Reference Energy          =    -535.9120451710389261 [Eh]
	 Singles Energy            =      -0.0000000000000000 [Eh]
	 Same-Spin Energy          =      -0.5374283904138365 [Eh]
	 Opposite-Spin Energy      =      -1.7524641389550606 [Eh]
	 Correlation Energy        =      -2.2898925293688972 [Eh]
	 Total Energy              =    -538.2019377004078251 [Eh]

	 ================> DF-SCS-MP2 Energies <==================
	-----------------------------------------------------------
	 SCS Same-Spin Scale       =       0.3333333333333333 [-]
	 SCS Opposite-Spin Scale   =       1.2000000000000000 [-]
	 SCS Same-Spin Energy      =      -0.1791427968046121 [Eh]
	 SCS Opposite-Spin Energy  =      -2.1029569667460728 [Eh]
	 SCS Correlation Energy    =      -2.2820997635506850 [Eh]
	 SCS Total Energy          =    -538.1941449345896444 [Eh]
	-----------------------------------------------------------

  Dipole Moment: [D]
     X:     0.2639      Y:     3.3881      Z:    -1.4237     Total:     3.6846

*** Psi4 exiting successfully. Buy a developer a beer!
