                               Psi4 1.3.2 release

  ==> Input File <==

--------------------------------------------------------------------------
#psi4
#
memory 32 gb

molecule  {
0 1
  O        0.0168640     0.1901590    -0.4020990
  O       -1.3063300    -1.6835180    -0.2393630
  O        1.1131790    -1.1413980     1.1162780
  C       -2.3394790     0.5235580    -0.2686750
  C        2.3972750     0.1605680    -0.4950760
  C       -1.1464404    -0.3992980    -0.2692558
  C        1.1581700    -0.3826440     0.1751130
  C       -3.6769720    -0.1720140    -0.4890940
  C       -2.2983330     1.2966310     1.0564140
  C        2.4741530     1.6802570    -0.2975580
  C        3.6385590    -0.5497050     0.0312540
  H       -2.1437190     1.2306780    -1.0846340
  H        2.2784230    -0.0395630    -1.5677780
  H       -4.4834260     0.5663220    -0.5092150
  H       -3.6860570    -0.7233770    -1.4323560
  H       -3.8736540    -0.8834450     0.3164790
  H       -3.1030040     2.0367670     1.0791630
  H       -2.4386000     0.6130600     1.8994820
  H       -1.3454850     1.8152510     1.1829620
  H        2.5408530     1.9208960     0.7682120
  H        1.5983600     2.1807600    -0.7147640
  H        3.3683510     2.0723810    -0.7901000
  H        3.7622080    -0.3606850     1.1004290
  H        4.5263690    -0.1854060    -0.4932010
  H        3.5668740    -1.6302420    -0.1114630
units angstrom
no_reorient  #important for SAPT in psi4, default
symmetry c1  #important for SAPT in psi4, default
}

set PROPERTIES_ORIGIN ["COM"]
properties('MP2/aug-cc-pvtz', properties = ['dipole'])
--------------------------------------------------------------------------

    Molecular point group: c1
  Charge       = 0
  Multiplicity = 1
  Basis Set: AUG-CC-PVTZ
    Blend: AUG-CC-PVTZ
  Basis Set: (AUG-CC-PVTZ AUX)
    Blend: AUG-CC-PVTZ-JKFIT

    Orbital Energies [Eh]
    ---------------------

    Doubly Occupied:

       1A    -20.646028     2A    -20.571894     3A    -20.540213
       4A    -11.407149     5A    -11.396296     6A    -11.266846
       7A    -11.256967     8A    -11.241948     9A    -11.233802
      10A    -11.228769    11A    -11.221198    12A     -1.514313
      13A     -1.399482    14A     -1.321312    15A     -1.114505
      16A     -1.095556    17A     -0.969191    18A     -0.950423
      19A     -0.942500    20A     -0.866926    21A     -0.808478
      22A     -0.744765    23A     -0.715858    24A     -0.702742
      25A     -0.680866    26A     -0.648879    27A     -0.624792
      28A     -0.622013    29A     -0.598672    30A     -0.577898
      31A     -0.568558    32A     -0.559364    33A     -0.549123
      34A     -0.539919    35A     -0.530206    36A     -0.521839
      37A     -0.503835    38A     -0.499078    39A     -0.497357
      40A     -0.492813    41A     -0.469768    42A     -0.453679
      43A     -0.428078

  @DF-RHF Final Energy:  -535.89314128215483

   => Energetics <=

    Nuclear Repulsion Energy =            649.0849520173162546
    One-Electron Energy =               -2018.9083916323775156
    Two-Electron Energy =                 833.9302983329064318
    Total Energy =                       -535.8931412821548292
  Basis Set: (AUG-CC-PVTZ AUX)
    Blend: AUG-CC-PVTZ-RI
    Molecular point group: c1

    Geometry (in Angstrom), charge = 0, multiplicity = 1:

       Center              X                  Y                   Z               Mass
    ------------   -----------------  -----------------  -----------------  -----------------
         O            0.015374829638     0.238065094159    -0.405593951770    15.994914619570
         O           -1.307819170362    -1.635611905841    -0.242857951770    15.994914619570
         O            1.111689829638    -1.093491905841     1.112783048230    15.994914619570
         C           -2.340968170362     0.571464094159    -0.272169951770    12.000000000000
         C            2.395785829638     0.208474094159    -0.498570951770    12.000000000000
         C           -1.147929570362    -0.351391905841    -0.272750751770    12.000000000000
         C            1.156680829638    -0.334737905841     0.171618048230    12.000000000000
         C           -3.678461170362    -0.124107905841    -0.492588951770    12.000000000000
         C           -2.299822170362     1.344537094159     1.052919048230    12.000000000000
         C            2.472663829638     1.728163094159    -0.301052951770    12.000000000000
         C            3.637069829638    -0.501798905841     0.027759048230    12.000000000000
         H           -2.145208170362     1.278584094159    -1.088128951770     1.007825032230
         H            2.276933829638     0.008343094159    -1.571272951770     1.007825032230
         H           -4.484915170362     0.614228094159    -0.512709951770     1.007825032230
         H           -3.687546170362    -0.675470905841    -1.435850951770     1.007825032230
         H           -3.875143170362    -0.835538905841     0.312984048230     1.007825032230
         H           -3.104493170362     2.084673094159     1.075668048230     1.007825032230
         H           -2.440089170362     0.660966094159     1.895987048230     1.007825032230
         H           -1.346974170362     1.863157094159     1.179467048230     1.007825032230
         H            2.539363829638     1.968802094159     0.764717048230     1.007825032230
         H            1.596870829638     2.228666094159    -0.718258951770     1.007825032230
         H            3.366861829638     2.120287094159    -0.793594951770     1.007825032230
         H            3.760718829638    -0.312778905841     1.096934048230     1.007825032230
         H            4.524879829638    -0.137499905841    -0.496695951770     1.007825032230
         H            3.565384829638    -1.582335905841    -0.114957951770     1.007825032230

  Basis Set: AUG-CC-PVTZ
    Blend: AUG-CC-PVTZ
  Basis Set: (AUG-CC-PVTZ AUX)
    Blend: AUG-CC-PVTZ-JKFIT
	 Reference Energy          =    -535.8931412821548292 [Eh]
	 Singles Energy            =      -0.0000000000000000 [Eh]
	 Same-Spin Energy          =      -0.5389522298845602 [Eh]
	 Opposite-Spin Energy      =      -1.7554945549911340 [Eh]
	 Correlation Energy        =      -2.2944467848756940 [Eh]
	 Total Energy              =    -538.1875880670305605 [Eh]

	 ================> DF-SCS-MP2 Energies <==================
	-----------------------------------------------------------
	 SCS Same-Spin Scale       =       0.3333333333333333 [-]
	 SCS Opposite-Spin Scale   =       1.2000000000000000 [-]
	 SCS Same-Spin Energy      =      -0.1796507432948534 [Eh]
	 SCS Opposite-Spin Energy  =      -2.1065934659893606 [Eh]
	 SCS Correlation Energy    =      -2.2862442092842139 [Eh]
	 SCS Total Energy          =    -538.1793854914390067 [Eh]
	-----------------------------------------------------------

  Dipole Moment: [D]
     X:     1.0406      Y:     3.8346      Z:    -1.3592     Total:     4.1994

*** Psi4 exiting successfully. Buy a developer a beer!
