                               Psi4 1.3.2 release

  ==> Input File <==

--------------------------------------------------------------------------
#psi4
#
memory 32 gb

molecule  {
0 1
  O       -0.0329278     0.2746348    -0.4010569
  O       -1.3063300    -1.6835180    -0.2393630
  O        1.1131790    -1.1413980     1.1162780
  C       -2.3394790     0.5235580    -0.2686750
  C        2.3972750     0.1605680    -0.4950760
  C       -1.2129060    -0.4792070    -0.2860030
  C        1.1581700    -0.3826440     0.1751130
  C       -3.6769720    -0.1720140    -0.4890940
  C       -2.2983330     1.2966310     1.0564140
  C        2.4741530     1.6802570    -0.2975580
  C        3.6385590    -0.5497050     0.0312540
  H       -2.1437190     1.2306780    -1.0846340
  H        2.2784230    -0.0395630    -1.5677780
  H       -4.4834260     0.5663220    -0.5092150
  H       -3.6860570    -0.7233770    -1.4323560
  H       -3.8736540    -0.8834450     0.3164790
  H       -3.1030040     2.0367670     1.0791630
  H       -2.4386000     0.6130600     1.8994820
  H       -1.3454850     1.8152510     1.1829620
  H        2.5408530     1.9208960     0.7682120
  H        1.5983600     2.1807600    -0.7147640
  H        3.3683510     2.0723810    -0.7901000
  H        3.7622080    -0.3606850     1.1004290
  H        4.5263690    -0.1854060    -0.4932010
  H        3.5668740    -1.6302420    -0.1114630
units angstrom
no_reorient  #important for SAPT in psi4, default
symmetry c1  #important for SAPT in psi4, default
}

set PROPERTIES_ORIGIN ["COM"]
properties('MP2/aug-cc-pvtz', properties = ['dipole'])
--------------------------------------------------------------------------

    Molecular point group: c1
  Charge       = 0
  Multiplicity = 1
  Basis Set: AUG-CC-PVTZ
    Blend: AUG-CC-PVTZ
  Basis Set: (AUG-CC-PVTZ AUX)
    Blend: AUG-CC-PVTZ-JKFIT

    Orbital Energies [Eh]
    ---------------------

    Doubly Occupied:

       1A    -20.623030     2A    -20.575094     3A    -20.560466
       4A    -11.404496     5A    -11.389868     6A    -11.264167
       7A    -11.251606     8A    -11.238076     9A    -11.230432
      10A    -11.227079    11A    -11.219492    12A     -1.466941
      13A     -1.405696    14A     -1.359374    15A     -1.108258
      16A     -1.092102    17A     -0.951555    18A     -0.943307
      19A     -0.926726    20A     -0.863022    21A     -0.778531
      22A     -0.738342    23A     -0.703195    24A     -0.699324
      25A     -0.672017    26A     -0.646727    27A     -0.628792
      28A     -0.615852    29A     -0.604529    30A     -0.578369
      31A     -0.564215    32A     -0.555614    33A     -0.549207
      34A     -0.539492    35A     -0.534344    36A     -0.528918
      37A     -0.502816    38A     -0.496398    39A     -0.495988
      40A     -0.490158    41A     -0.480701    42A     -0.468141
      43A     -0.430434

  @DF-RHF Final Energy:  -535.90134572162481

   => Energetics <=

    Nuclear Repulsion Energy =            647.1881944344156636
    One-Electron Energy =               -2015.3732904077678540
    Two-Electron Energy =                 832.2837502517273833
    Total Energy =                       -535.9013457216248071
  Basis Set: (AUG-CC-PVTZ AUX)
    Blend: AUG-CC-PVTZ-RI
    Molecular point group: c1

    Geometry (in Angstrom), charge = 0, multiplicity = 1:

       Center              X                  Y                   Z               Mass
    ------------   -----------------  -----------------  -----------------  -----------------
         O           -0.024334362405     0.320059620498    -0.403386103820    15.994914619570
         O           -1.297736562405    -1.638093179502    -0.241692203820    15.994914619570
         O            1.121772437595    -1.095973179502     1.113948796180    15.994914619570
         C           -2.330885562405     0.568982820498    -0.271004203820    12.000000000000
         C            2.405868437595     0.205992820498    -0.497405203820    12.000000000000
         C           -1.204312562405    -0.433782179502    -0.288332203820    12.000000000000
         C            1.166763437595    -0.337219179502     0.172783796180    12.000000000000
         C           -3.668378562405    -0.126589179502    -0.491423203820    12.000000000000
         C           -2.289739562405     1.342055820498     1.054084796180    12.000000000000
         C            2.482746437595     1.725681820498    -0.299887203820    12.000000000000
         C            3.647152437595    -0.504280179502     0.028924796180    12.000000000000
         H           -2.135125562405     1.276102820498    -1.086963203820     1.007825032230
         H            2.287016437595     0.005861820498    -1.570107203820     1.007825032230
         H           -4.474832562405     0.611746820498    -0.511544203820     1.007825032230
         H           -3.677463562405    -0.677952179502    -1.434685203820     1.007825032230
         H           -3.865060562405    -0.838020179502     0.314149796180     1.007825032230
         H           -3.094410562405     2.082191820498     1.076833796180     1.007825032230
         H           -2.430006562405     0.658484820498     1.897152796180     1.007825032230
         H           -1.336891562405     1.860675820498     1.180632796180     1.007825032230
         H            2.549446437595     1.966320820498     0.765882796180     1.007825032230
         H            1.606953437595     2.226184820498    -0.717093203820     1.007825032230
         H            3.376944437595     2.117805820498    -0.792429203820     1.007825032230
         H            3.770801437595    -0.315260179502     1.098099796180     1.007825032230
         H            4.534962437595    -0.139981179502    -0.495530203820     1.007825032230
         H            3.575467437595    -1.584817179502    -0.113792203820     1.007825032230

  Basis Set: AUG-CC-PVTZ
    Blend: AUG-CC-PVTZ
  Basis Set: (AUG-CC-PVTZ AUX)
    Blend: AUG-CC-PVTZ-JKFIT
	 Reference Energy          =    -535.9013457216248071 [Eh]
	 Singles Energy            =      -0.0000000000000000 [Eh]
	 Same-Spin Energy          =      -0.5390343890151508 [Eh]
	 Opposite-Spin Energy      =      -1.7564595735029567 [Eh]
	 Correlation Energy        =      -2.2954939625181074 [Eh]
	 Total Energy              =    -538.1968396841429012 [Eh]

	 ================> DF-SCS-MP2 Energies <==================
	-----------------------------------------------------------
	 SCS Same-Spin Scale       =       0.3333333333333333 [-]
	 SCS Opposite-Spin Scale   =       1.2000000000000000 [-]
	 SCS Same-Spin Energy      =      -0.1796781296717169 [Eh]
	 SCS Opposite-Spin Energy  =      -2.1077514882035477 [Eh]
	 SCS Correlation Energy    =      -2.2874296178752647 [Eh]
	 SCS Total Energy          =    -538.1887753395001255 [Eh]
	-----------------------------------------------------------

  Dipole Moment: [D]
     X:     0.7980      Y:     3.2032      Z:    -1.2935     Total:     3.5455

*** Psi4 exiting successfully. Buy a developer a beer!
