                               Psi4 1.3.2 release

  ==> Input File <==

--------------------------------------------------------------------------
#psi4
#
memory 32 gb

molecule  {
0 1
  O        0.0168640     0.1901590    -0.4020990
  O       -1.3063300    -1.6835180    -0.2393630
  O        1.1131790    -1.1413980     1.1162780
  C       -2.3394790     0.5235580    -0.2686750
  C        2.3972750     0.1605680    -0.4950760
  C       -1.2238616    -0.4915244    -0.2654787
  C        1.1581700    -0.3826440     0.1751130
  C       -3.6769720    -0.1720140    -0.4890940
  C       -2.2983330     1.2966310     1.0564140
  C        2.4741530     1.6802570    -0.2975580
  C        3.6385590    -0.5497050     0.0312540
  H       -2.1437190     1.2306780    -1.0846340
  H        2.2784230    -0.0395630    -1.5677780
  H       -4.4834260     0.5663220    -0.5092150
  H       -3.6860570    -0.7233770    -1.4323560
  H       -3.8736540    -0.8834450     0.3164790
  H       -3.1030040     2.0367670     1.0791630
  H       -2.4386000     0.6130600     1.8994820
  H       -1.3454850     1.8152510     1.1829620
  H        2.5408530     1.9208960     0.7682120
  H        1.5983600     2.1807600    -0.7147640
  H        3.3683510     2.0723810    -0.7901000
  H        3.7622080    -0.3606850     1.1004290
  H        4.5263690    -0.1854060    -0.4932010
  H        3.5668740    -1.6302420    -0.1114630
units angstrom
no_reorient  #important for SAPT in psi4, default
symmetry c1  #important for SAPT in psi4, default
}

set PROPERTIES_ORIGIN ["COM"]
properties('MP2/aug-cc-pvtz', properties = ['dipole'])
--------------------------------------------------------------------------

    Molecular point group: c1
  Charge       = 0
  Multiplicity = 1
  Basis Set: AUG-CC-PVTZ
    Blend: AUG-CC-PVTZ
  Basis Set: (AUG-CC-PVTZ AUX)
    Blend: AUG-CC-PVTZ-JKFIT

    Orbital Energies [Eh]
    ---------------------

    Doubly Occupied:

       1A    -20.619751     2A    -20.565156     3A    -20.558891
       4A    -11.393832     5A    -11.392296     6A    -11.259437
       7A    -11.257762     8A    -11.234938     9A    -11.234725
      10A    -11.224766    11A    -11.222578    12A     -1.478502
      13A     -1.407430    14A     -1.360077    15A     -1.107856
      16A     -1.094675    17A     -0.950796    18A     -0.946422
      19A     -0.933045    20A     -0.862672    21A     -0.788300
      22A     -0.735835    23A     -0.705762    24A     -0.701318
      25A     -0.675139    26A     -0.645189    27A     -0.630754
      28A     -0.615209    29A     -0.607240    30A     -0.575694
      31A     -0.566997    32A     -0.554029    33A     -0.551563
      34A     -0.537706    35A     -0.531757    36A     -0.530901
      37A     -0.503307    38A     -0.497983    39A     -0.494529
      40A     -0.491310    41A     -0.477840    42A     -0.468325
      43A     -0.432044

  @DF-RHF Final Energy:  -535.91248049454157

   => Energetics <=

    Nuclear Repulsion Energy =            648.5234422395433285
    One-Electron Energy =               -2018.0231674970780205
    Two-Electron Energy =                 833.5872447629931230
    Total Energy =                       -535.9124804945415690
  Basis Set: (AUG-CC-PVTZ AUX)
    Blend: AUG-CC-PVTZ-RI
    Molecular point group: c1

    Geometry (in Angstrom), charge = 0, multiplicity = 1:

       Center              X                  Y                   Z               Mass
    ------------   -----------------  -----------------  -----------------  -----------------
         O            0.021251413635     0.245065453057    -0.405880649024    15.994914619570
         O           -1.301942586365    -1.628611546943    -0.243144649024    15.994914619570
         O            1.117566413635    -1.086491546943     1.112496350976    15.994914619570
         C           -2.335091586365     0.578464453057    -0.272456649024    12.000000000000
         C            2.401662413635     0.215474453057    -0.498857649024    12.000000000000
         C           -1.219474186365    -0.436617946943    -0.269260349024    12.000000000000
         C            1.162557413635    -0.327737546943     0.171331350976    12.000000000000
         C           -3.672584586365    -0.117107546943    -0.492875649024    12.000000000000
         C           -2.293945586365     1.351537453057     1.052632350976    12.000000000000
         C            2.478540413635     1.735163453057    -0.301339649024    12.000000000000
         C            3.642946413635    -0.494798546943     0.027472350976    12.000000000000
         H           -2.139331586365     1.285584453057    -1.088415649024     1.007825032230
         H            2.282810413635     0.015343453057    -1.571559649024     1.007825032230
         H           -4.479038586365     0.621228453057    -0.512996649024     1.007825032230
         H           -3.681669586365    -0.668470546943    -1.436137649024     1.007825032230
         H           -3.869266586365    -0.828538546943     0.312697350976     1.007825032230
         H           -3.098616586365     2.091673453057     1.075381350976     1.007825032230
         H           -2.434212586365     0.667966453057     1.895700350976     1.007825032230
         H           -1.341097586365     1.870157453057     1.179180350976     1.007825032230
         H            2.545240413635     1.975802453057     0.764430350976     1.007825032230
         H            1.602747413635     2.235666453057    -0.718545649024     1.007825032230
         H            3.372738413635     2.127287453057    -0.793881649024     1.007825032230
         H            3.766595413635    -0.305778546943     1.096647350976     1.007825032230
         H            4.530756413635    -0.130499546943    -0.496982649024     1.007825032230
         H            3.571261413635    -1.575335546943    -0.115244649024     1.007825032230

  Basis Set: AUG-CC-PVTZ
    Blend: AUG-CC-PVTZ
  Basis Set: (AUG-CC-PVTZ AUX)
    Blend: AUG-CC-PVTZ-JKFIT
	 Reference Energy          =    -535.9124804945415690 [Eh]
	 Singles Energy            =      -0.0000000000000000 [Eh]
	 Same-Spin Energy          =      -0.5372673550552063 [Eh]
	 Opposite-Spin Energy      =      -1.7521069336712423 [Eh]
	 Correlation Energy        =      -2.2893742887264485 [Eh]
	 Total Energy              =    -538.2018547832680042 [Eh]

	 ================> DF-SCS-MP2 Energies <==================
	-----------------------------------------------------------
	 SCS Same-Spin Scale       =       0.3333333333333333 [-]
	 SCS Opposite-Spin Scale   =       1.2000000000000000 [-]
	 SCS Same-Spin Energy      =      -0.1790891183517354 [Eh]
	 SCS Opposite-Spin Energy  =      -2.1025283204054905 [Eh]
	 SCS Correlation Energy    =      -2.2816174387572259 [Eh]
	 SCS Total Energy          =    -538.1940979332988491 [Eh]
	-----------------------------------------------------------

  Dipole Moment: [D]
     X:     0.0289      Y:     3.3250      Z:    -1.4171     Total:     3.6145

*** Psi4 exiting successfully. Buy a developer a beer!
