                               Psi4 1.3.2 release

  ==> Input File <==

--------------------------------------------------------------------------
#psi4
#
memory 32 gb

molecule  {
0 1
  O        0.0168640     0.1901590    -0.4020990
  O       -1.3063300    -1.6835180    -0.2393630
  O        1.1131790    -1.1413980     1.1162780
  C       -2.3394790     0.5235580    -0.2686750
  C        2.3972750     0.1605680    -0.4950760
  C       -1.2303932    -0.4984356    -0.2901798
  C        1.1581700    -0.3826440     0.1751130
  C       -3.6769720    -0.1720140    -0.4890940
  C       -2.2983330     1.2966310     1.0564140
  C        2.4741530     1.6802570    -0.2975580
  C        3.6385590    -0.5497050     0.0312540
  H       -2.1437190     1.2306780    -1.0846340
  H        2.2784230    -0.0395630    -1.5677780
  H       -4.4834260     0.5663220    -0.5092150
  H       -3.6860570    -0.7233770    -1.4323560
  H       -3.8736540    -0.8834450     0.3164790
  H       -3.1030040     2.0367670     1.0791630
  H       -2.4386000     0.6130600     1.8994820
  H       -1.3454850     1.8152510     1.1829620
  H        2.5408530     1.9208960     0.7682120
  H        1.5983600     2.1807600    -0.7147640
  H        3.3683510     2.0723810    -0.7901000
  H        3.7622080    -0.3606850     1.1004290
  H        4.5263690    -0.1854060    -0.4932010
  H        3.5668740    -1.6302420    -0.1114630
units angstrom
no_reorient  #important for SAPT in psi4, default
symmetry c1  #important for SAPT in psi4, default
}

set PROPERTIES_ORIGIN ["COM"]
properties('MP2/aug-cc-pvtz', properties = ['dipole'])
--------------------------------------------------------------------------

    Molecular point group: c1
  Charge       = 0
  Multiplicity = 1
  Basis Set: AUG-CC-PVTZ
    Blend: AUG-CC-PVTZ
  Basis Set: (AUG-CC-PVTZ AUX)
    Blend: AUG-CC-PVTZ-JKFIT

    Orbital Energies [Eh]
    ---------------------

    Doubly Occupied:

       1A    -20.617257     2A    -20.566776     3A    -20.557993
       4A    -11.393683     5A    -11.391241     6A    -11.259779
       7A    -11.257113     8A    -11.235031     9A    -11.234389
      10A    -11.224993    11A    -11.222114    12A     -1.477353
      13A     -1.410273    14A     -1.359277    15A     -1.107536
      16A     -1.094296    17A     -0.950254    18A     -0.946230
      19A     -0.932252    20A     -0.862645    21A     -0.787521
      22A     -0.735305    23A     -0.705054    24A     -0.700701
      25A     -0.675226    26A     -0.644817    27A     -0.631401
      28A     -0.614642    29A     -0.607367    30A     -0.575515
      31A     -0.566715    32A     -0.554024    33A     -0.551288
      34A     -0.538563    35A     -0.532089    36A     -0.531106
      37A     -0.503174    38A     -0.497718    39A     -0.494370
      40A     -0.491322    41A     -0.477749    42A     -0.468148
      43A     -0.431805

  @DF-RHF Final Energy:  -535.91269191129277

   => Energetics <=

    Nuclear Repulsion Energy =            648.4047953758015410
    One-Electron Energy =               -2017.8027643564500977
    Two-Electron Energy =                 833.4852770693557886
    Total Energy =                       -535.9126919112927681
  Basis Set: (AUG-CC-PVTZ AUX)
    Blend: AUG-CC-PVTZ-RI
    Molecular point group: c1

    Geometry (in Angstrom), charge = 0, multiplicity = 1:

       Center              X                  Y                   Z               Mass
    ------------   -----------------  -----------------  -----------------  -----------------
         O            0.021747188643     0.245590041249    -0.404005735060    15.994914619570
         O           -1.301446811357    -1.628086958751    -0.241269735060    15.994914619570
         O            1.118062188643    -1.085966958751     1.114371264940    15.994914619570
         C           -2.334595811357     0.578989041249    -0.270581735060    12.000000000000
         C            2.402158188643     0.215999041249    -0.496982735060    12.000000000000
         C           -1.225510011357    -0.443004558751    -0.292086535060    12.000000000000
         C            1.163053188643    -0.327212958751     0.173206264940    12.000000000000
         C           -3.672088811357    -0.116582958751    -0.491000735060    12.000000000000
         C           -2.293449811357     1.352062041249     1.054507264940    12.000000000000
         C            2.479036188643     1.735688041249    -0.299464735060    12.000000000000
         C            3.643442188643    -0.494273958751     0.029347264940    12.000000000000
         H           -2.138835811357     1.286109041249    -1.086540735060     1.007825032230
         H            2.283306188643     0.015868041249    -1.569684735060     1.007825032230
         H           -4.478542811357     0.621753041249    -0.511121735060     1.007825032230
         H           -3.681173811357    -0.667945958751    -1.434262735060     1.007825032230
         H           -3.868770811357    -0.828013958751     0.314572264940     1.007825032230
         H           -3.098120811357     2.092198041249     1.077256264940     1.007825032230
         H           -2.433716811357     0.668491041249     1.897575264940     1.007825032230
         H           -1.340601811357     1.870682041249     1.181055264940     1.007825032230
         H            2.545736188643     1.976327041249     0.766305264940     1.007825032230
         H            1.603243188643     2.236191041249    -0.716670735060     1.007825032230
         H            3.373234188643     2.127812041249    -0.792006735060     1.007825032230
         H            3.767091188643    -0.305253958751     1.098522264940     1.007825032230
         H            4.531252188643    -0.129974958751    -0.495107735060     1.007825032230
         H            3.571757188643    -1.574810958751    -0.113369735060     1.007825032230

  Basis Set: AUG-CC-PVTZ
    Blend: AUG-CC-PVTZ
  Basis Set: (AUG-CC-PVTZ AUX)
    Blend: AUG-CC-PVTZ-JKFIT
	 Reference Energy          =    -535.9126919112927681 [Eh]
	 Singles Energy            =      -0.0000000000000000 [Eh]
	 Same-Spin Energy          =      -0.5371491264742307 [Eh]
	 Opposite-Spin Energy      =      -1.7518399876654493 [Eh]
	 Correlation Energy        =      -2.2889891141396799 [Eh]
	 Total Energy              =    -538.2016810254324355 [Eh]

	 ================> DF-SCS-MP2 Energies <==================
	-----------------------------------------------------------
	 SCS Same-Spin Scale       =       0.3333333333333333 [-]
	 SCS Opposite-Spin Scale   =       1.2000000000000000 [-]
	 SCS Same-Spin Energy      =      -0.1790497088247436 [Eh]
	 SCS Opposite-Spin Energy  =      -2.1022079851985391 [Eh]
	 SCS Correlation Energy    =      -2.2812576940232825 [Eh]
	 SCS Total Energy          =    -538.1939496053161065 [Eh]
	-----------------------------------------------------------

  Dipole Moment: [D]
     X:    -0.0405      Y:     3.2871      Z:    -1.4390     Total:     3.5885

*** Psi4 exiting successfully. Buy a developer a beer!
