                               Psi4 1.3.2 release

  ==> Input File <==

--------------------------------------------------------------------------
#psi4
#
memory 32 gb

molecule  {
0 1
  O        0.0805112     0.0576265    -0.3988976
  O       -1.3063300    -1.6835180    -0.2393630
  O        1.1131790    -1.1413980     1.1162780
  C       -2.3394790     0.5235580    -0.2686750
  C        2.3972750     0.1605680    -0.4950760
  C       -1.2129060    -0.4792070    -0.2860030
  C        1.1581700    -0.3826440     0.1751130
  C       -3.6769720    -0.1720140    -0.4890940
  C       -2.2983330     1.2966310     1.0564140
  C        2.4741530     1.6802570    -0.2975580
  C        3.6385590    -0.5497050     0.0312540
  H       -2.1437190     1.2306780    -1.0846340
  H        2.2784230    -0.0395630    -1.5677780
  H       -4.4834260     0.5663220    -0.5092150
  H       -3.6860570    -0.7233770    -1.4323560
  H       -3.8736540    -0.8834450     0.3164790
  H       -3.1030040     2.0367670     1.0791630
  H       -2.4386000     0.6130600     1.8994820
  H       -1.3454850     1.8152510     1.1829620
  H        2.5408530     1.9208960     0.7682120
  H        1.5983600     2.1807600    -0.7147640
  H        3.3683510     2.0723810    -0.7901000
  H        3.7622080    -0.3606850     1.1004290
  H        4.5263690    -0.1854060    -0.4932010
  H        3.5668740    -1.6302420    -0.1114630
units angstrom
no_reorient  #important for SAPT in psi4, default
symmetry c1  #important for SAPT in psi4, default
}

set PROPERTIES_ORIGIN ["COM"]
properties('MP2/aug-cc-pvtz', properties = ['dipole'])
--------------------------------------------------------------------------

    Molecular point group: c1
  Charge       = 0
  Multiplicity = 1
  Basis Set: AUG-CC-PVTZ
    Blend: AUG-CC-PVTZ
  Basis Set: (AUG-CC-PVTZ AUX)
    Blend: AUG-CC-PVTZ-JKFIT

    Orbital Energies [Eh]
    ---------------------

    Doubly Occupied:

       1A    -20.622096     2A    -20.563662     3A    -20.537383
       4A    -11.401753     5A    -11.378976     6A    -11.269668
       7A    -11.252565     8A    -11.240666     9A    -11.233315
      10A    -11.230700    11A    -11.218571    12A     -1.509398
      13A     -1.400976    14A     -1.354426    15A     -1.112701
      16A     -1.094876    17A     -0.965131    18A     -0.950503
      19A     -0.941604    20A     -0.866229    21A     -0.810254
      22A     -0.733845    23A     -0.714103    24A     -0.698902
      25A     -0.682456    26A     -0.644569    27A     -0.635160
      28A     -0.615046    29A     -0.606047    30A     -0.576242
      31A     -0.568661    32A     -0.557543    33A     -0.549312
      34A     -0.540276    35A     -0.528773    36A     -0.522251
      37A     -0.506966    38A     -0.498783    39A     -0.496171
      40A     -0.488501    41A     -0.468950    42A     -0.464619
      43A     -0.430826

  @DF-RHF Final Energy:  -535.90976346030084

   => Energetics <=

    Nuclear Repulsion Energy =            650.6085553506594579
    One-Electron Energy =               -2022.0697224098428251
    Two-Electron Energy =                 835.5514035988826436
    Total Energy =                       -535.9097634603008373
  Basis Set: (AUG-CC-PVTZ AUX)
    Blend: AUG-CC-PVTZ-RI
    Molecular point group: c1

    Geometry (in Angstrom), charge = 0, multiplicity = 1:

       Center              X                  Y                   Z               Mass
    ------------   -----------------  -----------------  -----------------  -----------------
         O            0.077627644529     0.125006756938    -0.401445267233    15.994914619570
         O           -1.309213555471    -1.616137743062    -0.241910667233    15.994914619570
         O            1.110295444529    -1.074017743062     1.113730332767    15.994914619570
         C           -2.342362555471     0.590938256938    -0.271222667233    12.000000000000
         C            2.394391444529     0.227948256938    -0.497623667233    12.000000000000
         C           -1.215789555471    -0.411826743062    -0.288550667233    12.000000000000
         C            1.155286444529    -0.315263743062     0.172565332767    12.000000000000
         C           -3.679855555471    -0.104633743062    -0.491641667233    12.000000000000
         C           -2.301216555471     1.364011256938     1.053866332767    12.000000000000
         C            2.471269444529     1.747637256938    -0.300105667233    12.000000000000
         C            3.635675444529    -0.482324743062     0.028706332767    12.000000000000
         H           -2.146602555471     1.298058256938    -1.087181667233     1.007825032230
         H            2.275539444529     0.027817256938    -1.570325667233     1.007825032230
         H           -4.486309555471     0.633702256938    -0.511762667233     1.007825032230
         H           -3.688940555471    -0.655996743062    -1.434903667233     1.007825032230
         H           -3.876537555471    -0.816064743062     0.313931332767     1.007825032230
         H           -3.105887555471     2.104147256938     1.076615332767     1.007825032230
         H           -2.441483555471     0.680440256938     1.896934332767     1.007825032230
         H           -1.348368555471     1.882631256938     1.180414332767     1.007825032230
         H            2.537969444529     1.988276256938     0.765664332767     1.007825032230
         H            1.595476444529     2.248140256938    -0.717311667233     1.007825032230
         H            3.365467444529     2.139761256938    -0.792647667233     1.007825032230
         H            3.759324444529    -0.293304743062     1.097881332767     1.007825032230
         H            4.523485444529    -0.118025743062    -0.495748667233     1.007825032230
         H            3.563990444529    -1.562861743062    -0.114010667233     1.007825032230

  Basis Set: AUG-CC-PVTZ
    Blend: AUG-CC-PVTZ
  Basis Set: (AUG-CC-PVTZ AUX)
    Blend: AUG-CC-PVTZ-JKFIT
	 Reference Energy          =    -535.9097634603008373 [Eh]
	 Singles Energy            =      -0.0000000000000000 [Eh]
	 Same-Spin Energy          =      -0.5358094390985769 [Eh]
	 Opposite-Spin Energy      =      -1.7480197963158308 [Eh]
	 Correlation Energy        =      -2.2838292354144079 [Eh]
	 Total Energy              =    -538.1935926957152105 [Eh]

	 ================> DF-SCS-MP2 Energies <==================
	-----------------------------------------------------------
	 SCS Same-Spin Scale       =       0.3333333333333333 [-]
	 SCS Opposite-Spin Scale   =       1.2000000000000000 [-]
	 SCS Same-Spin Energy      =      -0.1786031463661923 [Eh]
	 SCS Opposite-Spin Energy  =      -2.0976237555789967 [Eh]
	 SCS Correlation Energy    =      -2.2762269019451891 [Eh]
	 SCS Total Energy          =    -538.1859903622460024 [Eh]
	-----------------------------------------------------------

  Dipole Moment: [D]
     X:    -0.6737      Y:     3.7125      Z:    -1.6459     Total:     4.1165

*** Psi4 exiting successfully. Buy a developer a beer!
