                               Psi4 1.4a3.dev225

  ==> Input File <==

--------------------------------------------------------------------------
#psi4
#
memory 32 gb

molecule  {
0 1
  O        0.0168770     0.1900940    -0.4022940
  O       -1.3063670    -1.6835610    -0.2394920
  O        1.1130200    -1.1412560     1.1163620
  C       -2.3394820     0.5235460    -0.2686790
  C        2.3972900     0.1604980    -0.4950420
  C       -1.2502893    -0.4460134    -0.2855264
  C        1.1580970    -0.3826160     0.1751030
  C       -3.6770470    -0.1720400    -0.4887310
  C       -2.2980570     1.2968550     1.0562380
  C        2.4742070     1.6801910    -0.2976680
  C        3.6385230    -0.5497820     0.0314390
  H       -2.1438530     1.2305020    -1.0848160
  H        2.2785110    -0.0397390    -1.5677300
  H       -4.4835100     0.5662920    -0.5086310
  H       -3.6863850    -0.7233940    -1.4319940
  H       -3.8734940    -0.8834740     0.3168940
  H       -3.1026030     2.0371270     1.0789400
  H       -2.4383350     0.6134670     1.8994540
  H       -1.3451120     1.8153510     1.1825900
  H        2.5409520     1.9209190     0.7680790
  H        1.5984060     2.1806800    -0.7148800
  H        3.3683910     2.0722630    -0.7902800
  H        3.7619980    -0.3608140     1.1006380
  H        4.5264120    -0.1854560    -0.4928670
  H        3.5668710    -1.6303120    -0.1113440
units angstrom
no_reorient  #important for SAPT in psi4, default
symmetry c1  #important for SAPT in psi4, default
}

set PROPERTIES_ORIGIN ["COM"]
properties('MP2/aug-cc-pvtz', properties = ['dipole'])
--------------------------------------------------------------------------

    Molecular point group: c1
  Charge       = 0
  Multiplicity = 1
  Basis Set: AUG-CC-PVTZ
    Blend: AUG-CC-PVTZ
  Basis Set: (AUG-CC-PVTZ AUX)
    Blend: AUG-CC-PVTZ-JKFIT

    Orbital Energies [Eh]
    ---------------------

    Doubly Occupied:

       1A    -20.619954     2A    -20.560221     3A    -20.557807
       4A    -11.399229     5A    -11.392565     6A    -11.260861
       7A    -11.257968     8A    -11.238843     9A    -11.234910
      10A    -11.227357    11A    -11.222471    12A     -1.472241
      13A     -1.391120    14A     -1.347720    15A     -1.116277
      16A     -1.097172    17A     -0.953620    18A     -0.947758
      19A     -0.937269    20A     -0.869589    21A     -0.791152
      22A     -0.733533    23A     -0.703661    24A     -0.701160
      25A     -0.669405    26A     -0.643001    27A     -0.631586
      28A     -0.614289    29A     -0.604845    30A     -0.574342
      31A     -0.567903    32A     -0.555423    33A     -0.551465
      34A     -0.537978    35A     -0.530649    36A     -0.524446
      37A     -0.504800    38A     -0.499248    39A     -0.495276
      40A     -0.489496    41A     -0.470069    42A     -0.467606
      43A     -0.435244

  @DF-RHF Final Energy:  -535.90417076358085

   => Energetics <=

    Nuclear Repulsion Energy =            648.2141307593705051
    One-Electron Energy =               -2017.4335504470291198
    Two-Electron Energy =                 833.3152489240776504
    Total Energy =                       -535.9041707635808507
  Basis Set: (AUG-CC-PVTZ AUX)
    Blend: AUG-CC-PVTZ-RI
    Molecular point group: c1

    Geometry (in Angstrom), charge = 0, multiplicity = 1:

       Center              X                  Y                   Z               Mass
    ------------   -----------------  -----------------  -----------------  -----------------
         O            0.023272086050     0.241542371620    -0.404556406150    15.994914619570
         O           -1.299971913950    -1.632112628380    -0.241754406150    15.994914619570
         O            1.119415086050    -1.089807628380     1.114099593850    15.994914619570
         C           -2.333086913950     0.574994371620    -0.270941406150    12.000000000000
         C            2.403685086050     0.211946371620    -0.497304406150    12.000000000000
         C           -1.243894213950    -0.394565028380    -0.287788806150    12.000000000000
         C            1.164492086050    -0.331167628380     0.172840593850    12.000000000000
         C           -3.670651913950    -0.120591628380    -0.490993406150    12.000000000000
         C           -2.291661913950     1.348303371620     1.053975593850    12.000000000000
         C            2.480602086050     1.731639371620    -0.299930406150    12.000000000000
         C            3.644918086050    -0.498333628380     0.029176593850    12.000000000000
         H           -2.137457913950     1.281950371620    -1.087078406150     1.007825032230
         H            2.284906086050     0.011709371620    -1.569992406150     1.007825032230
         H           -4.477114913950     0.617740371620    -0.510893406150     1.007825032230
         H           -3.679989913950    -0.671945628380    -1.434256406150     1.007825032230
         H           -3.867098913950    -0.832025628380     0.314631593850     1.007825032230
         H           -3.096207913950     2.088575371620     1.076677593850     1.007825032230
         H           -2.431939913950     0.664915371620     1.897191593850     1.007825032230
         H           -1.338716913950     1.866799371620     1.180327593850     1.007825032230
         H            2.547347086050     1.972367371620     0.765816593850     1.007825032230
         H            1.604801086050     2.232128371620    -0.717142406150     1.007825032230
         H            3.374786086050     2.123711371620    -0.792542406150     1.007825032230
         H            3.768393086050    -0.309365628380     1.098375593850     1.007825032230
         H            4.532807086050    -0.134007628380    -0.495129406150     1.007825032230
         H            3.573266086050    -1.578863628380    -0.113606406150     1.007825032230

  Basis Set: AUG-CC-PVTZ
    Blend: AUG-CC-PVTZ
  Basis Set: (AUG-CC-PVTZ AUX)
    Blend: AUG-CC-PVTZ-JKFIT
	 Reference Energy          =    -535.9041707635808507 [Eh]
	 Singles Energy            =      -0.0000000000000000 [Eh]
	 Same-Spin Energy          =      -0.5387882755029980 [Eh]
	 Opposite-Spin Energy      =      -1.7549685270325392 [Eh]
	 Correlation Energy        =      -2.2937568025355373 [Eh]
	 Total Energy              =    -538.1979275661163911 [Eh]

	 ================> DF-SCS-MP2 Energies <==================
	-----------------------------------------------------------
	 SCS Same-Spin Scale       =       0.3333333333333333 [-]
	 SCS Opposite-Spin Scale   =       1.2000000000000000 [-]
	 SCS Same-Spin Energy      =      -0.1795960918343327 [Eh]
	 SCS Opposite-Spin Energy  =      -2.1059622324390470 [Eh]
	 SCS Correlation Energy    =      -2.2855583242733797 [Eh]
	 SCS Total Energy          =    -538.1897290878541753 [Eh]
	-----------------------------------------------------------

  Dipole Moment: [D]
     X:    -0.0937      Y:     3.5690      Z:    -1.4026     Total:     3.8358

*** Psi4 exiting successfully. Buy a developer a beer!
