                               Psi4 1.3.2 release

  ==> Input File <==

--------------------------------------------------------------------------
#psi4
#
memory 32 gb

molecule  {
0 1
  O        0.0168640     0.1901590    -0.4020990
  O       -1.3063300    -1.6835180    -0.2393630
  O        1.1131790    -1.1413980     1.1162780
  C       -2.3394790     0.5235580    -0.2686750
  C        2.3972750     0.1605680    -0.4950760
  C       -1.2236663    -0.4611882    -0.2986836
  C        1.1581700    -0.3826440     0.1751130
  C       -3.6769720    -0.1720140    -0.4890940
  C       -2.2983330     1.2966310     1.0564140
  C        2.4741530     1.6802570    -0.2975580
  C        3.6385590    -0.5497050     0.0312540
  H       -2.1437190     1.2306780    -1.0846340
  H        2.2784230    -0.0395630    -1.5677780
  H       -4.4834260     0.5663220    -0.5092150
  H       -3.6860570    -0.7233770    -1.4323560
  H       -3.8736540    -0.8834450     0.3164790
  H       -3.1030040     2.0367670     1.0791630
  H       -2.4386000     0.6130600     1.8994820
  H       -1.3454850     1.8152510     1.1829620
  H        2.5408530     1.9208960     0.7682120
  H        1.5983600     2.1807600    -0.7147640
  H        3.3683510     2.0723810    -0.7901000
  H        3.7622080    -0.3606850     1.1004290
  H        4.5263690    -0.1854060    -0.4932010
  H        3.5668740    -1.6302420    -0.1114630
units angstrom
no_reorient  #important for SAPT in psi4, default
symmetry c1  #important for SAPT in psi4, default
}

set PROPERTIES_ORIGIN ["COM"]
properties('MP2/aug-cc-pvtz', properties = ['dipole'])
--------------------------------------------------------------------------

    Molecular point group: c1
  Charge       = 0
  Multiplicity = 1
  Basis Set: AUG-CC-PVTZ
    Blend: AUG-CC-PVTZ
  Basis Set: (AUG-CC-PVTZ AUX)
    Blend: AUG-CC-PVTZ-JKFIT

    Orbital Energies [Eh]
    ---------------------

    Doubly Occupied:

       1A    -20.623514     2A    -20.560441     3A    -20.559645
       4A    -11.396383     5A    -11.394685     6A    -11.259569
       7A    -11.259251     8A    -11.236293     9A    -11.235958
      10A    -11.225072    11A    -11.223481    12A     -1.479104
      13A     -1.395659    14A     -1.354834    15A     -1.110730
      16A     -1.096640    17A     -0.953071    18A     -0.947334
      19A     -0.937673    20A     -0.866298    21A     -0.793080
      22A     -0.734373    23A     -0.705156    24A     -0.701805
      25A     -0.672849    26A     -0.644386    27A     -0.630400
      28A     -0.615199    29A     -0.605742    30A     -0.575336
      31A     -0.567982    32A     -0.554201    33A     -0.552103
      34A     -0.536561    35A     -0.531952    36A     -0.525682
      37A     -0.503485    38A     -0.499208    39A     -0.495151
      40A     -0.490607    41A     -0.473631    42A     -0.468218
      43A     -0.434286

  @DF-RHF Final Energy:  -535.90931327621752

   => Energetics <=

    Nuclear Repulsion Energy =            648.3695340044708928
    One-Electron Energy =               -2017.7036410904784134
    Two-Electron Energy =                 833.4247938097898896
    Total Energy =                       -535.9093132762175173
  Basis Set: (AUG-CC-PVTZ AUX)
    Blend: AUG-CC-PVTZ-RI
    Molecular point group: c1

    Geometry (in Angstrom), charge = 0, multiplicity = 1:

       Center              X                  Y                   Z               Mass
    ------------   -----------------  -----------------  -----------------  -----------------
         O            0.021236589571     0.242762812082    -0.403360262050    15.994914619570
         O           -1.301957410429    -1.630914187918    -0.240624262050    15.994914619570
         O            1.117551589571    -1.088794187918     1.115016737950    15.994914619570
         C           -2.335106410429     0.576161812082    -0.269936262050    12.000000000000
         C            2.401647589571     0.213171812082    -0.496337262050    12.000000000000
         C           -1.219293710429    -0.408584387918    -0.299944862050    12.000000000000
         C            1.162542589571    -0.330040187918     0.173851737950    12.000000000000
         C           -3.672599410429    -0.119410187918    -0.490355262050    12.000000000000
         C           -2.293960410429     1.349234812082     1.055152737950    12.000000000000
         C            2.478525589571     1.732860812082    -0.298819262050    12.000000000000
         C            3.642931589571    -0.497101187918     0.029992737950    12.000000000000
         H           -2.139346410429     1.283281812082    -1.085895262050     1.007825032230
         H            2.282795589571     0.013040812082    -1.569039262050     1.007825032230
         H           -4.479053410429     0.618925812082    -0.510476262050     1.007825032230
         H           -3.681684410429    -0.670773187918    -1.433617262050     1.007825032230
         H           -3.869281410429    -0.830841187918     0.315217737950     1.007825032230
         H           -3.098631410429     2.089370812082     1.077901737950     1.007825032230
         H           -2.434227410429     0.665663812082     1.898220737950     1.007825032230
         H           -1.341112410429     1.867854812082     1.181700737950     1.007825032230
         H            2.545225589571     1.973499812082     0.766950737950     1.007825032230
         H            1.602732589571     2.233363812082    -0.716025262050     1.007825032230
         H            3.372723589571     2.124984812082    -0.791361262050     1.007825032230
         H            3.766580589571    -0.308081187918     1.099167737950     1.007825032230
         H            4.530741589571    -0.132802187918    -0.494462262050     1.007825032230
         H            3.571246589571    -1.577638187918    -0.112724262050     1.007825032230

  Basis Set: AUG-CC-PVTZ
    Blend: AUG-CC-PVTZ
  Basis Set: (AUG-CC-PVTZ AUX)
    Blend: AUG-CC-PVTZ-JKFIT
	 Reference Energy          =    -535.9093132762175173 [Eh]
	 Singles Energy            =      -0.0000000000000000 [Eh]
	 Same-Spin Energy          =      -0.5379839282324436 [Eh]
	 Opposite-Spin Energy      =      -1.7535031888919435 [Eh]
	 Correlation Energy        =      -2.2914871171243871 [Eh]
	 Total Energy              =    -538.2008003933418649 [Eh]

	 ================> DF-SCS-MP2 Energies <==================
	-----------------------------------------------------------
	 SCS Same-Spin Scale       =       0.3333333333333333 [-]
	 SCS Opposite-Spin Scale   =       1.2000000000000000 [-]
	 SCS Same-Spin Energy      =      -0.1793279760774812 [Eh]
	 SCS Opposite-Spin Energy  =      -2.1042038266703322 [Eh]
	 SCS Correlation Energy    =      -2.2835318027478135 [Eh]
	 SCS Total Energy          =    -538.1928450789653198 [Eh]
	-----------------------------------------------------------

  Dipole Moment: [D]
     X:     0.1458      Y:     3.4966      Z:    -1.4187     Total:     3.7763

*** Psi4 exiting successfully. Buy a developer a beer!
