                               Psi4 1.4a3.dev225

  ==> Input File <==

--------------------------------------------------------------------------
#psi4
#
memory 32 gb

molecule  {
0 1
  O        0.0168770     0.1900940    -0.4022940
  O       -1.3063670    -1.6835610    -0.2394920
  O        1.1130200    -1.1412560     1.1163620
  C       -2.3394820     0.5235460    -0.2686790
  C        2.3972900     0.1604980    -0.4950420
  C       -1.1691787    -0.4554355    -0.2902389
  C        1.1580970    -0.3826160     0.1751030
  C       -3.6770470    -0.1720400    -0.4887310
  C       -2.2980570     1.2968550     1.0562380
  C        2.4742070     1.6801910    -0.2976680
  C        3.6385230    -0.5497820     0.0314390
  H       -2.1438530     1.2305020    -1.0848160
  H        2.2785110    -0.0397390    -1.5677300
  H       -4.4835100     0.5662920    -0.5086310
  H       -3.6863850    -0.7233940    -1.4319940
  H       -3.8734940    -0.8834740     0.3168940
  H       -3.1026030     2.0371270     1.0789400
  H       -2.4383350     0.6134670     1.8994540
  H       -1.3451120     1.8153510     1.1825900
  H        2.5409520     1.9209190     0.7680790
  H        1.5984060     2.1806800    -0.7148800
  H        3.3683910     2.0722630    -0.7902800
  H        3.7619980    -0.3608140     1.1006380
  H        4.5264120    -0.1854560    -0.4928670
  H        3.5668710    -1.6303120    -0.1113440
units angstrom
no_reorient  #important for SAPT in psi4, default
symmetry c1  #important for SAPT in psi4, default
}

set PROPERTIES_ORIGIN ["COM"]
properties('MP2/aug-cc-pvtz', properties = ['dipole'])
--------------------------------------------------------------------------

    Molecular point group: c1
  Charge       = 0
  Multiplicity = 1
  Basis Set: AUG-CC-PVTZ
    Blend: AUG-CC-PVTZ
  Basis Set: (AUG-CC-PVTZ AUX)
    Blend: AUG-CC-PVTZ-JKFIT

    Orbital Energies [Eh]
    ---------------------

    Doubly Occupied:

       1A    -20.635441     2A    -20.567099     3A    -20.552527
       4A    -11.401178     5A    -11.393792     6A    -11.263215
       7A    -11.256827     8A    -11.239146     9A    -11.232802
      10A    -11.226371    11A    -11.221455    12A     -1.497178
      13A     -1.396987    14A     -1.355576    15A     -1.110069
      16A     -1.092792    17A     -0.958714    18A     -0.947033
      19A     -0.940611    20A     -0.862881    21A     -0.799511
      22A     -0.739616    23A     -0.711037    24A     -0.701171
      25A     -0.678912    26A     -0.646980    27A     -0.627349
      28A     -0.618572    29A     -0.604351    30A     -0.577715
      31A     -0.567935    32A     -0.556564    33A     -0.549969
      34A     -0.537153    35A     -0.532016    36A     -0.524343
      37A     -0.503298    38A     -0.498993    39A     -0.496330
      40A     -0.491291    41A     -0.472676    42A     -0.468865
      43A     -0.430822

  @DF-RHF Final Energy:  -535.90861407169075

   => Energetics <=

    Nuclear Repulsion Energy =            648.8218665255737960
    One-Electron Energy =               -2018.4866382714019437
    Two-Electron Energy =                 833.7561576741373983
    Total Energy =                       -535.9086140716907494
  Basis Set: (AUG-CC-PVTZ AUX)
    Blend: AUG-CC-PVTZ-RI
    Molecular point group: c1

    Geometry (in Angstrom), charge = 0, multiplicity = 1:

       Center              X                  Y                   Z               Mass
    ------------   -----------------  -----------------  -----------------  -----------------
         O            0.017115461586     0.242257547335    -0.404198708232    15.994914619570
         O           -1.306128538414    -1.631397452665    -0.241396708232    15.994914619570
         O            1.113258461586    -1.089092452665     1.114457291768    15.994914619570
         C           -2.339243538414     0.575709547335    -0.270583708232    12.000000000000
         C            2.397528461586     0.212661547335    -0.496946708232    12.000000000000
         C           -1.168940238414    -0.403271952665    -0.292143608232    12.000000000000
         C            1.158335461586    -0.330452452665     0.173198291768    12.000000000000
         C           -3.676808538414    -0.119876452665    -0.490635708232    12.000000000000
         C           -2.297818538414     1.349018547335     1.054333291768    12.000000000000
         C            2.474445461586     1.732354547335    -0.299572708232    12.000000000000
         C            3.638761461586    -0.497618452665     0.029534291768    12.000000000000
         H           -2.143614538414     1.282665547335    -1.086720708232     1.007825032230
         H            2.278749461586     0.012424547335    -1.569634708232     1.007825032230
         H           -4.483271538414     0.618455547335    -0.510535708232     1.007825032230
         H           -3.686146538414    -0.671230452665    -1.433898708232     1.007825032230
         H           -3.873255538414    -0.831310452665     0.314989291768     1.007825032230
         H           -3.102364538414     2.089290547335     1.077035291768     1.007825032230
         H           -2.438096538414     0.665630547335     1.897549291768     1.007825032230
         H           -1.344873538414     1.867514547335     1.180685291768     1.007825032230
         H            2.541190461586     1.973082547335     0.766174291768     1.007825032230
         H            1.598644461586     2.232843547335    -0.716784708232     1.007825032230
         H            3.368629461586     2.124426547335    -0.792184708232     1.007825032230
         H            3.762236461586    -0.308650452665     1.098733291768     1.007825032230
         H            4.526650461586    -0.133292452665    -0.494771708232     1.007825032230
         H            3.567109461586    -1.578148452665    -0.113248708232     1.007825032230

  Basis Set: AUG-CC-PVTZ
    Blend: AUG-CC-PVTZ
  Basis Set: (AUG-CC-PVTZ AUX)
    Blend: AUG-CC-PVTZ-JKFIT
	 Reference Energy          =    -535.9086140716907494 [Eh]
	 Singles Energy            =      -0.0000000000000000 [Eh]
	 Same-Spin Energy          =      -0.5376039777030315 [Eh]
	 Opposite-Spin Energy      =      -1.7529005353064311 [Eh]
	 Correlation Energy        =      -2.2905045130094628 [Eh]
	 Total Energy              =    -538.1991185847001589 [Eh]

	 ================> DF-SCS-MP2 Energies <==================
	-----------------------------------------------------------
	 SCS Same-Spin Scale       =       0.3333333333333333 [-]
	 SCS Opposite-Spin Scale   =       1.2000000000000000 [-]
	 SCS Same-Spin Energy      =      -0.1792013259010105 [Eh]
	 SCS Opposite-Spin Energy  =      -2.1034806423677170 [Eh]
	 SCS Correlation Energy    =      -2.2826819682687276 [Eh]
	 SCS Total Energy          =    -538.1912960399595249 [Eh]
	-----------------------------------------------------------

  Dipole Moment: [D]
     X:     0.7038      Y:     3.5448      Z:    -1.4048     Total:     3.8774

*** Psi4 exiting successfully. Buy a developer a beer!
