                               Psi4 1.3.2 release

  ==> Input File <==

--------------------------------------------------------------------------
#psi4
#
memory 32 gb

molecule  {
0 1
  O        0.0168640     0.1901590    -0.4020990
  O       -1.3063300    -1.6835180    -0.2393630
  O        1.1131790    -1.1413980     1.1162780
  C       -2.3394790     0.5235580    -0.2686750
  C        2.3972750     0.1605680    -0.4950760
  C       -1.1382150    -0.5456896    -0.2871518
  C        1.1581700    -0.3826440     0.1751130
  C       -3.6769720    -0.1720140    -0.4890940
  C       -2.2983330     1.2966310     1.0564140
  C        2.4741530     1.6802570    -0.2975580
  C        3.6385590    -0.5497050     0.0312540
  H       -2.1437190     1.2306780    -1.0846340
  H        2.2784230    -0.0395630    -1.5677780
  H       -4.4834260     0.5663220    -0.5092150
  H       -3.6860570    -0.7233770    -1.4323560
  H       -3.8736540    -0.8834450     0.3164790
  H       -3.1030040     2.0367670     1.0791630
  H       -2.4386000     0.6130600     1.8994820
  H       -1.3454850     1.8152510     1.1829620
  H        2.5408530     1.9208960     0.7682120
  H        1.5983600     2.1807600    -0.7147640
  H        3.3683510     2.0723810    -0.7901000
  H        3.7622080    -0.3606850     1.1004290
  H        4.5263690    -0.1854060    -0.4932010
  H        3.5668740    -1.6302420    -0.1114630
units angstrom
no_reorient  #important for SAPT in psi4, default
symmetry c1  #important for SAPT in psi4, default
}

set PROPERTIES_ORIGIN ["COM"]
properties('MP2/aug-cc-pvtz', properties = ['dipole'])
--------------------------------------------------------------------------

    Molecular point group: c1
  Charge       = 0
  Multiplicity = 1
  Basis Set: AUG-CC-PVTZ
    Blend: AUG-CC-PVTZ
  Basis Set: (AUG-CC-PVTZ AUX)
    Blend: AUG-CC-PVTZ-JKFIT

    Orbital Energies [Eh]
    ---------------------

    Doubly Occupied:

       1A    -20.630991     2A    -20.567040     3A    -20.564887
       4A    -11.398565     5A    -11.385966     6A    -11.261568
       7A    -11.252104     8A    -11.238115     9A    -11.226770
      10A    -11.225642    11A    -11.217722    12A     -1.501013
      13A     -1.429573    14A     -1.378796    15A     -1.106600
      16A     -1.079786    17A     -0.953074    18A     -0.942386
      19A     -0.934277    20A     -0.851790    21A     -0.790666
      22A     -0.743881    23A     -0.711258    24A     -0.704319
      25A     -0.686911    26A     -0.649702    27A     -0.630969
      28A     -0.618725    29A     -0.606604    30A     -0.580004
      31A     -0.565322    32A     -0.555879    33A     -0.549336
      34A     -0.542583    35A     -0.536899    36A     -0.533161
      37A     -0.504425    38A     -0.497061    39A     -0.493461
      40A     -0.488294    41A     -0.487047    42A     -0.468128
      43A     -0.418250

  @DF-RHF Final Energy:  -535.90670782184759

   => Energetics <=

    Nuclear Repulsion Energy =            649.2047291153148763
    One-Electron Energy =               -2019.2037745816292045
    Two-Electron Energy =                 834.0923376444667383
    Total Energy =                       -535.9067078218475899
  Basis Set: (AUG-CC-PVTZ AUX)
    Blend: AUG-CC-PVTZ-RI
    Molecular point group: c1

    Geometry (in Angstrom), charge = 0, multiplicity = 1:

       Center              X                  Y                   Z               Mass
    ------------   -----------------  -----------------  -----------------  -----------------
         O            0.014750488321     0.249176812059    -0.404235572576    15.994914619570
         O           -1.308443511679    -1.624500187941    -0.241499572576    15.994914619570
         O            1.111065488321    -1.082380187941     1.114141427424    15.994914619570
         C           -2.341592511679     0.582575812059    -0.270811572576    12.000000000000
         C            2.395161488321     0.219585812059    -0.497212572576    12.000000000000
         C           -1.140328511679    -0.486671787941    -0.289288372576    12.000000000000
         C            1.156056488321    -0.323626187941     0.172976427424    12.000000000000
         C           -3.679085511679    -0.112996187941    -0.491230572576    12.000000000000
         C           -2.300446511679     1.355648812059     1.054277427424    12.000000000000
         C            2.472039488321     1.739274812059    -0.299694572576    12.000000000000
         C            3.636445488321    -0.490687187941     0.029117427424    12.000000000000
         H           -2.145832511679     1.289695812059    -1.086770572576     1.007825032230
         H            2.276309488321     0.019454812059    -1.569914572576     1.007825032230
         H           -4.485539511679     0.625339812059    -0.511351572576     1.007825032230
         H           -3.688170511679    -0.664359187941    -1.434492572576     1.007825032230
         H           -3.875767511679    -0.824427187941     0.314342427424     1.007825032230
         H           -3.105117511679     2.095784812059     1.077026427424     1.007825032230
         H           -2.440713511679     0.672077812059     1.897345427424     1.007825032230
         H           -1.347598511679     1.874268812059     1.180825427424     1.007825032230
         H            2.538739488321     1.979913812059     0.766075427424     1.007825032230
         H            1.596246488321     2.239777812059    -0.716900572576     1.007825032230
         H            3.366237488321     2.131398812059    -0.792236572576     1.007825032230
         H            3.760094488321    -0.301667187941     1.098292427424     1.007825032230
         H            4.524255488321    -0.126388187941    -0.495337572576     1.007825032230
         H            3.564760488321    -1.571224187941    -0.113599572576     1.007825032230

  Basis Set: AUG-CC-PVTZ
    Blend: AUG-CC-PVTZ
  Basis Set: (AUG-CC-PVTZ AUX)
    Blend: AUG-CC-PVTZ-JKFIT
	 Reference Energy          =    -535.9067078218475899 [Eh]
	 Singles Energy            =      -0.0000000000000000 [Eh]
	 Same-Spin Energy          =      -0.5356432840322662 [Eh]
	 Opposite-Spin Energy      =      -1.7491291388527879 [Eh]
	 Correlation Energy        =      -2.2847724228850543 [Eh]
	 Total Energy              =    -538.1914802447325883 [Eh]

	 ================> DF-SCS-MP2 Energies <==================
	-----------------------------------------------------------
	 SCS Same-Spin Scale       =       0.3333333333333333 [-]
	 SCS Opposite-Spin Scale   =       1.2000000000000000 [-]
	 SCS Same-Spin Energy      =      -0.1785477613440887 [Eh]
	 SCS Opposite-Spin Energy  =      -2.0989549666233454 [Eh]
	 SCS Correlation Energy    =      -2.2775027279674340 [Eh]
	 SCS Total Energy          =    -538.1842105498150204 [Eh]
	-----------------------------------------------------------

  Dipole Moment: [D]
     X:     0.7807      Y:     3.0309      Z:    -1.4583     Total:     3.4530

*** Psi4 exiting successfully. Buy a developer a beer!
