                               Psi4 1.3.2 release

  ==> Input File <==

--------------------------------------------------------------------------
#psi4
#
memory 32 gb

molecule  {
0 1
  O        0.0168640     0.1901590    -0.4020990
  O       -1.3063300    -1.6835180    -0.2393630
  O        1.1131790    -1.1413980     1.1162780
  C       -2.3394790     0.5235580    -0.2686750
  C        2.3972750     0.1605680    -0.4950760
  C       -1.2051775    -0.3795808    -0.2898613
  C        1.1581700    -0.3826440     0.1751130
  C       -3.6769720    -0.1720140    -0.4890940
  C       -2.2983330     1.2966310     1.0564140
  C        2.4741530     1.6802570    -0.2975580
  C        3.6385590    -0.5497050     0.0312540
  H       -2.1437190     1.2306780    -1.0846340
  H        2.2784230    -0.0395630    -1.5677780
  H       -4.4834260     0.5663220    -0.5092150
  H       -3.6860570    -0.7233770    -1.4323560
  H       -3.8736540    -0.8834450     0.3164790
  H       -3.1030040     2.0367670     1.0791630
  H       -2.4386000     0.6130600     1.8994820
  H       -1.3454850     1.8152510     1.1829620
  H        2.5408530     1.9208960     0.7682120
  H        1.5983600     2.1807600    -0.7147640
  H        3.3683510     2.0723810    -0.7901000
  H        3.7622080    -0.3606850     1.1004290
  H        4.5263690    -0.1854060    -0.4932010
  H        3.5668740    -1.6302420    -0.1114630
units angstrom
no_reorient  #important for SAPT in psi4, default
symmetry c1  #important for SAPT in psi4, default
}

set PROPERTIES_ORIGIN ["COM"]
properties('MP2/aug-cc-pvtz', properties = ['dipole'])
--------------------------------------------------------------------------

    Molecular point group: c1
  Charge       = 0
  Multiplicity = 1
  Basis Set: AUG-CC-PVTZ
    Blend: AUG-CC-PVTZ
  Basis Set: (AUG-CC-PVTZ AUX)
    Blend: AUG-CC-PVTZ-JKFIT

    Orbital Energies [Eh]
    ---------------------

    Doubly Occupied:

       1A    -20.636541     2A    -20.565742     3A    -20.543203
       4A    -11.401987     5A    -11.400742     6A    -11.263710
       7A    -11.259336     8A    -11.239302     9A    -11.238953
      10A    -11.226343    11A    -11.225432    12A     -1.493809
      13A     -1.391417    14A     -1.314490    15A     -1.117620
      16A     -1.101808    17A     -0.963429    18A     -0.949397
      19A     -0.944931    20A     -0.874152    21A     -0.805687
      22A     -0.736371    23A     -0.709764    24A     -0.703812
      25A     -0.673952    26A     -0.644836    27A     -0.628591
      28A     -0.618416    29A     -0.598736    30A     -0.574471
      31A     -0.569879    32A     -0.556636    33A     -0.552423
      34A     -0.536298    35A     -0.533394    36A     -0.521147
      37A     -0.502932    38A     -0.501280    39A     -0.497733
      40A     -0.491367    41A     -0.465959    42A     -0.450660
      43A     -0.433416

  @DF-RHF Final Energy:  -535.88825040404186

   => Energetics <=

    Nuclear Repulsion Energy =            648.5383061443189945
    One-Electron Energy =               -2017.9329037530869755
    Two-Electron Energy =                 833.5063472047261257
    Total Energy =                       -535.8882504040418553
  Basis Set: (AUG-CC-PVTZ AUX)
    Blend: AUG-CC-PVTZ-RI
    Molecular point group: c1

    Geometry (in Angstrom), charge = 0, multiplicity = 1:

       Center              X                  Y                   Z               Mass
    ------------   -----------------  -----------------  -----------------  -----------------
         O            0.019833214446     0.236568478477    -0.404029910505    15.994914619570
         O           -1.303360785554    -1.637108521523    -0.241293910505    15.994914619570
         O            1.116148214446    -1.094988521523     1.114347089495    15.994914619570
         C           -2.336509785554     0.569967478477    -0.270605910505    12.000000000000
         C            2.400244214446     0.206977478477    -0.497006910505    12.000000000000
         C           -1.202208285554    -0.333171321523    -0.291792210505    12.000000000000
         C            1.161139214446    -0.336234521523     0.173182089495    12.000000000000
         C           -3.674002785554    -0.125604521523    -0.491024910505    12.000000000000
         C           -2.295363785554     1.343040478477     1.054483089495    12.000000000000
         C            2.477122214446     1.726666478477    -0.299488910505    12.000000000000
         C            3.641528214446    -0.503295521523     0.029323089495    12.000000000000
         H           -2.140749785554     1.277087478477    -1.086564910505     1.007825032230
         H            2.281392214446     0.006846478477    -1.569708910505     1.007825032230
         H           -4.480456785554     0.612731478477    -0.511145910505     1.007825032230
         H           -3.683087785554    -0.676967521523    -1.434286910505     1.007825032230
         H           -3.870684785554    -0.837035521523     0.314548089495     1.007825032230
         H           -3.100034785554     2.083176478477     1.077232089495     1.007825032230
         H           -2.435630785554     0.659469478477     1.897551089495     1.007825032230
         H           -1.342515785554     1.861660478477     1.181031089495     1.007825032230
         H            2.543822214446     1.967305478477     0.766281089495     1.007825032230
         H            1.601329214446     2.227169478477    -0.716694910505     1.007825032230
         H            3.371320214446     2.118790478477    -0.792030910505     1.007825032230
         H            3.765177214446    -0.314275521523     1.098498089495     1.007825032230
         H            4.529338214446    -0.138996521523    -0.495131910505     1.007825032230
         H            3.569843214446    -1.583832521523    -0.113393910505     1.007825032230

  Basis Set: AUG-CC-PVTZ
    Blend: AUG-CC-PVTZ
  Basis Set: (AUG-CC-PVTZ AUX)
    Blend: AUG-CC-PVTZ-JKFIT
	 Reference Energy          =    -535.8882504040418553 [Eh]
	 Singles Energy            =      -0.0000000000000000 [Eh]
	 Same-Spin Energy          =      -0.5400794307415678 [Eh]
	 Opposite-Spin Energy      =      -1.7575171229484665 [Eh]
	 Correlation Energy        =      -2.2975965536900342 [Eh]
	 Total Energy              =    -538.1858469577318829 [Eh]

	 ================> DF-SCS-MP2 Energies <==================
	-----------------------------------------------------------
	 SCS Same-Spin Scale       =       0.3333333333333333 [-]
	 SCS Opposite-Spin Scale   =       1.2000000000000000 [-]
	 SCS Same-Spin Energy      =      -0.1800264769138559 [Eh]
	 SCS Opposite-Spin Energy  =      -2.1090205475381598 [Eh]
	 SCS Correlation Energy    =      -2.2890470244520156 [Eh]
	 SCS Total Energy          =    -538.1772974284938300 [Eh]
	-----------------------------------------------------------

  Dipole Moment: [D]
     X:     0.5292      Y:     3.9095      Z:    -1.3595     Total:     4.1728

*** Psi4 exiting successfully. Buy a developer a beer!
