                               Psi4 1.3.2 release

  ==> Input File <==

--------------------------------------------------------------------------
#psi4
#
memory 32 gb

molecule  {
0 1
  O        0.0168640     0.1901590    -0.4020990
  O       -1.3063300    -1.6835180    -0.2393630
  O        1.1131790    -1.1413980     1.1162780
  C       -2.3394790     0.5235580    -0.2686750
  C        2.3972750     0.1605680    -0.4950760
  C       -1.2717381    -0.3682301    -0.3624815
  C        1.1581700    -0.3826440     0.1751130
  C       -3.6769720    -0.1720140    -0.4890940
  C       -2.2983330     1.2966310     1.0564140
  C        2.4741530     1.6802570    -0.2975580
  C        3.6385590    -0.5497050     0.0312540
  H       -2.1437190     1.2306780    -1.0846340
  H        2.2784230    -0.0395630    -1.5677780
  H       -4.4834260     0.5663220    -0.5092150
  H       -3.6860570    -0.7233770    -1.4323560
  H       -3.8736540    -0.8834450     0.3164790
  H       -3.1030040     2.0367670     1.0791630
  H       -2.4386000     0.6130600     1.8994820
  H       -1.3454850     1.8152510     1.1829620
  H        2.5408530     1.9208960     0.7682120
  H        1.5983600     2.1807600    -0.7147640
  H        3.3683510     2.0723810    -0.7901000
  H        3.7622080    -0.3606850     1.1004290
  H        4.5263690    -0.1854060    -0.4932010
  H        3.5668740    -1.6302420    -0.1114630
units angstrom
no_reorient  #important for SAPT in psi4, default
symmetry c1  #important for SAPT in psi4, default
}

set PROPERTIES_ORIGIN ["COM"]
properties('MP2/aug-cc-pvtz', properties = ['dipole'])
--------------------------------------------------------------------------

    Molecular point group: c1
  Charge       = 0
  Multiplicity = 1
  Basis Set: AUG-CC-PVTZ
    Blend: AUG-CC-PVTZ
  Basis Set: (AUG-CC-PVTZ AUX)
    Blend: AUG-CC-PVTZ-JKFIT

    Orbital Energies [Eh]
    ---------------------

    Doubly Occupied:

       1A    -20.623567     2A    -20.558785     3A    -20.548800
       4A    -11.406702     5A    -11.395814     6A    -11.261571
       7A    -11.259847     8A    -11.244602     9A    -11.235994
      10A    -11.230167    11A    -11.223377    12A     -1.471419
      13A     -1.381771    14A     -1.309552    15A     -1.129660
      16A     -1.099711    17A     -0.959197    18A     -0.952255
      19A     -0.943796    20A     -0.880260    21A     -0.800002
      22A     -0.730636    23A     -0.703394    24A     -0.700624
      25A     -0.665179    26A     -0.641835    27A     -0.633041
      28A     -0.613535    29A     -0.598092    30A     -0.571090
      31A     -0.569305    32A     -0.556666    33A     -0.551913
      34A     -0.541453    35A     -0.530550    36A     -0.521071
      37A     -0.504897    38A     -0.500694    39A     -0.495543
      40A     -0.486645    41A     -0.462036    42A     -0.448430
      43A     -0.435849

  @DF-RHF Final Energy:  -535.87085035134737

   => Energetics <=

    Nuclear Repulsion Energy =            647.7043165569039047
    One-Electron Energy =               -2016.3916873603432123
    Two-Electron Energy =                 832.8165204520919360
    Total Energy =                       -535.8708503513473715
  Basis Set: (AUG-CC-PVTZ AUX)
    Blend: AUG-CC-PVTZ-RI
    Molecular point group: c1

    Geometry (in Angstrom), charge = 0, multiplicity = 1:

       Center              X                  Y                   Z               Mass
    ------------   -----------------  -----------------  -----------------  -----------------
         O            0.024885434727     0.235706914177    -0.398517741936    15.994914619570
         O           -1.298308565273    -1.637970085823    -0.235781741936    15.994914619570
         O            1.121200434727    -1.095850085823     1.119859258064    15.994914619570
         C           -2.331457565273     0.569105914177    -0.265093741936    12.000000000000
         C            2.405296434727     0.206115914177    -0.491494741936    12.000000000000
         C           -1.263716665273    -0.322682185823    -0.358900241936    12.000000000000
         C            1.166191434727    -0.337096085823     0.178694258064    12.000000000000
         C           -3.668950565273    -0.126466085823    -0.485512741936    12.000000000000
         C           -2.290311565273     1.342178914177     1.059995258064    12.000000000000
         C            2.482174434727     1.725804914177    -0.293976741936    12.000000000000
         C            3.646580434727    -0.504157085823     0.034835258064    12.000000000000
         H           -2.135697565273     1.276225914177    -1.081052741936     1.007825032230
         H            2.286444434727     0.005984914177    -1.564196741936     1.007825032230
         H           -4.475404565273     0.611869914177    -0.505633741936     1.007825032230
         H           -3.678035565273    -0.677829085823    -1.428774741936     1.007825032230
         H           -3.865632565273    -0.837897085823     0.320060258064     1.007825032230
         H           -3.094982565273     2.082314914177     1.082744258064     1.007825032230
         H           -2.430578565273     0.658607914177     1.903063258064     1.007825032230
         H           -1.337463565273     1.860798914177     1.186543258064     1.007825032230
         H            2.548874434727     1.966443914177     0.771793258064     1.007825032230
         H            1.606381434727     2.226307914177    -0.711182741936     1.007825032230
         H            3.376372434727     2.117928914177    -0.786518741936     1.007825032230
         H            3.770229434727    -0.315137085823     1.104010258064     1.007825032230
         H            4.534390434727    -0.139858085823    -0.489619741936     1.007825032230
         H            3.574895434727    -1.584694085823    -0.107881741936     1.007825032230

  Basis Set: AUG-CC-PVTZ
    Blend: AUG-CC-PVTZ
  Basis Set: (AUG-CC-PVTZ AUX)
    Blend: AUG-CC-PVTZ-JKFIT
	 Reference Energy          =    -535.8708503513473715 [Eh]
	 Singles Energy            =      -0.0000000000000000 [Eh]
	 Same-Spin Energy          =      -0.5417502867457887 [Eh]
	 Opposite-Spin Energy      =      -1.7607274495914733 [Eh]
	 Correlation Energy        =      -2.3024777363372619 [Eh]
	 Total Energy              =    -538.1733280876845811 [Eh]

	 ================> DF-SCS-MP2 Energies <==================
	-----------------------------------------------------------
	 SCS Same-Spin Scale       =       0.3333333333333333 [-]
	 SCS Opposite-Spin Scale   =       1.2000000000000000 [-]
	 SCS Same-Spin Energy      =      -0.1805834289152629 [Eh]
	 SCS Opposite-Spin Energy  =      -2.1128729395097681 [Eh]
	 SCS Correlation Energy    =      -2.2934563684250309 [Eh]
	 SCS Total Energy          =    -538.1643067197724122 [Eh]
	-----------------------------------------------------------

  Dipole Moment: [D]
     X:    -0.0509      Y:     3.9342      Z:    -1.3895     Total:     4.1727

*** Psi4 exiting successfully. Buy a developer a beer!
