                               Psi4 1.3.2 release

  ==> Input File <==

--------------------------------------------------------------------------
#psi4
#
memory 32 gb

molecule  {
0 1
  O        0.0168640     0.1901590    -0.4020990
  O       -1.3063300    -1.6835180    -0.2393630
  O        1.1131790    -1.1413980     1.1162780
  C       -2.3394790     0.5235580    -0.2686750
  C        2.3972750     0.1605680    -0.4950760
  C       -1.1974491    -0.2799546    -0.2937196
  C        1.1581700    -0.3826440     0.1751130
  C       -3.6769720    -0.1720140    -0.4890940
  C       -2.2983330     1.2966310     1.0564140
  C        2.4741530     1.6802570    -0.2975580
  C        3.6385590    -0.5497050     0.0312540
  H       -2.1437190     1.2306780    -1.0846340
  H        2.2784230    -0.0395630    -1.5677780
  H       -4.4834260     0.5663220    -0.5092150
  H       -3.6860570    -0.7233770    -1.4323560
  H       -3.8736540    -0.8834450     0.3164790
  H       -3.1030040     2.0367670     1.0791630
  H       -2.4386000     0.6130600     1.8994820
  H       -1.3454850     1.8152510     1.1829620
  H        2.5408530     1.9208960     0.7682120
  H        1.5983600     2.1807600    -0.7147640
  H        3.3683510     2.0723810    -0.7901000
  H        3.7622080    -0.3606850     1.1004290
  H        4.5263690    -0.1854060    -0.4932010
  H        3.5668740    -1.6302420    -0.1114630
units angstrom
no_reorient  #important for SAPT in psi4, default
symmetry c1  #important for SAPT in psi4, default
}

set PROPERTIES_ORIGIN ["COM"]
properties('MP2/aug-cc-pvtz', properties = ['dipole'])
--------------------------------------------------------------------------

    Molecular point group: c1
  Charge       = 0
  Multiplicity = 1
  Basis Set: AUG-CC-PVTZ
    Blend: AUG-CC-PVTZ
  Basis Set: (AUG-CC-PVTZ AUX)
    Blend: AUG-CC-PVTZ-JKFIT

    Orbital Energies [Eh]
    ---------------------

    Doubly Occupied:

       1A    -20.647457     2A    -20.570227     3A    -20.522731
       4A    -11.408763     5A    -11.404987     6A    -11.267756
       7A    -11.260141     8A    -11.243987     9A    -11.242297
      10A    -11.228806    11A    -11.227142    12A     -1.511313
      13A     -1.397223    14A     -1.258663    15A     -1.127164
      16A     -1.107795    17A     -0.977282    18A     -0.952277
      19A     -0.949476    20A     -0.886446    21A     -0.819829
      22A     -0.739679    23A     -0.714623    24A     -0.708007
      25A     -0.678726    26A     -0.647392    27A     -0.630801
      28A     -0.622301    29A     -0.593733    30A     -0.575735
      31A     -0.564943    32A     -0.559379    33A     -0.551927
      34A     -0.538808    35A     -0.535252    36A     -0.522275
      37A     -0.506201    38A     -0.503470    39A     -0.495786
      40A     -0.484315    41A     -0.464935    42A     -0.424175
      43A     -0.413164

  @DF-RHF Final Energy:  -535.84207146900280

   => Energetics <=

    Nuclear Repulsion Energy =            648.7156889669822704
    One-Electron Energy =               -2018.1407424749959318
    Two-Electron Energy =                 833.5829820390108580
    Total Energy =                       -535.8420714690028035
  Basis Set: (AUG-CC-PVTZ AUX)
    Blend: AUG-CC-PVTZ-RI
    Molecular point group: c1

    Geometry (in Angstrom), charge = 0, multiplicity = 1:

       Center              X                  Y                   Z               Mass
    ------------   -----------------  -----------------  -----------------  -----------------
         O            0.019246597450     0.229006444659    -0.403737049841    15.994914619570
         O           -1.303947402550    -1.644670555341    -0.241001049841    15.994914619570
         O            1.115561597450    -1.102550555341     1.114639950159    15.994914619570
         C           -2.337096402550     0.562405444659    -0.270313049841    12.000000000000
         C            2.399657597450     0.199415444659    -0.496714049841    12.000000000000
         C           -1.195066502550    -0.241107155341    -0.295357649841    12.000000000000
         C            1.160552597450    -0.343796555341     0.173474950159    12.000000000000
         C           -3.674589402550    -0.133166555341    -0.490732049841    12.000000000000
         C           -2.295950402550     1.335478444659     1.054775950159    12.000000000000
         C            2.476535597450     1.719104444659    -0.299196049841    12.000000000000
         C            3.640941597450    -0.510857555341     0.029615950159    12.000000000000
         H           -2.141336402550     1.269525444659    -1.086272049841     1.007825032230
         H            2.280805597450    -0.000715555341    -1.569416049841     1.007825032230
         H           -4.481043402550     0.605169444659    -0.510853049841     1.007825032230
         H           -3.683674402550    -0.684529555341    -1.433994049841     1.007825032230
         H           -3.871271402550    -0.844597555341     0.314840950159     1.007825032230
         H           -3.100621402550     2.075614444659     1.077524950159     1.007825032230
         H           -2.436217402550     0.651907444659     1.897843950159     1.007825032230
         H           -1.343102402550     1.854098444659     1.181323950159     1.007825032230
         H            2.543235597450     1.959743444659     0.766573950159     1.007825032230
         H            1.600742597450     2.219607444659    -0.716402049841     1.007825032230
         H            3.370733597450     2.111228444659    -0.791738049841     1.007825032230
         H            3.764590597450    -0.321837555341     1.098790950159     1.007825032230
         H            4.528751597450    -0.146558555341    -0.494839049841     1.007825032230
         H            3.569256597450    -1.591394555341    -0.113101049841     1.007825032230

  Basis Set: AUG-CC-PVTZ
    Blend: AUG-CC-PVTZ
  Basis Set: (AUG-CC-PVTZ AUX)
    Blend: AUG-CC-PVTZ-JKFIT
	 Reference Energy          =    -535.8420714690028035 [Eh]
	 Singles Energy            =      -0.0000000000000000 [Eh]
	 Same-Spin Energy          =      -0.5432318418326618 [Eh]
	 Opposite-Spin Energy      =      -1.7632345391388435 [Eh]
	 Correlation Energy        =      -2.3064663809715054 [Eh]
	 Total Energy              =    -538.1485378499743319 [Eh]

	 ================> DF-SCS-MP2 Energies <==================
	-----------------------------------------------------------
	 SCS Same-Spin Scale       =       0.3333333333333333 [-]
	 SCS Opposite-Spin Scale   =       1.2000000000000000 [-]
	 SCS Same-Spin Energy      =      -0.1810772806108873 [Eh]
	 SCS Opposite-Spin Energy  =      -2.1158814469666121 [Eh]
	 SCS Correlation Energy    =      -2.2969587275774992 [Eh]
	 SCS Total Energy          =    -538.1390301965802792 [Eh]
	-----------------------------------------------------------

  Dipole Moment: [D]
     X:     0.8091      Y:     4.3496      Z:    -1.2971     Total:     4.6105

*** Psi4 exiting successfully. Buy a developer a beer!
