                               Psi4 1.3.2 release

  ==> Input File <==

--------------------------------------------------------------------------
#psi4
#
memory 32 gb

molecule  {
0 1
  O       -0.0073846     0.2327763    -0.4028848
  O       -1.3063300    -1.6835180    -0.2393630
  O        1.1131790    -1.1413980     1.1162780
  C       -2.3394790     0.5235580    -0.2686750
  C        2.3972750     0.1605680    -0.4950760
  C       -1.2129060    -0.4792070    -0.2860030
  C        1.1581700    -0.3826440     0.1751130
  C       -3.6769720    -0.1720140    -0.4890940
  C       -2.2983330     1.2966310     1.0564140
  C        2.4741530     1.6802570    -0.2975580
  C        3.6385590    -0.5497050     0.0312540
  H       -2.1437190     1.2306780    -1.0846340
  H        2.2784230    -0.0395630    -1.5677780
  H       -4.4834260     0.5663220    -0.5092150
  H       -3.6860570    -0.7233770    -1.4323560
  H       -3.8736540    -0.8834450     0.3164790
  H       -3.1030040     2.0367670     1.0791630
  H       -2.4386000     0.6130600     1.8994820
  H       -1.3454850     1.8152510     1.1829620
  H        2.5408530     1.9208960     0.7682120
  H        1.5983600     2.1807600    -0.7147640
  H        3.3683510     2.0723810    -0.7901000
  H        3.7622080    -0.3606850     1.1004290
  H        4.5263690    -0.1854060    -0.4932010
  H        3.5668740    -1.6302420    -0.1114630
units angstrom
no_reorient  #important for SAPT in psi4, default
symmetry c1  #important for SAPT in psi4, default
}

set PROPERTIES_ORIGIN ["COM"]
properties('MP2/aug-cc-pvtz', properties = ['dipole'])
--------------------------------------------------------------------------

    Molecular point group: c1
  Charge       = 0
  Multiplicity = 1
  Basis Set: AUG-CC-PVTZ
    Blend: AUG-CC-PVTZ
  Basis Set: (AUG-CC-PVTZ AUX)
    Blend: AUG-CC-PVTZ-JKFIT

    Orbital Energies [Eh]
    ---------------------

    Doubly Occupied:

       1A    -20.623466     2A    -20.568216     3A    -20.560978
       4A    -11.399661     5A    -11.391956     6A    -11.261615
       7A    -11.255213     8A    -11.237006     9A    -11.232559
      10A    -11.225286    11A    -11.221783    12A     -1.473583
      13A     -1.403523    14A     -1.360321    15A     -1.107920
      16A     -1.093875    17A     -0.951093    18A     -0.945354
      19A     -0.931468    20A     -0.863133    21A     -0.785001
      22A     -0.736862    23A     -0.704245    24A     -0.701146
      25A     -0.673310    26A     -0.645984    27A     -0.629104
      28A     -0.616001    29A     -0.605736    30A     -0.577065
      31A     -0.565867    32A     -0.554671    33A     -0.550744
      34A     -0.537252    35A     -0.533841    36A     -0.528826
      37A     -0.502692    38A     -0.497724    39A     -0.495002
      40A     -0.491026    41A     -0.479302    42A     -0.468467
      43A     -0.431923

  @DF-RHF Final Energy:  -535.90783658495570

   => Energetics <=

    Nuclear Repulsion Energy =            647.8321383883466069
    One-Electron Energy =               -2016.6403537222336126
    Two-Electron Energy =                 832.9003787489311890
    Total Energy =                       -535.9078365849557031
  Basis Set: (AUG-CC-PVTZ AUX)
    Blend: AUG-CC-PVTZ-RI
    Molecular point group: c1

    Geometry (in Angstrom), charge = 0, multiplicity = 1:

       Center              X                  Y                   Z               Mass
    ------------   -----------------  -----------------  -----------------  -----------------
         O           -0.001375451135     0.282436081263    -0.405029069224    15.994914619570
         O           -1.300320851135    -1.633858218737    -0.241507269224    15.994914619570
         O            1.119188148865    -1.091738218737     1.114133730776    15.994914619570
         C           -2.333469851135     0.573217781263    -0.270819269224    12.000000000000
         C            2.403284148865     0.210227781263    -0.497220269224    12.000000000000
         C           -1.206896851135    -0.429547218737    -0.288147269224    12.000000000000
         C            1.164179148865    -0.332984218737     0.172968730776    12.000000000000
         C           -3.670962851135    -0.122354218737    -0.491238269224    12.000000000000
         C           -2.292323851135     1.346290781263     1.054269730776    12.000000000000
         C            2.480162148865     1.729916781263    -0.299702269224    12.000000000000
         C            3.644568148865    -0.500045218737     0.029109730776    12.000000000000
         H           -2.137709851135     1.280337781263    -1.086778269224     1.007825032230
         H            2.284432148865     0.010096781263    -1.569922269224     1.007825032230
         H           -4.477416851135     0.615981781263    -0.511359269224     1.007825032230
         H           -3.680047851135    -0.673717218737    -1.434500269224     1.007825032230
         H           -3.867644851135    -0.833785218737     0.314334730776     1.007825032230
         H           -3.096994851135     2.086426781263     1.077018730776     1.007825032230
         H           -2.432590851135     0.662719781263     1.897337730776     1.007825032230
         H           -1.339475851135     1.864910781263     1.180817730776     1.007825032230
         H            2.546862148865     1.970555781263     0.766067730776     1.007825032230
         H            1.604369148865     2.230419781263    -0.716908269224     1.007825032230
         H            3.374360148865     2.122040781263    -0.792244269224     1.007825032230
         H            3.768217148865    -0.311025218737     1.098284730776     1.007825032230
         H            4.532378148865    -0.135746218737    -0.495345269224     1.007825032230
         H            3.572883148865    -1.580582218737    -0.113607269224     1.007825032230

  Basis Set: AUG-CC-PVTZ
    Blend: AUG-CC-PVTZ
  Basis Set: (AUG-CC-PVTZ AUX)
    Blend: AUG-CC-PVTZ-JKFIT
	 Reference Energy          =    -535.9078365849557031 [Eh]
	 Singles Energy            =      -0.0000000000000000 [Eh]
	 Same-Spin Energy          =      -0.5381676606047218 [Eh]
	 Opposite-Spin Energy      =      -1.7543402060768993 [Eh]
	 Correlation Energy        =      -2.2925078666816212 [Eh]
	 Total Energy              =    -538.2003444516373065 [Eh]

	 ================> DF-SCS-MP2 Energies <==================
	-----------------------------------------------------------
	 SCS Same-Spin Scale       =       0.3333333333333333 [-]
	 SCS Opposite-Spin Scale   =       1.2000000000000000 [-]
	 SCS Same-Spin Energy      =      -0.1793892202015739 [Eh]
	 SCS Opposite-Spin Energy  =      -2.1052082472922793 [Eh]
	 SCS Correlation Energy    =      -2.2845974674938532 [Eh]
	 SCS Total Energy          =    -538.1924340524495847 [Eh]
	-----------------------------------------------------------

  Dipole Moment: [D]
     X:     0.4960      Y:     3.3000      Z:    -1.3539     Total:     3.6013

*** Psi4 exiting successfully. Buy a developer a beer!
