                               Psi4 1.3.2 release

  ==> Input File <==

--------------------------------------------------------------------------
#psi4
#
memory 32 gb

molecule  {
0 1
  O        0.0168640     0.1901590    -0.4020990
  O       -1.3063300    -1.6835180    -0.2393630
  O        1.1131790    -1.1413980     1.1162780
  C       -2.3394790     0.5235580    -0.2686750
  C        2.3972750     0.1605680    -0.4950760
  C       -1.2482183    -0.5173529    -0.2943500
  C        1.1581700    -0.3826440     0.1751130
  C       -3.6769720    -0.1720140    -0.4890940
  C       -2.2983330     1.2966310     1.0564140
  C        2.4741530     1.6802570    -0.2975580
  C        3.6385590    -0.5497050     0.0312540
  H       -2.1437190     1.2306780    -1.0846340
  H        2.2784230    -0.0395630    -1.5677780
  H       -4.4834260     0.5663220    -0.5092150
  H       -3.6860570    -0.7233770    -1.4323560
  H       -3.8736540    -0.8834450     0.3164790
  H       -3.1030040     2.0367670     1.0791630
  H       -2.4386000     0.6130600     1.8994820
  H       -1.3454850     1.8152510     1.1829620
  H        2.5408530     1.9208960     0.7682120
  H        1.5983600     2.1807600    -0.7147640
  H        3.3683510     2.0723810    -0.7901000
  H        3.7622080    -0.3606850     1.1004290
  H        4.5263690    -0.1854060    -0.4932010
  H        3.5668740    -1.6302420    -0.1114630
units angstrom
no_reorient  #important for SAPT in psi4, default
symmetry c1  #important for SAPT in psi4, default
}

set PROPERTIES_ORIGIN ["COM"]
properties('MP2/aug-cc-pvtz', properties = ['dipole'])
--------------------------------------------------------------------------

    Molecular point group: c1
  Charge       = 0
  Multiplicity = 1
  Basis Set: AUG-CC-PVTZ
    Blend: AUG-CC-PVTZ
  Basis Set: (AUG-CC-PVTZ AUX)
    Blend: AUG-CC-PVTZ-JKFIT

    Orbital Energies [Eh]
    ---------------------

    Doubly Occupied:

       1A    -20.610583     2A    -20.571997     3A    -20.555035
       4A    -11.393164     5A    -11.387804     6A    -11.260921
       7A    -11.254974     8A    -11.235489     9A    -11.232736
      10A    -11.226030    11A    -11.220639    12A     -1.476948
      13A     -1.418119    14A     -1.355448    15A     -1.107312
      16A     -1.093204    17A     -0.949790    18A     -0.945029
      19A     -0.928118    20A     -0.861844    21A     -0.783423
      22A     -0.735978    23A     -0.705025    24A     -0.698656
      25A     -0.676305    26A     -0.644208    27A     -0.632546
      28A     -0.613983    29A     -0.607565    30A     -0.575263
      31A     -0.565897    32A     -0.554710    33A     -0.550365
      34A     -0.540947    35A     -0.536182    36A     -0.529680
      37A     -0.503304    38A     -0.496686    39A     -0.495364
      40A     -0.490340    41A     -0.476542    42A     -0.467350
      43A     -0.430272

  @DF-RHF Final Energy:  -535.91144194329786

   => Energetics <=

    Nuclear Repulsion Energy =            648.3014745888482366
    One-Electron Energy =               -2017.6342866208185569
    Two-Electron Energy =                 833.4213700886723473
    Total Energy =                       -535.9114419432978593
  Basis Set: (AUG-CC-PVTZ AUX)
    Blend: AUG-CC-PVTZ-RI
    Molecular point group: c1

    Geometry (in Angstrom), charge = 0, multiplicity = 1:

       Center              X                  Y                   Z               Mass
    ------------   -----------------  -----------------  -----------------  -----------------
         O            0.023100186238     0.247025941267    -0.403689199917    15.994914619570
         O           -1.300093813762    -1.626651058733    -0.240953199917    15.994914619570
         O            1.119415186238    -1.084531058733     1.114687800083    15.994914619570
         C           -2.333242813762     0.580424941267    -0.270265199917    12.000000000000
         C            2.403511186238     0.217434941267    -0.496666199917    12.000000000000
         C           -1.241982113762    -0.460485958733    -0.295940199917    12.000000000000
         C            1.164406186238    -0.325777058733     0.173522800083    12.000000000000
         C           -3.670735813762    -0.115147058733    -0.490684199917    12.000000000000
         C           -2.292096813762     1.353497941267     1.054823800083    12.000000000000
         C            2.480389186238     1.737123941267    -0.299148199917    12.000000000000
         C            3.644795186238    -0.492838058733     0.029663800083    12.000000000000
         H           -2.137482813762     1.287544941267    -1.086224199917     1.007825032230
         H            2.284659186238     0.017303941267    -1.569368199917     1.007825032230
         H           -4.477189813762     0.623188941267    -0.510805199917     1.007825032230
         H           -3.679820813762    -0.666510058733    -1.433946199917     1.007825032230
         H           -3.867417813762    -0.826578058733     0.314888800083     1.007825032230
         H           -3.096767813762     2.093633941267     1.077572800083     1.007825032230
         H           -2.432363813762     0.669926941267     1.897891800083     1.007825032230
         H           -1.339248813762     1.872117941267     1.181371800083     1.007825032230
         H            2.547089186238     1.977762941267     0.766621800083     1.007825032230
         H            1.604596186238     2.237626941267    -0.716354199917     1.007825032230
         H            3.374587186238     2.129247941267    -0.791690199917     1.007825032230
         H            3.768444186238    -0.303818058733     1.098838800083     1.007825032230
         H            4.532605186238    -0.128539058733    -0.494791199917     1.007825032230
         H            3.573110186238    -1.573375058733    -0.113053199917     1.007825032230

  Basis Set: AUG-CC-PVTZ
    Blend: AUG-CC-PVTZ
  Basis Set: (AUG-CC-PVTZ AUX)
    Blend: AUG-CC-PVTZ-JKFIT
	 Reference Energy          =    -535.9114419432978593 [Eh]
	 Singles Energy            =      -0.0000000000000000 [Eh]
	 Same-Spin Energy          =      -0.5369414978346780 [Eh]
	 Opposite-Spin Energy      =      -1.7513516953268247 [Eh]
	 Correlation Energy        =      -2.2882931931615027 [Eh]
	 Total Energy              =    -538.1997351364593669 [Eh]

	 ================> DF-SCS-MP2 Energies <==================
	-----------------------------------------------------------
	 SCS Same-Spin Scale       =       0.3333333333333333 [-]
	 SCS Opposite-Spin Scale   =       1.2000000000000000 [-]
	 SCS Same-Spin Energy      =      -0.1789804992782260 [Eh]
	 SCS Opposite-Spin Energy  =      -2.1016220343921894 [Eh]
	 SCS Correlation Energy    =      -2.2806025336704154 [Eh]
	 SCS Total Energy          =    -538.1920444769682490 [Eh]
	-----------------------------------------------------------

  Dipole Moment: [D]
     X:    -0.2859      Y:     3.1719      Z:    -1.4568     Total:     3.5021

*** Psi4 exiting successfully. Buy a developer a beer!
