                               Psi4 1.3.2 release

  ==> Input File <==

--------------------------------------------------------------------------
#psi4
#
memory 32 gb

molecule  {
0 1
  O        0.0168640     0.1901590    -0.4020990
  O       -1.3063300    -1.6835180    -0.2393630
  O        1.1131790    -1.1413980     1.1162780
  C       -2.3394790     0.5235580    -0.2686750
  C        2.3972750     0.1605680    -0.4950760
  C       -1.1789662    -0.4398394    -0.2776349
  C        1.1581700    -0.3826440     0.1751130
  C       -3.6769720    -0.1720140    -0.4890940
  C       -2.2983330     1.2966310     1.0564140
  C        2.4741530     1.6802570    -0.2975580
  C        3.6385590    -0.5497050     0.0312540
  H       -2.1437190     1.2306780    -1.0846340
  H        2.2784230    -0.0395630    -1.5677780
  H       -4.4834260     0.5663220    -0.5092150
  H       -3.6860570    -0.7233770    -1.4323560
  H       -3.8736540    -0.8834450     0.3164790
  H       -3.1030040     2.0367670     1.0791630
  H       -2.4386000     0.6130600     1.8994820
  H       -1.3454850     1.8152510     1.1829620
  H        2.5408530     1.9208960     0.7682120
  H        1.5983600     2.1807600    -0.7147640
  H        3.3683510     2.0723810    -0.7901000
  H        3.7622080    -0.3606850     1.1004290
  H        4.5263690    -0.1854060    -0.4932010
  H        3.5668740    -1.6302420    -0.1114630
units angstrom
no_reorient  #important for SAPT in psi4, default
symmetry c1  #important for SAPT in psi4, default
}

set PROPERTIES_ORIGIN ["COM"]
properties('MP2/aug-cc-pvtz', properties = ['dipole'])
--------------------------------------------------------------------------

    Molecular point group: c1
  Charge       = 0
  Multiplicity = 1
  Basis Set: AUG-CC-PVTZ
    Blend: AUG-CC-PVTZ
  Basis Set: (AUG-CC-PVTZ AUX)
    Blend: AUG-CC-PVTZ-JKFIT

    Orbital Energies [Eh]
    ---------------------

    Doubly Occupied:

       1A    -20.635291     2A    -20.566449     3A    -20.551102
       4A    -11.400984     5A    -11.395354     6A    -11.263098
       7A    -11.257598     8A    -11.239030     9A    -11.234104
      10A    -11.226217    11A    -11.222489    12A     -1.495496
      13A     -1.394894    14A     -1.347866    15A     -1.110900
      16A     -1.095549    17A     -0.959099    18A     -0.947526
      19A     -0.941356    20A     -0.865113    21A     -0.800153
      22A     -0.738806    23A     -0.710589    24A     -0.701842
      25A     -0.677306    26A     -0.646446    27A     -0.627258
      28A     -0.618528    29A     -0.603569    30A     -0.577007
      31A     -0.568557    32A     -0.556424    33A     -0.550694
      34A     -0.536846    35A     -0.531759    36A     -0.523336
      37A     -0.503028    38A     -0.499810    39A     -0.496596
      40A     -0.491631    41A     -0.469447    42A     -0.467782
      43A     -0.432259

  @DF-RHF Final Energy:  -535.90611054818805

   => Energetics <=

    Nuclear Repulsion Energy =            648.7785252515984666
    One-Electron Energy =               -2018.4108973220095322
    Two-Electron Energy =                 833.7262615222230124
    Total Energy =                       -535.9061105481880531
  Basis Set: (AUG-CC-PVTZ AUX)
    Blend: AUG-CC-PVTZ-RI
    Molecular point group: c1

    Geometry (in Angstrom), charge = 0, multiplicity = 1:

       Center              X                  Y                   Z               Mass
    ------------   -----------------  -----------------  -----------------  -----------------
         O            0.017843670160     0.241142351324    -0.404957943997    15.994914619570
         O           -1.305350329840    -1.632534648676    -0.242221943997    15.994914619570
         O            1.114158670160    -1.090414648676     1.113419056003    15.994914619570
         C           -2.338499329840     0.574541351324    -0.271533943997    12.000000000000
         C            2.398254670160     0.211551351324    -0.497934943997    12.000000000000
         C           -1.177986529840    -0.388856048676    -0.280493843997    12.000000000000
         C            1.159149670160    -0.331660648676     0.172254056003    12.000000000000
         C           -3.675992329840    -0.121030648676    -0.491952943997    12.000000000000
         C           -2.297353329840     1.347614351324     1.053555056003    12.000000000000
         C            2.475132670160     1.731240351324    -0.300416943997    12.000000000000
         C            3.639538670160    -0.498721648676     0.028395056003    12.000000000000
         H           -2.142739329840     1.281661351324    -1.087492943997     1.007825032230
         H            2.279402670160     0.011420351324    -1.570636943997     1.007825032230
         H           -4.482446329840     0.617305351324    -0.512073943997     1.007825032230
         H           -3.685077329840    -0.672393648676    -1.435214943997     1.007825032230
         H           -3.872674329840    -0.832461648676     0.313620056003     1.007825032230
         H           -3.102024329840     2.087750351324     1.076304056003     1.007825032230
         H           -2.437620329840     0.664043351324     1.896623056003     1.007825032230
         H           -1.344505329840     1.866234351324     1.180103056003     1.007825032230
         H            2.541832670160     1.971879351324     0.765353056003     1.007825032230
         H            1.599339670160     2.231743351324    -0.717622943997     1.007825032230
         H            3.369330670160     2.123364351324    -0.792958943997     1.007825032230
         H            3.763187670160    -0.309701648676     1.097570056003     1.007825032230
         H            4.527348670160    -0.134422648676    -0.496059943997     1.007825032230
         H            3.567853670160    -1.579258648676    -0.114321943997     1.007825032230

  Basis Set: AUG-CC-PVTZ
    Blend: AUG-CC-PVTZ
  Basis Set: (AUG-CC-PVTZ AUX)
    Blend: AUG-CC-PVTZ-JKFIT
	 Reference Energy          =    -535.9061105481880531 [Eh]
	 Singles Energy            =      -0.0000000000000000 [Eh]
	 Same-Spin Energy          =      -0.5380822744746456 [Eh]
	 Opposite-Spin Energy      =      -1.7538003678845531 [Eh]
	 Correlation Energy        =      -2.2918826423591989 [Eh]
	 Total Energy              =    -538.1979931905472085 [Eh]

	 ================> DF-SCS-MP2 Energies <==================
	-----------------------------------------------------------
	 SCS Same-Spin Scale       =       0.3333333333333333 [-]
	 SCS Opposite-Spin Scale   =       1.2000000000000000 [-]
	 SCS Same-Spin Energy      =      -0.1793607581582152 [Eh]
	 SCS Opposite-Spin Energy  =      -2.1045604414614636 [Eh]
	 SCS Correlation Energy    =      -2.2839211996196789 [Eh]
	 SCS Total Energy          =    -538.1900317478077795 [Eh]
	-----------------------------------------------------------

  Dipole Moment: [D]
     X:     0.6340      Y:     3.6209      Z:    -1.3893     Total:     3.9298

*** Psi4 exiting successfully. Buy a developer a beer!
