                               Psi4 1.3.2 release

  ==> Input File <==

--------------------------------------------------------------------------
#psi4
#
memory 32 gb

molecule  {
0 1
  O       -0.0331020     0.2745262    -0.4035282
  O       -1.3063300    -1.6835180    -0.2393630
  O        1.1131790    -1.1413980     1.1162780
  C       -2.3394790     0.5235580    -0.2686750
  C        2.3972750     0.1605680    -0.4950760
  C       -1.2129060    -0.4792070    -0.2860030
  C        1.1581700    -0.3826440     0.1751130
  C       -3.6769720    -0.1720140    -0.4890940
  C       -2.2983330     1.2966310     1.0564140
  C        2.4741530     1.6802570    -0.2975580
  C        3.6385590    -0.5497050     0.0312540
  H       -2.1437190     1.2306780    -1.0846340
  H        2.2784230    -0.0395630    -1.5677780
  H       -4.4834260     0.5663220    -0.5092150
  H       -3.6860570    -0.7233770    -1.4323560
  H       -3.8736540    -0.8834450     0.3164790
  H       -3.1030040     2.0367670     1.0791630
  H       -2.4386000     0.6130600     1.8994820
  H       -1.3454850     1.8152510     1.1829620
  H        2.5408530     1.9208960     0.7682120
  H        1.5983600     2.1807600    -0.7147640
  H        3.3683510     2.0723810    -0.7901000
  H        3.7622080    -0.3606850     1.1004290
  H        4.5263690    -0.1854060    -0.4932010
  H        3.5668740    -1.6302420    -0.1114630
units angstrom
no_reorient  #important for SAPT in psi4, default
symmetry c1  #important for SAPT in psi4, default
}

set PROPERTIES_ORIGIN ["COM"]
properties('MP2/aug-cc-pvtz', properties = ['dipole'])
--------------------------------------------------------------------------

    Molecular point group: c1
  Charge       = 0
  Multiplicity = 1
  Basis Set: AUG-CC-PVTZ
    Blend: AUG-CC-PVTZ
  Basis Set: (AUG-CC-PVTZ AUX)
    Blend: AUG-CC-PVTZ-JKFIT

    Orbital Energies [Eh]
    ---------------------

    Doubly Occupied:

       1A    -20.623009     2A    -20.575300     3A    -20.560428
       4A    -11.404651     5A    -11.389791     6A    -11.264187
       7A    -11.251559     8A    -11.238086     9A    -11.230426
      10A    -11.227101    11A    -11.219464    12A     -1.466766
      13A     -1.405770    14A     -1.359318    15A     -1.108258
      16A     -1.092073    17A     -0.951554    18A     -0.943278
      19A     -0.926624    20A     -0.863005    21A     -0.778347
      22A     -0.738403    23A     -0.703151    24A     -0.699301
      25A     -0.671958    26A     -0.646755    27A     -0.628764
      28A     -0.615908    29A     -0.604474    30A     -0.578391
      31A     -0.564200    32A     -0.555629    33A     -0.549196
      34A     -0.539563    35A     -0.534389    36A     -0.528879
      37A     -0.502824    38A     -0.496385    39A     -0.495996
      40A     -0.490172    41A     -0.480721    42A     -0.468128
      43A     -0.430395

  @DF-RHF Final Energy:  -535.90118441429559

   => Energetics <=

    Nuclear Repulsion Energy =            647.1602801023703933
    One-Electron Energy =               -2015.3177779972243115
    Two-Electron Energy =                 832.2563134805582195
    Total Energy =                       -535.9011844142955852
  Basis Set: (AUG-CC-PVTZ AUX)
    Blend: AUG-CC-PVTZ-RI
    Molecular point group: c1

    Geometry (in Angstrom), charge = 0, multiplicity = 1:

       Center              X                  Y                   Z               Mass
    ------------   -----------------  -----------------  -----------------  -----------------
         O           -0.024490938024     0.319962007914    -0.405607374351    15.994914619570
         O           -1.297718938024    -1.638082192086    -0.241442174351    15.994914619570
         O            1.121790061976    -1.095962192086     1.114198825649    15.994914619570
         C           -2.330867938024     0.568993807914    -0.270754174351    12.000000000000
         C            2.405886061976     0.206003807914    -0.497155174351    12.000000000000
         C           -1.204294938024    -0.433771192086    -0.288082174351    12.000000000000
         C            1.166781061976    -0.337208192086     0.173033825649    12.000000000000
         C           -3.668360938024    -0.126578192086    -0.491173174351    12.000000000000
         C           -2.289721938024     1.342066807914     1.054334825649    12.000000000000
         C            2.482764061976     1.725692807914    -0.299637174351    12.000000000000
         C            3.647170061976    -0.504269192086     0.029174825649    12.000000000000
         H           -2.135107938024     1.276113807914    -1.086713174351     1.007825032230
         H            2.287034061976     0.005872807914    -1.569857174351     1.007825032230
         H           -4.474814938024     0.611757807914    -0.511294174351     1.007825032230
         H           -3.677445938024    -0.677941192086    -1.434435174351     1.007825032230
         H           -3.865042938024    -0.838009192086     0.314399825649     1.007825032230
         H           -3.094392938024     2.082202807914     1.077083825649     1.007825032230
         H           -2.429988938024     0.658495807914     1.897402825649     1.007825032230
         H           -1.336873938024     1.860686807914     1.180882825649     1.007825032230
         H            2.549464061976     1.966331807914     0.766132825649     1.007825032230
         H            1.606971061976     2.226195807914    -0.716843174351     1.007825032230
         H            3.376962061976     2.117816807914    -0.792179174351     1.007825032230
         H            3.770819061976    -0.315249192086     1.098349825649     1.007825032230
         H            4.534980061976    -0.139970192086    -0.495280174351     1.007825032230
         H            3.575485061976    -1.584806192086    -0.113542174351     1.007825032230

  Basis Set: AUG-CC-PVTZ
    Blend: AUG-CC-PVTZ
  Basis Set: (AUG-CC-PVTZ AUX)
    Blend: AUG-CC-PVTZ-JKFIT
	 Reference Energy          =    -535.9011844142955852 [Eh]
	 Singles Energy            =      -0.0000000000000000 [Eh]
	 Same-Spin Energy          =      -0.5390545973454550 [Eh]
	 Opposite-Spin Energy      =      -1.7565115835568026 [Eh]
	 Correlation Energy        =      -2.2955661809022576 [Eh]
	 Total Energy              =    -538.1967505951978410 [Eh]

	 ================> DF-SCS-MP2 Energies <==================
	-----------------------------------------------------------
	 SCS Same-Spin Scale       =       0.3333333333333333 [-]
	 SCS Opposite-Spin Scale   =       1.2000000000000000 [-]
	 SCS Same-Spin Energy      =      -0.1796848657818183 [Eh]
	 SCS Opposite-Spin Energy  =      -2.1078139002681628 [Eh]
	 SCS Correlation Energy    =      -2.2874987660499810 [Eh]
	 SCS Total Energy          =    -538.1886831803456062 [Eh]
	-----------------------------------------------------------

  Dipole Moment: [D]
     X:     0.8021      Y:     3.2016      Z:    -1.2895     Total:     3.5435

*** Psi4 exiting successfully. Buy a developer a beer!
