                               Psi4 1.3.2 release

  ==> Input File <==

--------------------------------------------------------------------------
#psi4
#
memory 32 gb

molecule  {
0 1
  O        0.0168640     0.1901590    -0.4020990
  O       -1.1799765    -1.6868965    -0.2451366
  O        1.1131790    -1.1413980     1.1162780
  C       -2.3394790     0.5235580    -0.2686750
  C        2.3972750     0.1605680    -0.4950760
  C       -1.2129060    -0.4792070    -0.2860030
  C        1.1581700    -0.3826440     0.1751130
  C       -3.6769720    -0.1720140    -0.4890940
  C       -2.2983330     1.2966310     1.0564140
  C        2.4741530     1.6802570    -0.2975580
  C        3.6385590    -0.5497050     0.0312540
  H       -2.1437190     1.2306780    -1.0846340
  H        2.2784230    -0.0395630    -1.5677780
  H       -4.4834260     0.5663220    -0.5092150
  H       -3.6860570    -0.7233770    -1.4323560
  H       -3.8736540    -0.8834450     0.3164790
  H       -3.1030040     2.0367670     1.0791630
  H       -2.4386000     0.6130600     1.8994820
  H       -1.3454850     1.8152510     1.1829620
  H        2.5408530     1.9208960     0.7682120
  H        1.5983600     2.1807600    -0.7147640
  H        3.3683510     2.0723810    -0.7901000
  H        3.7622080    -0.3606850     1.1004290
  H        4.5263690    -0.1854060    -0.4932010
  H        3.5668740    -1.6302420    -0.1114630
units angstrom
no_reorient  #important for SAPT in psi4, default
symmetry c1  #important for SAPT in psi4, default
}

set PROPERTIES_ORIGIN ["COM"]
properties('MP2/aug-cc-pvtz', properties = ['dipole'])
--------------------------------------------------------------------------

    Molecular point group: c1
  Charge       = 0
  Multiplicity = 1
  Basis Set: AUG-CC-PVTZ
    Blend: AUG-CC-PVTZ
  Basis Set: (AUG-CC-PVTZ AUX)
    Blend: AUG-CC-PVTZ-JKFIT

    Orbital Energies [Eh]
    ---------------------

    Doubly Occupied:

       1A    -20.614641     2A    -20.559680     3A    -20.555916
       4A    -11.393669     5A    -11.390218     6A    -11.265047
       7A    -11.256406     8A    -11.237439     9A    -11.233822
      10A    -11.228237    11A    -11.221371    12A     -1.480166
      13A     -1.397770    14A     -1.352946    15A     -1.110139
      16A     -1.095078    17A     -0.952595    18A     -0.946734
      19A     -0.934499    20A     -0.863953    21A     -0.790265
      22A     -0.733338    23A     -0.705595    24A     -0.699039
      25A     -0.671670    26A     -0.643034    27A     -0.631823
      28A     -0.614035    29A     -0.606420    30A     -0.574541
      31A     -0.567751    32A     -0.554873    33A     -0.550802
      34A     -0.539306    35A     -0.530033    36A     -0.527431
      37A     -0.505053    38A     -0.498404    39A     -0.495252
      40A     -0.489845    41A     -0.471616    42A     -0.466814
      43A     -0.430883

  @DF-RHF Final Energy:  -535.90948095926728

   => Energetics <=

    Nuclear Repulsion Energy =            649.4117166813817903
    One-Electron Energy =               -2019.8660894707677471
    Two-Electron Energy =                 834.5448918301187859
    Total Energy =                       -535.9094809592672846
  Basis Set: (AUG-CC-PVTZ AUX)
    Blend: AUG-CC-PVTZ-RI
    Molecular point group: c1

    Geometry (in Angstrom), charge = 0, multiplicity = 1:

       Center              X                  Y                   Z               Mass
    ------------   -----------------  -----------------  -----------------  -----------------
         O            0.007636243943     0.244472326143    -0.403738637254    15.994914619570
         O           -1.189204256057    -1.632583173857    -0.246776237254    15.994914619570
         O            1.103951243943    -1.087084673857     1.114638362746    15.994914619570
         C           -2.348706756057     0.577871326143    -0.270314637254    12.000000000000
         C            2.388047243943     0.214881326143    -0.496715637254    12.000000000000
         C           -1.222133756057    -0.424893673857    -0.287642637254    12.000000000000
         C            1.148942243943    -0.328330673857     0.173473362746    12.000000000000
         C           -3.686199756057    -0.117700673857    -0.490733637254    12.000000000000
         C           -2.307560756057     1.350944326143     1.054774362746    12.000000000000
         C            2.464925243943     1.734570326143    -0.299197637254    12.000000000000
         C            3.629331243943    -0.495391673857     0.029614362746    12.000000000000
         H           -2.152946756057     1.284991326143    -1.086273637254     1.007825032230
         H            2.269195243943     0.014750326143    -1.569417637254     1.007825032230
         H           -4.492653756057     0.620635326143    -0.510854637254     1.007825032230
         H           -3.695284756057    -0.669063673857    -1.433995637254     1.007825032230
         H           -3.882881756057    -0.829131673857     0.314839362746     1.007825032230
         H           -3.112231756057     2.091080326143     1.077523362746     1.007825032230
         H           -2.447827756057     0.667373326143     1.897842362746     1.007825032230
         H           -1.354712756057     1.869564326143     1.181322362746     1.007825032230
         H            2.531625243943     1.975209326143     0.766572362746     1.007825032230
         H            1.589132243943     2.235073326143    -0.716403637254     1.007825032230
         H            3.359123243943     2.126694326143    -0.791739637254     1.007825032230
         H            3.752980243943    -0.306371673857     1.098789362746     1.007825032230
         H            4.517141243943    -0.131092673857    -0.494840637254     1.007825032230
         H            3.557646243943    -1.575928673857    -0.113102637254     1.007825032230

  Basis Set: AUG-CC-PVTZ
    Blend: AUG-CC-PVTZ
  Basis Set: (AUG-CC-PVTZ AUX)
    Blend: AUG-CC-PVTZ-JKFIT
	 Reference Energy          =    -535.9094809592672846 [Eh]
	 Singles Energy            =      -0.0000000000000000 [Eh]
	 Same-Spin Energy          =      -0.5374457238433508 [Eh]
	 Opposite-Spin Energy      =      -1.7523923290883279 [Eh]
	 Correlation Energy        =      -2.2898380529316786 [Eh]
	 Total Energy              =    -538.1993190121989983 [Eh]

	 ================> DF-SCS-MP2 Energies <==================
	-----------------------------------------------------------
	 SCS Same-Spin Scale       =       0.3333333333333333 [-]
	 SCS Opposite-Spin Scale   =       1.2000000000000000 [-]
	 SCS Same-Spin Energy      =      -0.1791485746144502 [Eh]
	 SCS Opposite-Spin Energy  =      -2.1028707949059933 [Eh]
	 SCS Correlation Energy    =      -2.2820193695204436 [Eh]
	 SCS Total Energy          =    -538.1915003287876971 [Eh]
	-----------------------------------------------------------

  Dipole Moment: [D]
     X:    -0.2264      Y:     3.4554      Z:    -1.4109     Total:     3.7393

*** Psi4 exiting successfully. Buy a developer a beer!
