                               Psi4 1.3.2 release

  ==> Input File <==

--------------------------------------------------------------------------
#psi4
#
memory 32 gb

molecule  {
0 1
  O        0.0168640     0.1901590    -0.4020990
  O       -1.4316600    -1.6669448    -0.2341004
  O        1.1131790    -1.1413980     1.1162780
  C       -2.3394790     0.5235580    -0.2686750
  C        2.3972750     0.1605680    -0.4950760
  C       -1.2129060    -0.4792070    -0.2860030
  C        1.1581700    -0.3826440     0.1751130
  C       -3.6769720    -0.1720140    -0.4890940
  C       -2.2983330     1.2966310     1.0564140
  C        2.4741530     1.6802570    -0.2975580
  C        3.6385590    -0.5497050     0.0312540
  H       -2.1437190     1.2306780    -1.0846340
  H        2.2784230    -0.0395630    -1.5677780
  H       -4.4834260     0.5663220    -0.5092150
  H       -3.6860570    -0.7233770    -1.4323560
  H       -3.8736540    -0.8834450     0.3164790
  H       -3.1030040     2.0367670     1.0791630
  H       -2.4386000     0.6130600     1.8994820
  H       -1.3454850     1.8152510     1.1829620
  H        2.5408530     1.9208960     0.7682120
  H        1.5983600     2.1807600    -0.7147640
  H        3.3683510     2.0723810    -0.7901000
  H        3.7622080    -0.3606850     1.1004290
  H        4.5263690    -0.1854060    -0.4932010
  H        3.5668740    -1.6302420    -0.1114630
units angstrom
no_reorient  #important for SAPT in psi4, default
symmetry c1  #important for SAPT in psi4, default
}

set PROPERTIES_ORIGIN ["COM"]
properties('MP2/aug-cc-pvtz', properties = ['dipole'])
--------------------------------------------------------------------------

    Molecular point group: c1
  Charge       = 0
  Multiplicity = 1
  Basis Set: AUG-CC-PVTZ
    Blend: AUG-CC-PVTZ
  Basis Set: (AUG-CC-PVTZ AUX)
    Blend: AUG-CC-PVTZ-JKFIT

    Orbital Energies [Eh]
    ---------------------

    Doubly Occupied:

       1A    -20.631936     2A    -20.565539     3A    -20.562869
       4A    -11.398708     5A    -11.394972     6A    -11.261827
       7A    -11.252492     8A    -11.238014     9A    -11.231682
      10A    -11.225611    11A    -11.219638    12A     -1.483545
      13A     -1.405434    14A     -1.367322    15A     -1.108273
      16A     -1.092533    17A     -0.953599    18A     -0.945202
      19A     -0.936867    20A     -0.862857    21A     -0.792862
      22A     -0.737929    23A     -0.708017    24A     -0.702998
      25A     -0.678284    26A     -0.647697    27A     -0.628906
      28A     -0.617259    29A     -0.607193    30A     -0.577529
      31A     -0.567217    32A     -0.555256    33A     -0.550801
      34A     -0.536210    35A     -0.532701    36A     -0.526899
      37A     -0.503535    38A     -0.497441    39A     -0.495910
      40A     -0.489851    41A     -0.481406    42A     -0.468648
      43A     -0.432725

  @DF-RHF Final Energy:  -535.90849497673048

   => Energetics <=

    Nuclear Repulsion Energy =            647.9455615856790018
    One-Electron Energy =               -2016.7557235156693878
    Two-Electron Energy =                 832.9016669532600190
    Total Energy =                       -535.9084949767304806
  Basis Set: (AUG-CC-PVTZ AUX)
    Blend: AUG-CC-PVTZ-RI
    Molecular point group: c1

    Geometry (in Angstrom), charge = 0, multiplicity = 1:

       Center              X                  Y                   Z               Mass
    ------------   -----------------  -----------------  -----------------  -----------------
         O            0.033099883294     0.242453747678    -0.404855205550    15.994914619570
         O           -1.415424116706    -1.614650052322    -0.236856605550    15.994914619570
         O            1.129414883294    -1.089103252322     1.113521794450    15.994914619570
         C           -2.323243116706     0.575852747678    -0.271431205550    12.000000000000
         C            2.413510883294     0.212862747678    -0.497832205550    12.000000000000
         C           -1.196670116706    -0.426912252322    -0.288759205550    12.000000000000
         C            1.174405883294    -0.330349252322     0.172356794450    12.000000000000
         C           -3.660736116706    -0.119719252322    -0.491850205550    12.000000000000
         C           -2.282097116706     1.348925747678     1.053657794450    12.000000000000
         C            2.490388883294     1.732551747678    -0.300314205550    12.000000000000
         C            3.654794883294    -0.497410252322     0.028497794450    12.000000000000
         H           -2.127483116706     1.282972747678    -1.087390205550     1.007825032230
         H            2.294658883294     0.012731747678    -1.570534205550     1.007825032230
         H           -4.467190116706     0.618616747678    -0.511971205550     1.007825032230
         H           -3.669821116706    -0.671082252322    -1.435112205550     1.007825032230
         H           -3.857418116706    -0.831150252322     0.313722794450     1.007825032230
         H           -3.086768116706     2.089061747678     1.076406794450     1.007825032230
         H           -2.422364116706     0.665354747678     1.896725794450     1.007825032230
         H           -1.329249116706     1.867545747678     1.180205794450     1.007825032230
         H            2.557088883294     1.973190747678     0.765455794450     1.007825032230
         H            1.614595883294     2.233054747678    -0.717520205550     1.007825032230
         H            3.384586883294     2.124675747678    -0.792856205550     1.007825032230
         H            3.778443883294    -0.308390252322     1.097672794450     1.007825032230
         H            4.542604883294    -0.133111252322    -0.495957205550     1.007825032230
         H            3.583109883294    -1.577947252322    -0.114219205550     1.007825032230

  Basis Set: AUG-CC-PVTZ
    Blend: AUG-CC-PVTZ
  Basis Set: (AUG-CC-PVTZ AUX)
    Blend: AUG-CC-PVTZ-JKFIT
	 Reference Energy          =    -535.9084949767304806 [Eh]
	 Singles Energy            =      -0.0000000000000000 [Eh]
	 Same-Spin Energy          =      -0.5376526389167331 [Eh]
	 Opposite-Spin Energy      =      -1.7529673521437712 [Eh]
	 Correlation Energy        =      -2.2906199910605043 [Eh]
	 Total Energy              =    -538.1991149677909334 [Eh]

	 ================> DF-SCS-MP2 Energies <==================
	-----------------------------------------------------------
	 SCS Same-Spin Scale       =       0.3333333333333333 [-]
	 SCS Opposite-Spin Scale   =       1.2000000000000000 [-]
	 SCS Same-Spin Energy      =      -0.1792175463055777 [Eh]
	 SCS Opposite-Spin Energy  =      -2.1035608225725255 [Eh]
	 SCS Correlation Energy    =      -2.2827783688781031 [Eh]
	 SCS Total Energy          =    -538.1912733456085789 [Eh]
	-----------------------------------------------------------

  Dipole Moment: [D]
     X:     0.6100      Y:     3.3136      Z:    -1.4335     Total:     3.6616

*** Psi4 exiting successfully. Buy a developer a beer!
