                               Psi4 1.3.2 release

  ==> Input File <==

--------------------------------------------------------------------------
#psi4
#
memory 32 gb

molecule  {
0 1
  O        0.0168640     0.1901590    -0.4020990
  O       -1.3063300    -1.6835180    -0.2393630
  O        1.1131790    -1.1413980     1.1162780
  C       -2.3394790     0.5235580    -0.2686750
  C        2.3972750     0.1605680    -0.4950760
  C       -1.2017711    -0.4970219    -0.2733578
  C        1.1581700    -0.3826440     0.1751130
  C       -3.6769720    -0.1720140    -0.4890940
  C       -2.2983330     1.2966310     1.0564140
  C        2.4741530     1.6802570    -0.2975580
  C        3.6385590    -0.5497050     0.0312540
  H       -2.1437190     1.2306780    -1.0846340
  H        2.2784230    -0.0395630    -1.5677780
  H       -4.4834260     0.5663220    -0.5092150
  H       -3.6860570    -0.7233770    -1.4323560
  H       -3.8736540    -0.8834450     0.3164790
  H       -3.1030040     2.0367670     1.0791630
  H       -2.4386000     0.6130600     1.8994820
  H       -1.3454850     1.8152510     1.1829620
  H        2.5408530     1.9208960     0.7682120
  H        1.5983600     2.1807600    -0.7147640
  H        3.3683510     2.0723810    -0.7901000
  H        3.7622080    -0.3606850     1.1004290
  H        4.5263690    -0.1854060    -0.4932010
  H        3.5668740    -1.6302420    -0.1114630
units angstrom
no_reorient  #important for SAPT in psi4, default
symmetry c1  #important for SAPT in psi4, default
}

set PROPERTIES_ORIGIN ["COM"]
properties('MP2/aug-cc-pvtz', properties = ['dipole'])
--------------------------------------------------------------------------

    Molecular point group: c1
  Charge       = 0
  Multiplicity = 1
  Basis Set: AUG-CC-PVTZ
    Blend: AUG-CC-PVTZ
  Basis Set: (AUG-CC-PVTZ AUX)
    Blend: AUG-CC-PVTZ-JKFIT

    Orbital Energies [Eh]
    ---------------------

    Doubly Occupied:

       1A    -20.623690     2A    -20.563483     3A    -20.561346
       4A    -11.394515     5A    -11.392136     6A    -11.259115
       7A    -11.258014     8A    -11.236024     9A    -11.233009
      10A    -11.223594    11A    -11.223057    12A     -1.484080
      13A     -1.408977    14A     -1.364674    15A     -1.106489
      16A     -1.092790    17A     -0.951365    18A     -0.945841
      19A     -0.934522    20A     -0.860610    21A     -0.790362
      22A     -0.736979    23A     -0.706986    24A     -0.702113
      25A     -0.677379    26A     -0.646222    27A     -0.630131
      28A     -0.616122    29A     -0.607299    30A     -0.576526
      31A     -0.567023    32A     -0.553890    33A     -0.551553
      34A     -0.537140    35A     -0.533113    36A     -0.530807
      37A     -0.502910    38A     -0.497890    39A     -0.494402
      40A     -0.491404    41A     -0.479946    42A     -0.468419
      43A     -0.430714

  @DF-RHF Final Energy:  -535.91343590017789

   => Energetics <=

    Nuclear Repulsion Energy =            648.6717823783503718
    One-Electron Energy =               -2018.2771137513618669
    Two-Electron Energy =                 833.6918954728336075
    Total Energy =                       -535.9134359001778876
  Basis Set: (AUG-CC-PVTZ AUX)
    Blend: AUG-CC-PVTZ-RI
    Molecular point group: c1

    Geometry (in Angstrom), charge = 0, multiplicity = 1:

       Center              X                  Y                   Z               Mass
    ------------   -----------------  -----------------  -----------------  -----------------
         O            0.019574654830     0.245482735669    -0.405282593285    15.994914619570
         O           -1.303619345170    -1.628194264331    -0.242546593285    15.994914619570
         O            1.115889654830    -1.086074264331     1.113094406715    15.994914619570
         C           -2.336768345170     0.578881735669    -0.271858593285    12.000000000000
         C            2.399985654830     0.215891735669    -0.498259593285    12.000000000000
         C           -1.199060445170    -0.441698164331    -0.276541393285    12.000000000000
         C            1.160880654830    -0.327320264331     0.171929406715    12.000000000000
         C           -3.674261345170    -0.116690264331    -0.492277593285    12.000000000000
         C           -2.295622345170     1.351954735669     1.053230406715    12.000000000000
         C            2.476863654830     1.735580735669    -0.300741593285    12.000000000000
         C            3.641269654830    -0.494381264331     0.028070406715    12.000000000000
         H           -2.141008345170     1.286001735669    -1.087817593285     1.007825032230
         H            2.281133654830     0.015760735669    -1.570961593285     1.007825032230
         H           -4.480715345170     0.621645735669    -0.512398593285     1.007825032230
         H           -3.683346345170    -0.668053264331    -1.435539593285     1.007825032230
         H           -3.870943345170    -0.828121264331     0.313295406715     1.007825032230
         H           -3.100293345170     2.092090735669     1.075979406715     1.007825032230
         H           -2.435889345170     0.668383735669     1.896298406715     1.007825032230
         H           -1.342774345170     1.870574735669     1.179778406715     1.007825032230
         H            2.543563654830     1.976219735669     0.765028406715     1.007825032230
         H            1.601070654830     2.236083735669    -0.717947593285     1.007825032230
         H            3.371061654830     2.127704735669    -0.793283593285     1.007825032230
         H            3.764918654830    -0.305361264331     1.097245406715     1.007825032230
         H            4.529079654830    -0.130082264331    -0.496384593285     1.007825032230
         H            3.569584654830    -1.574918264331    -0.114646593285     1.007825032230

  Basis Set: AUG-CC-PVTZ
    Blend: AUG-CC-PVTZ
  Basis Set: (AUG-CC-PVTZ AUX)
    Blend: AUG-CC-PVTZ-JKFIT
	 Reference Energy          =    -535.9134359001778876 [Eh]
	 Singles Energy            =      -0.0000000000000000 [Eh]
	 Same-Spin Energy          =      -0.5368949402232034 [Eh]
	 Opposite-Spin Energy      =      -1.7514435752559843 [Eh]
	 Correlation Energy        =      -2.2883385154791878 [Eh]
	 Total Energy              =    -538.2017744156570416 [Eh]

	 ================> DF-SCS-MP2 Energies <==================
	-----------------------------------------------------------
	 SCS Same-Spin Scale       =       0.3333333333333333 [-]
	 SCS Opposite-Spin Scale   =       1.2000000000000000 [-]
	 SCS Same-Spin Energy      =      -0.1789649800744011 [Eh]
	 SCS Opposite-Spin Energy  =      -2.1017322903071811 [Eh]
	 SCS Correlation Energy    =      -2.2806972703815824 [Eh]
	 SCS Total Energy          =    -538.1941331705594393 [Eh]
	-----------------------------------------------------------

  Dipole Moment: [D]
     X:     0.2466      Y:     3.3015      Z:    -1.4241     Total:     3.6040

*** Psi4 exiting successfully. Buy a developer a beer!
