                               Psi4 1.3.2 release

  ==> Input File <==

--------------------------------------------------------------------------
#psi4
#
memory 32 gb

molecule  {
0 1
  O        0.0395272     0.1466718    -0.4024082
  O       -1.3063300    -1.6835180    -0.2393630
  O        1.1131790    -1.1413980     1.1162780
  C       -2.3394790     0.5235580    -0.2686750
  C        2.3972750     0.1605680    -0.4950760
  C       -1.2129060    -0.4792070    -0.2860030
  C        1.1581700    -0.3826440     0.1751130
  C       -3.6769720    -0.1720140    -0.4890940
  C       -2.2983330     1.2966310     1.0564140
  C        2.4741530     1.6802570    -0.2975580
  C        3.6385590    -0.5497050     0.0312540
  H       -2.1437190     1.2306780    -1.0846340
  H        2.2784230    -0.0395630    -1.5677780
  H       -4.4834260     0.5663220    -0.5092150
  H       -3.6860570    -0.7233770    -1.4323560
  H       -3.8736540    -0.8834450     0.3164790
  H       -3.1030040     2.0367670     1.0791630
  H       -2.4386000     0.6130600     1.8994820
  H       -1.3454850     1.8152510     1.1829620
  H        2.5408530     1.9208960     0.7682120
  H        1.5983600     2.1807600    -0.7147640
  H        3.3683510     2.0723810    -0.7901000
  H        3.7622080    -0.3606850     1.1004290
  H        4.5263690    -0.1854060    -0.4932010
  H        3.5668740    -1.6302420    -0.1114630
units angstrom
no_reorient  #important for SAPT in psi4, default
symmetry c1  #important for SAPT in psi4, default
}

set PROPERTIES_ORIGIN ["COM"]
properties('MP2/aug-cc-pvtz', properties = ['dipole'])
--------------------------------------------------------------------------

    Molecular point group: c1
  Charge       = 0
  Multiplicity = 1
  Basis Set: AUG-CC-PVTZ
    Blend: AUG-CC-PVTZ
  Basis Set: (AUG-CC-PVTZ AUX)
    Blend: AUG-CC-PVTZ-JKFIT

    Orbital Energies [Eh]
    ---------------------

    Doubly Occupied:

       1A    -20.623372     2A    -20.562219     3A    -20.553390
       4A    -11.396585     5A    -11.389498     6A    -11.262461
       7A    -11.256864     8A    -11.236696     9A    -11.235027
      10A    -11.226297    11A    -11.221839    12A     -1.489897
      13A     -1.400681    14A     -1.359589    15A     -1.109273
      16A     -1.095429    17A     -0.955146    18A     -0.947182
      19A     -0.939725    20A     -0.864021    21A     -0.798149
      22A     -0.734673    23A     -0.708489    24A     -0.701485
      25A     -0.677104    26A     -0.644791    27A     -0.631620
      28A     -0.615248    29A     -0.607082    30A     -0.575259
      31A     -0.568722    32A     -0.554656    33A     -0.551537
      34A     -0.537452    35A     -0.530410    36A     -0.526879
      37A     -0.504309    38A     -0.498801    39A     -0.495298
      40A     -0.490486    41A     -0.474281    42A     -0.468177
      43A     -0.432810

  @DF-RHF Final Energy:  -535.91410881663819

   => Energetics <=

    Nuclear Repulsion Energy =            649.1976515286003178
    One-Electron Energy =               -2019.3176967332306049
    Two-Electron Energy =                 834.2059363879920966
    Total Energy =                       -535.9141088166381905
  Basis Set: (AUG-CC-PVTZ AUX)
    Blend: AUG-CC-PVTZ-RI
    Molecular point group: c1

    Geometry (in Angstrom), charge = 0, multiplicity = 1:

       Center              X                  Y                   Z               Mass
    ------------   -----------------  -----------------  -----------------  -----------------
         O            0.040790129281     0.205043053944    -0.404600688398    15.994914619570
         O           -1.305067070719    -1.625146746056    -0.241555488398    15.994914619570
         O            1.114441929281    -1.083026746056     1.114085511602    15.994914619570
         C           -2.338216070719     0.581929253944    -0.270867488398    12.000000000000
         C            2.398537929281     0.218939253944    -0.497268488398    12.000000000000
         C           -1.211643070719    -0.420835746056    -0.288195488398    12.000000000000
         C            1.159432929281    -0.324272746056     0.172920511602    12.000000000000
         C           -3.675709070719    -0.113642746056    -0.491286488398    12.000000000000
         C           -2.297070070719     1.355002253944     1.054221511602    12.000000000000
         C            2.475415929281     1.738628253944    -0.299750488398    12.000000000000
         C            3.639821929281    -0.491333746056     0.029061511602    12.000000000000
         H           -2.142456070719     1.289049253944    -1.086826488398     1.007825032230
         H            2.279685929281     0.018808253944    -1.569970488398     1.007825032230
         H           -4.482163070719     0.624693253944    -0.511407488398     1.007825032230
         H           -3.684794070719    -0.665005746056    -1.434548488398     1.007825032230
         H           -3.872391070719    -0.825073746056     0.314286511602     1.007825032230
         H           -3.101741070719     2.095138253944     1.076970511602     1.007825032230
         H           -2.437337070719     0.671431253944     1.897289511602     1.007825032230
         H           -1.344222070719     1.873622253944     1.180769511602     1.007825032230
         H            2.542115929281     1.979267253944     0.766019511602     1.007825032230
         H            1.599622929281     2.239131253944    -0.716956488398     1.007825032230
         H            3.369613929281     2.130752253944    -0.792292488398     1.007825032230
         H            3.763470929281    -0.302313746056     1.098236511602     1.007825032230
         H            4.527631929281    -0.127034746056    -0.495393488398     1.007825032230
         H            3.568136929281    -1.571870746056    -0.113655488398     1.007825032230

  Basis Set: AUG-CC-PVTZ
    Blend: AUG-CC-PVTZ
  Basis Set: (AUG-CC-PVTZ AUX)
    Blend: AUG-CC-PVTZ-JKFIT
	 Reference Energy          =    -535.9141088166381905 [Eh]
	 Singles Energy            =      -0.0000000000000000 [Eh]
	 Same-Spin Energy          =      -0.5367744916999360 [Eh]
	 Opposite-Spin Energy      =      -1.7507393910094025 [Eh]
	 Correlation Energy        =      -2.2875138827093382 [Eh]
	 Total Energy              =    -538.2016226993475811 [Eh]

	 ================> DF-SCS-MP2 Energies <==================
	-----------------------------------------------------------
	 SCS Same-Spin Scale       =       0.3333333333333333 [-]
	 SCS Opposite-Spin Scale   =       1.2000000000000000 [-]
	 SCS Same-Spin Energy      =      -0.1789248305666453 [Eh]
	 SCS Opposite-Spin Energy  =      -2.1008872692112828 [Eh]
	 SCS Correlation Energy    =      -2.2798120997779279 [Eh]
	 SCS Total Energy          =    -538.1939209164161184 [Eh]
	-----------------------------------------------------------

  Dipole Moment: [D]
     X:    -0.1000      Y:     3.5016      Z:    -1.4911     Total:     3.8072

*** Psi4 exiting successfully. Buy a developer a beer!
