                               Psi4 1.3.2 release

  ==> Input File <==

--------------------------------------------------------------------------
#psi4
#
memory 32 gb

molecule  {
0 1
  O        0.0284282     0.1685412    -0.4016530
  O       -1.3063300    -1.6835180    -0.2393630
  O        1.1131790    -1.1413980     1.1162780
  C       -2.3394790     0.5235580    -0.2686750
  C        2.3972750     0.1605680    -0.4950760
  C       -1.2129060    -0.4792070    -0.2860030
  C        1.1581700    -0.3826440     0.1751130
  C       -3.6769720    -0.1720140    -0.4890940
  C       -2.2983330     1.2966310     1.0564140
  C        2.4741530     1.6802570    -0.2975580
  C        3.6385590    -0.5497050     0.0312540
  H       -2.1437190     1.2306780    -1.0846340
  H        2.2784230    -0.0395630    -1.5677780
  H       -4.4834260     0.5663220    -0.5092150
  H       -3.6860570    -0.7233770    -1.4323560
  H       -3.8736540    -0.8834450     0.3164790
  H       -3.1030040     2.0367670     1.0791630
  H       -2.4386000     0.6130600     1.8994820
  H       -1.3454850     1.8152510     1.1829620
  H        2.5408530     1.9208960     0.7682120
  H        1.5983600     2.1807600    -0.7147640
  H        3.3683510     2.0723810    -0.7901000
  H        3.7622080    -0.3606850     1.1004290
  H        4.5263690    -0.1854060    -0.4932010
  H        3.5668740    -1.6302420    -0.1114630
units angstrom
no_reorient  #important for SAPT in psi4, default
symmetry c1  #important for SAPT in psi4, default
}

set PROPERTIES_ORIGIN ["COM"]
properties('MP2/aug-cc-pvtz', properties = ['dipole'])
--------------------------------------------------------------------------

    Molecular point group: c1
  Charge       = 0
  Multiplicity = 1
  Basis Set: AUG-CC-PVTZ
    Blend: AUG-CC-PVTZ
  Basis Set: (AUG-CC-PVTZ AUX)
    Blend: AUG-CC-PVTZ-JKFIT

    Orbital Energies [Eh]
    ---------------------

    Doubly Occupied:

       1A    -20.623511     2A    -20.561908     3A    -20.557099
       4A    -11.395423     5A    -11.391999     6A    -11.260677
       7A    -11.257998     8A    -11.235683     9A    -11.235494
      10A    -11.225195    11A    -11.222671    12A     -1.485611
      13A     -1.401112    14A     -1.360162    15A     -1.108697
      16A     -1.095297    17A     -0.953457    18A     -0.946901
      19A     -0.938115    20A     -0.863701    21A     -0.795017
      22A     -0.735078    23A     -0.707250    24A     -0.701760
      25A     -0.676050    26A     -0.645014    27A     -0.630856
      28A     -0.615422    29A     -0.606962    30A     -0.575498
      31A     -0.568213    32A     -0.554132    33A     -0.551887
      34A     -0.536933    35A     -0.531387    36A     -0.527573
      37A     -0.503668    38A     -0.498782    39A     -0.494982
      40A     -0.490875    41A     -0.475723    42A     -0.468379
      43A     -0.432863

  @DF-RHF Final Energy:  -535.91349507905443

   => Energetics <=

    Nuclear Repulsion Energy =            648.8652811581588367
    One-Electron Energy =               -2018.6675289392640025
    Two-Electron Energy =                 833.8887527020506241
    Total Energy =                       -535.9134950790544281
  Basis Set: (AUG-CC-PVTZ AUX)
    Blend: AUG-CC-PVTZ-RI
    Molecular point group: c1

    Geometry (in Angstrom), charge = 0, multiplicity = 1:

       Center              X                  Y                   Z               Mass
    ------------   -----------------  -----------------  -----------------  -----------------
         O            0.030814051257     0.224699855524    -0.403921894442    15.994914619570
         O           -1.303944148743    -1.627359344476    -0.241631894442    15.994914619570
         O            1.115564851257    -1.085239344476     1.114009105558    15.994914619570
         C           -2.337093148743     0.579716655524    -0.270943894442    12.000000000000
         C            2.399660851257     0.216726655524    -0.497344894442    12.000000000000
         C           -1.210520148743    -0.423048344476    -0.288271894442    12.000000000000
         C            1.160555851257    -0.326485344476     0.172844105558    12.000000000000
         C           -3.674586148743    -0.115855344476    -0.491362894442    12.000000000000
         C           -2.295947148743     1.352789655524     1.054145105558    12.000000000000
         C            2.476538851257     1.736415655524    -0.299826894442    12.000000000000
         C            3.640944851257    -0.493546344476     0.028985105558    12.000000000000
         H           -2.141333148743     1.286836655524    -1.086902894442     1.007825032230
         H            2.280808851257     0.016595655524    -1.570046894442     1.007825032230
         H           -4.481040148743     0.622480655524    -0.511483894442     1.007825032230
         H           -3.683671148743    -0.667218344476    -1.434624894442     1.007825032230
         H           -3.871268148743    -0.827286344476     0.314210105558     1.007825032230
         H           -3.100618148743     2.092925655524     1.076894105558     1.007825032230
         H           -2.436214148743     0.669218655524     1.897213105558     1.007825032230
         H           -1.343099148743     1.871409655524     1.180693105558     1.007825032230
         H            2.543238851257     1.977054655524     0.765943105558     1.007825032230
         H            1.600745851257     2.236918655524    -0.717032894442     1.007825032230
         H            3.370736851257     2.128539655524    -0.792368894442     1.007825032230
         H            3.764593851257    -0.304526344476     1.098160105558     1.007825032230
         H            4.528754851257    -0.129247344476    -0.495469894442     1.007825032230
         H            3.569259851257    -1.574083344476    -0.113731894442     1.007825032230

  Basis Set: AUG-CC-PVTZ
    Blend: AUG-CC-PVTZ
  Basis Set: (AUG-CC-PVTZ AUX)
    Blend: AUG-CC-PVTZ-JKFIT
	 Reference Energy          =    -535.9134950790544281 [Eh]
	 Singles Energy            =      -0.0000000000000000 [Eh]
	 Same-Spin Energy          =      -0.5370725105105438 [Eh]
	 Opposite-Spin Energy      =      -1.7515331765580449 [Eh]
	 Correlation Energy        =      -2.2886056870685887 [Eh]
	 Total Energy              =    -538.2021007661230669 [Eh]

	 ================> DF-SCS-MP2 Energies <==================
	-----------------------------------------------------------
	 SCS Same-Spin Scale       =       0.3333333333333333 [-]
	 SCS Opposite-Spin Scale   =       1.2000000000000000 [-]
	 SCS Same-Spin Energy      =      -0.1790241701701813 [Eh]
	 SCS Opposite-Spin Energy  =      -2.1018398118696537 [Eh]
	 SCS Correlation Energy    =      -2.2808639820398349 [Eh]
	 SCS Total Energy          =    -538.1943590610942465 [Eh]
	-----------------------------------------------------------

  Dipole Moment: [D]
     X:     0.0451      Y:     3.4512      Z:    -1.4571     Total:     3.7465

*** Psi4 exiting successfully. Buy a developer a beer!
