                               Psi4 1.4a3.dev225

  ==> Input File <==

--------------------------------------------------------------------------
#psi4
#
memory 32 gb

molecule  {
0 1
  O        0.0168770     0.1900940    -0.4022940
  O       -1.3063670    -1.6835610    -0.2394920
  O        1.1130200    -1.1412560     1.1163620
  C       -2.3394820     0.5235460    -0.2686790
  C        2.3972900     0.1604980    -0.4950420
  C       -1.2090808    -0.4294428    -0.2880320
  C        1.1580970    -0.3826160     0.1751030
  C       -3.6770470    -0.1720400    -0.4887310
  C       -2.2980570     1.2968550     1.0562380
  C        2.4742070     1.6801910    -0.2976680
  C        3.6385230    -0.5497820     0.0314390
  H       -2.1438530     1.2305020    -1.0848160
  H        2.2785110    -0.0397390    -1.5677300
  H       -4.4835100     0.5662920    -0.5086310
  H       -3.6863850    -0.7233940    -1.4319940
  H       -3.8734940    -0.8834740     0.3168940
  H       -3.1026030     2.0371270     1.0789400
  H       -2.4383350     0.6134670     1.8994540
  H       -1.3451120     1.8153510     1.1825900
  H        2.5409520     1.9209190     0.7680790
  H        1.5984060     2.1806800    -0.7148800
  H        3.3683910     2.0722630    -0.7902800
  H        3.7619980    -0.3608140     1.1006380
  H        4.5264120    -0.1854560    -0.4928670
  H        3.5668710    -1.6303120    -0.1113440
units angstrom
no_reorient  #important for SAPT in psi4, default
symmetry c1  #important for SAPT in psi4, default
}

set PROPERTIES_ORIGIN ["COM"]
properties('MP2/aug-cc-pvtz', properties = ['dipole'])
--------------------------------------------------------------------------

    Molecular point group: c1
  Charge       = 0
  Multiplicity = 1
  Basis Set: AUG-CC-PVTZ
    Blend: AUG-CC-PVTZ
  Basis Set: (AUG-CC-PVTZ AUX)
    Blend: AUG-CC-PVTZ-JKFIT

    Orbital Energies [Eh]
    ---------------------

    Doubly Occupied:

       1A    -20.630381     2A    -20.563360     3A    -20.552603
       4A    -11.398366     5A    -11.397785     6A    -11.261510
       7A    -11.259084     8A    -11.237691     9A    -11.236722
      10A    -11.224985    11A    -11.224695    12A     -1.486318
      13A     -1.391227    14A     -1.342722    15A     -1.112798
      16A     -1.098508    17A     -0.957121    18A     -0.947986
      19A     -0.941389    20A     -0.868659    21A     -0.798548
      22A     -0.735494    23A     -0.707560    24A     -0.702511
      25A     -0.673346    26A     -0.644688    27A     -0.628945
      28A     -0.616787    29A     -0.603378    30A     -0.575454
      31A     -0.569048    32A     -0.555198    33A     -0.552225
      34A     -0.535861    35A     -0.532531    36A     -0.522664
      37A     -0.503099    38A     -0.500443    39A     -0.496531
      40A     -0.490865    41A     -0.467847    42A     -0.466032
      43A     -0.434760

  @DF-RHF Final Energy:  -535.90361763011765

   => Energetics <=

    Nuclear Repulsion Energy =            648.5044703582391321
    One-Electron Energy =               -2017.9207304747960734
    Two-Electron Energy =                 833.5126424864392902
    Total Energy =                       -535.9036176301176511
  Basis Set: (AUG-CC-PVTZ AUX)
    Blend: AUG-CC-PVTZ-RI
    Molecular point group: c1

    Geometry (in Angstrom), charge = 0, multiplicity = 1:

       Center              X                  Y                   Z               Mass
    ------------   -----------------  -----------------  -----------------  -----------------
         O            0.020144193281     0.240284595678    -0.404366220918    15.994914619570
         O           -1.303099806719    -1.633370404322    -0.241564220918    15.994914619570
         O            1.116287193281    -1.091065404322     1.114289779082    15.994914619570
         C           -2.336214806719     0.573736595678    -0.270751220918    12.000000000000
         C            2.400557193281     0.210688595678    -0.497114220918    12.000000000000
         C           -1.205813606719    -0.379252204322    -0.290104220918    12.000000000000
         C            1.161364193281    -0.332425404322     0.173030779082    12.000000000000
         C           -3.673779806719    -0.121849404322    -0.490803220918    12.000000000000
         C           -2.294789806719     1.347045595678     1.054165779082    12.000000000000
         C            2.477474193281     1.730381595678    -0.299740220918    12.000000000000
         C            3.641790193281    -0.499591404322     0.029366779082    12.000000000000
         H           -2.140585806719     1.280692595678    -1.086888220918     1.007825032230
         H            2.281778193281     0.010451595678    -1.569802220918     1.007825032230
         H           -4.480242806719     0.616482595678    -0.510703220918     1.007825032230
         H           -3.683117806719    -0.673203404322    -1.434066220918     1.007825032230
         H           -3.870226806719    -0.833283404322     0.314821779082     1.007825032230
         H           -3.099335806719     2.087317595678     1.076867779082     1.007825032230
         H           -2.435067806719     0.663657595678     1.897381779082     1.007825032230
         H           -1.341844806719     1.865541595678     1.180517779082     1.007825032230
         H            2.544219193281     1.971109595678     0.766006779082     1.007825032230
         H            1.601673193281     2.230870595678    -0.716952220918     1.007825032230
         H            3.371658193281     2.122453595678    -0.792352220918     1.007825032230
         H            3.765265193281    -0.310623404322     1.098565779082     1.007825032230
         H            4.529679193281    -0.135265404322    -0.494939220918     1.007825032230
         H            3.570138193281    -1.580121404322    -0.113416220918     1.007825032230

  Basis Set: AUG-CC-PVTZ
    Blend: AUG-CC-PVTZ
  Basis Set: (AUG-CC-PVTZ AUX)
    Blend: AUG-CC-PVTZ-JKFIT
	 Reference Energy          =    -535.9036176301176511 [Eh]
	 Singles Energy            =      -0.0000000000000000 [Eh]
	 Same-Spin Energy          =      -0.5386611478442848 [Eh]
	 Opposite-Spin Energy      =      -1.7548411085614712 [Eh]
	 Correlation Energy        =      -2.2935022564057559 [Eh]
	 Total Energy              =    -538.1971198865234101 [Eh]

	 ================> DF-SCS-MP2 Energies <==================
	-----------------------------------------------------------
	 SCS Same-Spin Scale       =       0.3333333333333333 [-]
	 SCS Opposite-Spin Scale   =       1.2000000000000000 [-]
	 SCS Same-Spin Energy      =      -0.1795537159480949 [Eh]
	 SCS Opposite-Spin Energy  =      -2.1058093302737655 [Eh]
	 SCS Correlation Energy    =      -2.2853630462218604 [Eh]
	 SCS Total Energy          =    -538.1889806763394972 [Eh]
	-----------------------------------------------------------

  Dipole Moment: [D]
     X:     0.3692      Y:     3.6660      Z:    -1.3904     Total:     3.9381

*** Psi4 exiting successfully. Buy a developer a beer!
