                               Psi4 1.3.2 release

  ==> Input File <==

--------------------------------------------------------------------------
#psi4
#
memory 32 gb

molecule  {
0 1
  O        0.0168640     0.1901590    -0.4020990
  O       -1.3063300    -1.6835180    -0.2393630
  O        1.1131790    -1.1413980     1.1162780
  C       -2.3394790     0.5235580    -0.2686750
  C        2.3972750     0.1605680    -0.4950760
  C       -1.1153681    -0.3576323    -0.2608760
  C        1.1581700    -0.3826440     0.1751130
  C       -3.6769720    -0.1720140    -0.4890940
  C       -2.2983330     1.2966310     1.0564140
  C        2.4741530     1.6802570    -0.2975580
  C        3.6385590    -0.5497050     0.0312540
  H       -2.1437190     1.2306780    -1.0846340
  H        2.2784230    -0.0395630    -1.5677780
  H       -4.4834260     0.5663220    -0.5092150
  H       -3.6860570    -0.7233770    -1.4323560
  H       -3.8736540    -0.8834450     0.3164790
  H       -3.1030040     2.0367670     1.0791630
  H       -2.4386000     0.6130600     1.8994820
  H       -1.3454850     1.8152510     1.1829620
  H        2.5408530     1.9208960     0.7682120
  H        1.5983600     2.1807600    -0.7147640
  H        3.3683510     2.0723810    -0.7901000
  H        3.7622080    -0.3606850     1.1004290
  H        4.5263690    -0.1854060    -0.4932010
  H        3.5668740    -1.6302420    -0.1114630
units angstrom
no_reorient  #important for SAPT in psi4, default
symmetry c1  #important for SAPT in psi4, default
}

set PROPERTIES_ORIGIN ["COM"]
properties('MP2/aug-cc-pvtz', properties = ['dipole'])
--------------------------------------------------------------------------

    Molecular point group: c1
  Charge       = 0
  Multiplicity = 1
  Basis Set: AUG-CC-PVTZ
    Blend: AUG-CC-PVTZ
  Basis Set: (AUG-CC-PVTZ AUX)
    Blend: AUG-CC-PVTZ-JKFIT

    Orbital Energies [Eh]
    ---------------------

    Doubly Occupied:

       1A    -20.656080     2A    -20.577308     3A    -20.528678
       4A    -11.413159     5A    -11.396845     6A    -11.270494
       7A    -11.256813     8A    -11.244800     9A    -11.233708
      10A    -11.231241    11A    -11.220101    12A     -1.536356
      13A     -1.406369    14A     -1.291862    15A     -1.118611
      16A     -1.095448    17A     -0.981072    18A     -0.953640
      19A     -0.942317    20A     -0.868942    21A     -0.816540
      22A     -0.752655    23A     -0.721354    24A     -0.707330
      25A     -0.682691    26A     -0.652543    27A     -0.626935
      28A     -0.622378    29A     -0.594653    30A     -0.577366
      31A     -0.567563    32A     -0.562053    33A     -0.547686
      34A     -0.543095    35A     -0.531206    36A     -0.521133
      37A     -0.505770    38A     -0.500346    39A     -0.494710
      40A     -0.490553    41A     -0.471684    42A     -0.437059
      43A     -0.420260

  @DF-RHF Final Energy:  -535.87336001554388

   => Energetics <=

    Nuclear Repulsion Energy =            649.4380423632646853
    One-Electron Energy =               -2019.4799949768050737
    Two-Electron Energy =                 834.1685925979965077
    Total Energy =                       -535.8733600155438808
  Basis Set: (AUG-CC-PVTZ AUX)
    Blend: AUG-CC-PVTZ-RI
    Molecular point group: c1

    Geometry (in Angstrom), charge = 0, multiplicity = 1:

       Center              X                  Y                   Z               Mass
    ------------   -----------------  -----------------  -----------------  -----------------
         O            0.013016315679     0.234902498050    -0.406230012675    15.994914619570
         O           -1.310177684321    -1.638774501950    -0.243494012675    15.994914619570
         O            1.109331315679    -1.096654501950     1.112146987325    15.994914619570
         C           -2.343326684321     0.568301498050    -0.272806012675    12.000000000000
         C            2.393427315679     0.205311498050    -0.499207012675    12.000000000000
         C           -1.119215784321    -0.312888801950    -0.265007012675    12.000000000000
         C            1.154322315679    -0.337900501950     0.170981987325    12.000000000000
         C           -3.680819684321    -0.127270501950    -0.493225012675    12.000000000000
         C           -2.302180684321     1.341374498050     1.052282987325    12.000000000000
         C            2.470305315679     1.725000498050    -0.301689012675    12.000000000000
         C            3.634711315679    -0.504961501950     0.027122987325    12.000000000000
         H           -2.147566684321     1.275421498050    -1.088765012675     1.007825032230
         H            2.274575315679     0.005180498050    -1.571909012675     1.007825032230
         H           -4.487273684321     0.611065498050    -0.513346012675     1.007825032230
         H           -3.689904684321    -0.678633501950    -1.436487012675     1.007825032230
         H           -3.877501684321    -0.838701501950     0.312347987325     1.007825032230
         H           -3.106851684321     2.081510498050     1.075031987325     1.007825032230
         H           -2.442447684321     0.657803498050     1.895350987325     1.007825032230
         H           -1.349332684321     1.859994498050     1.178830987325     1.007825032230
         H            2.537005315679     1.965639498050     0.764080987325     1.007825032230
         H            1.594512315679     2.225503498050    -0.718895012675     1.007825032230
         H            3.364503315679     2.117124498050    -0.794231012675     1.007825032230
         H            3.758360315679    -0.315941501950     1.096297987325     1.007825032230
         H            4.522521315679    -0.140662501950    -0.497332012675     1.007825032230
         H            3.563026315679    -1.585498501950    -0.115594012675     1.007825032230

  Basis Set: AUG-CC-PVTZ
    Blend: AUG-CC-PVTZ
  Basis Set: (AUG-CC-PVTZ AUX)
    Blend: AUG-CC-PVTZ-JKFIT
	 Reference Energy          =    -535.8733600155438808 [Eh]
	 Singles Energy            =      -0.0000000000000000 [Eh]
	 Same-Spin Energy          =      -0.5399589765412058 [Eh]
	 Opposite-Spin Energy      =      -1.7573906571030520 [Eh]
	 Correlation Energy        =      -2.2973496336442576 [Eh]
	 Total Energy              =    -538.1707096491880975 [Eh]

	 ================> DF-SCS-MP2 Energies <==================
	-----------------------------------------------------------
	 SCS Same-Spin Scale       =       0.3333333333333333 [-]
	 SCS Opposite-Spin Scale   =       1.2000000000000000 [-]
	 SCS Same-Spin Energy      =      -0.1799863255137353 [Eh]
	 SCS Opposite-Spin Energy  =      -2.1088687885236621 [Eh]
	 SCS Correlation Energy    =      -2.2888551140373972 [Eh]
	 SCS Total Energy          =    -538.1622151295812273 [Eh]
	-----------------------------------------------------------

  Dipole Moment: [D]
     X:     1.4215      Y:     4.0459      Z:    -1.3315     Total:     4.4903

*** Psi4 exiting successfully. Buy a developer a beer!
