                               Psi4 1.3.2 release

  ==> Input File <==

--------------------------------------------------------------------------
#psi4
#
memory 32 gb

molecule  {
0 1
  O        0.0168640     0.1901590    -0.4020990
  O       -1.3063300    -1.6835180    -0.2393630
  O        1.1131790    -1.1413980     1.1162780
  C       -2.3394790     0.5235580    -0.2686750
  C        2.3972750     0.1605680    -0.4950760
  C       -1.3622880    -0.3462418    -0.2837053
  C        1.1581700    -0.3826440     0.1751130
  C       -3.6769720    -0.1720140    -0.4890940
  C       -2.2983330     1.2966310     1.0564140
  C        2.4741530     1.6802570    -0.2975580
  C        3.6385590    -0.5497050     0.0312540
  H       -2.1437190     1.2306780    -1.0846340
  H        2.2784230    -0.0395630    -1.5677780
  H       -4.4834260     0.5663220    -0.5092150
  H       -3.6860570    -0.7233770    -1.4323560
  H       -3.8736540    -0.8834450     0.3164790
  H       -3.1030040     2.0367670     1.0791630
  H       -2.4386000     0.6130600     1.8994820
  H       -1.3454850     1.8152510     1.1829620
  H        2.5408530     1.9208960     0.7682120
  H        1.5983600     2.1807600    -0.7147640
  H        3.3683510     2.0723810    -0.7901000
  H        3.7622080    -0.3606850     1.1004290
  H        4.5263690    -0.1854060    -0.4932010
  H        3.5668740    -1.6302420    -0.1114630
units angstrom
no_reorient  #important for SAPT in psi4, default
symmetry c1  #important for SAPT in psi4, default
}

set PROPERTIES_ORIGIN ["COM"]
properties('MP2/aug-cc-pvtz', properties = ['dipole'])
--------------------------------------------------------------------------

    Molecular point group: c1
  Charge       = 0
  Multiplicity = 1
  Basis Set: AUG-CC-PVTZ
    Blend: AUG-CC-PVTZ
  Basis Set: (AUG-CC-PVTZ AUX)
    Blend: AUG-CC-PVTZ-JKFIT

    Orbital Energies [Eh]
    ---------------------

    Doubly Occupied:

       1A    -20.607606     2A    -20.553418     3A    -20.547903
       4A    -11.412523     5A    -11.385509     6A    -11.263232
       7A    -11.253967     8A    -11.253761     9A    -11.238880
      10A    -11.231333    11A    -11.218857    12A     -1.446379
      13A     -1.367369    14A     -1.300871    15A     -1.158442
      16A     -1.093507    17A     -0.965026    18A     -0.953971
      19A     -0.940882    20A     -0.881203    21A     -0.785211
      22A     -0.739552    23A     -0.700247    24A     -0.689246
      25A     -0.655523    26A     -0.645188    27A     -0.631520
      28A     -0.612261    29A     -0.596370    30A     -0.571208
      31A     -0.564418    32A     -0.560886    33A     -0.550755
      34A     -0.547069    35A     -0.527790    36A     -0.525126
      37A     -0.507559    38A     -0.496940    39A     -0.491620
      40A     -0.480284    41A     -0.455554    42A     -0.444075
      43A     -0.431352

  @DF-RHF Final Energy:  -535.83320541416936

   => Energetics <=

    Nuclear Repulsion Energy =            647.5443012297894256
    One-Electron Energy =               -2016.1862262897484470
    Two-Electron Energy =                 832.8087196457896653
    Total Energy =                       -535.8332054141693561
  Basis Set: (AUG-CC-PVTZ AUX)
    Blend: AUG-CC-PVTZ-RI
    Molecular point group: c1

    Geometry (in Angstrom), charge = 0, multiplicity = 1:

       Center              X                  Y                   Z               Mass
    ------------   -----------------  -----------------  -----------------  -----------------
         O            0.031758540456     0.234037912768    -0.404497175945    15.994914619570
         O           -1.291435459544    -1.639639087232    -0.241761175945    15.994914619570
         O            1.128073540456    -1.097519087232     1.113879824055    15.994914619570
         C           -2.324584459544     0.567436912768    -0.271073175945    12.000000000000
         C            2.412169540456     0.204446912768    -0.497474175945    12.000000000000
         C           -1.347393459544    -0.302362887232    -0.286103475945    12.000000000000
         C            1.173064540456    -0.338765087232     0.172714824055    12.000000000000
         C           -3.662077459544    -0.128135087232    -0.491492175945    12.000000000000
         C           -2.283438459544     1.340509912768     1.054015824055    12.000000000000
         C            2.489047540456     1.724135912768    -0.299956175945    12.000000000000
         C            3.653453540456    -0.505826087232     0.028855824055    12.000000000000
         H           -2.128824459544     1.274556912768    -1.087032175945     1.007825032230
         H            2.293317540456     0.004315912768    -1.570176175945     1.007825032230
         H           -4.468531459544     0.610200912768    -0.511613175945     1.007825032230
         H           -3.671162459544    -0.679498087232    -1.434754175945     1.007825032230
         H           -3.858759459544    -0.839566087232     0.314080824055     1.007825032230
         H           -3.088109459544     2.080645912768     1.076764824055     1.007825032230
         H           -2.423705459544     0.656938912768     1.897083824055     1.007825032230
         H           -1.330590459544     1.859129912768     1.180563824055     1.007825032230
         H            2.555747540456     1.964774912768     0.765813824055     1.007825032230
         H            1.613254540456     2.224638912768    -0.717162175945     1.007825032230
         H            3.383245540456     2.116259912768    -0.792498175945     1.007825032230
         H            3.777102540456    -0.316806087232     1.098030824055     1.007825032230
         H            4.541263540456    -0.141527087232    -0.495599175945     1.007825032230
         H            3.581768540456    -1.586363087232    -0.113861175945     1.007825032230

  Basis Set: AUG-CC-PVTZ
    Blend: AUG-CC-PVTZ
  Basis Set: (AUG-CC-PVTZ AUX)
    Blend: AUG-CC-PVTZ-JKFIT
	 Reference Energy          =    -535.8332054141693561 [Eh]
	 Singles Energy            =      -0.0000000000000000 [Eh]
	 Same-Spin Energy          =      -0.5447748256941790 [Eh]
	 Opposite-Spin Energy      =      -1.7658661607955894 [Eh]
	 Correlation Energy        =      -2.3106409864897683 [Eh]
	 Total Energy              =    -538.1438464006590721 [Eh]

	 ================> DF-SCS-MP2 Energies <==================
	-----------------------------------------------------------
	 SCS Same-Spin Scale       =       0.3333333333333333 [-]
	 SCS Opposite-Spin Scale   =       1.2000000000000000 [-]
	 SCS Same-Spin Energy      =      -0.1815916085647263 [Eh]
	 SCS Opposite-Spin Energy  =      -2.1190393929547073 [Eh]
	 SCS Correlation Energy    =      -2.3006310015194336 [Eh]
	 SCS Total Energy          =    -538.1338364156887337 [Eh]
	-----------------------------------------------------------

  Dipole Moment: [D]
     X:    -1.0075      Y:     4.6539      Z:    -1.5092     Total:     4.9952

*** Psi4 exiting successfully. Buy a developer a beer!
