                               Psi4 1.3.2 release

  ==> Input File <==

--------------------------------------------------------------------------
#psi4
#
memory 32 gb

molecule  {
0 1
  O        0.0168640     0.1901590    -0.4020990
  O       -1.3063300    -1.6835180    -0.2393630
  O        1.1131790    -1.1413980     1.1162780
  C       -2.3394790     0.5235580    -0.2686750
  C        2.3972750     0.1605680    -0.4950760
  C       -1.2283629    -0.6784594    -0.2782864
  C        1.1581700    -0.3826440     0.1751130
  C       -3.6769720    -0.1720140    -0.4890940
  C       -2.2983330     1.2966310     1.0564140
  C        2.4741530     1.6802570    -0.2975580
  C        3.6385590    -0.5497050     0.0312540
  H       -2.1437190     1.2306780    -1.0846340
  H        2.2784230    -0.0395630    -1.5677780
  H       -4.4834260     0.5663220    -0.5092150
  H       -3.6860570    -0.7233770    -1.4323560
  H       -3.8736540    -0.8834450     0.3164790
  H       -3.1030040     2.0367670     1.0791630
  H       -2.4386000     0.6130600     1.8994820
  H       -1.3454850     1.8152510     1.1829620
  H        2.5408530     1.9208960     0.7682120
  H        1.5983600     2.1807600    -0.7147640
  H        3.3683510     2.0723810    -0.7901000
  H        3.7622080    -0.3606850     1.1004290
  H        4.5263690    -0.1854060    -0.4932010
  H        3.5668740    -1.6302420    -0.1114630
units angstrom
no_reorient  #important for SAPT in psi4, default
symmetry c1  #important for SAPT in psi4, default
}

set PROPERTIES_ORIGIN ["COM"]
properties('MP2/aug-cc-pvtz', properties = ['dipole'])
--------------------------------------------------------------------------

    Molecular point group: c1
  Charge       = 0
  Multiplicity = 1
  Basis Set: AUG-CC-PVTZ
    Blend: AUG-CC-PVTZ
  Basis Set: (AUG-CC-PVTZ AUX)
    Blend: AUG-CC-PVTZ-JKFIT

    Orbital Energies [Eh]
    ---------------------

    Doubly Occupied:

       1A    -20.597717     2A    -20.587030     3A    -20.548688
       4A    -11.376766     5A    -11.374562     6A    -11.258918
       7A    -11.247759     8A    -11.227855     9A    -11.227499
      10A    -11.223438    11A    -11.216219    12A     -1.588474
      13A     -1.429127    14A     -1.341912    15A     -1.092518
      16A     -1.080902    17A     -0.943848    18A     -0.939362
      19A     -0.902870    20A     -0.843755    21A     -0.777282
      22A     -0.759873    23A     -0.727970    24A     -0.702798
      25A     -0.697676    26A     -0.664524    27A     -0.632841
      28A     -0.621686    29A     -0.605688    30A     -0.587654
      31A     -0.564655    32A     -0.559629    33A     -0.554104
      34A     -0.545329    35A     -0.542870    36A     -0.525315
      37A     -0.497098    38A     -0.493795    39A     -0.490462
      40A     -0.485394    41A     -0.471148    42A     -0.452590
      43A     -0.405461

  @DF-RHF Final Energy:  -535.83242957333152

   => Energetics <=

    Nuclear Repulsion Energy =            649.3293334281877378
    One-Electron Energy =               -2019.4934080369555431
    Two-Electron Energy =                 834.3316450354362814
    Total Energy =                       -535.8324295733315239
  Basis Set: (AUG-CC-PVTZ AUX)
    Blend: AUG-CC-PVTZ-RI
    Molecular point group: c1

    Geometry (in Angstrom), charge = 0, multiplicity = 1:

       Center              X                  Y                   Z               Mass
    ------------   -----------------  -----------------  -----------------  -----------------
         O            0.021593080615     0.259254579931    -0.404908492497    15.994914619570
         O           -1.301600919385    -1.614422420069    -0.242172492497    15.994914619570
         O            1.117908080615    -1.072302420069     1.113468507503    15.994914619570
         C           -2.334749919385     0.592653579931    -0.271484492497    12.000000000000
         C            2.402004080615     0.229663579931    -0.497885492497    12.000000000000
         C           -1.223633819385    -0.609363820069    -0.281095892497    12.000000000000
         C            1.162899080615    -0.313548420069     0.172303507503    12.000000000000
         C           -3.672242919385    -0.102918420069    -0.491903492497    12.000000000000
         C           -2.293603919385     1.365726579931     1.053604507503    12.000000000000
         C            2.478882080615     1.749352579931    -0.300367492497    12.000000000000
         C            3.643288080615    -0.480609420069     0.028444507503    12.000000000000
         H           -2.138989919385     1.299773579931    -1.087443492497     1.007825032230
         H            2.283152080615     0.029532579931    -1.570587492497     1.007825032230
         H           -4.478696919385     0.635417579931    -0.512024492497     1.007825032230
         H           -3.681327919385    -0.654281420069    -1.435165492497     1.007825032230
         H           -3.868924919385    -0.814349420069     0.313669507503     1.007825032230
         H           -3.098274919385     2.105862579931     1.076353507503     1.007825032230
         H           -2.433870919385     0.682155579931     1.896672507503     1.007825032230
         H           -1.340755919385     1.884346579931     1.180152507503     1.007825032230
         H            2.545582080615     1.989991579931     0.765402507503     1.007825032230
         H            1.603089080615     2.249855579931    -0.717573492497     1.007825032230
         H            3.373080080615     2.141476579931    -0.792909492497     1.007825032230
         H            3.766937080615    -0.291589420069     1.097619507503     1.007825032230
         H            4.531098080615    -0.116310420069    -0.496010492497     1.007825032230
         H            3.571603080615    -1.561146420069    -0.114272492497     1.007825032230

  Basis Set: AUG-CC-PVTZ
    Blend: AUG-CC-PVTZ
  Basis Set: (AUG-CC-PVTZ AUX)
    Blend: AUG-CC-PVTZ-JKFIT
	 Reference Energy          =    -535.8324295733315239 [Eh]
	 Singles Energy            =      -0.0000000000000000 [Eh]
	 Same-Spin Energy          =      -0.5338831090507568 [Eh]
	 Opposite-Spin Energy      =      -1.7451538588424227 [Eh]
	 Correlation Energy        =      -2.2790369678931794 [Eh]
	 Total Energy              =    -538.1114665412246723 [Eh]

	 ================> DF-SCS-MP2 Energies <==================
	-----------------------------------------------------------
	 SCS Same-Spin Scale       =       0.3333333333333333 [-]
	 SCS Opposite-Spin Scale   =       1.2000000000000000 [-]
	 SCS Same-Spin Energy      =      -0.1779610363502522 [Eh]
	 SCS Opposite-Spin Energy  =      -2.0941846306109073 [Eh]
	 SCS Correlation Energy    =      -2.2721456669611597 [Eh]
	 SCS Total Energy          =    -538.1045752402926610 [Eh]
	-----------------------------------------------------------

  Dipole Moment: [D]
     X:    -0.7048      Y:     2.1312      Z:    -1.5513     Total:     2.7286

*** Psi4 exiting successfully. Buy a developer a beer!
