                               Psi4 1.3.2 release

  ==> Input File <==

--------------------------------------------------------------------------
#psi4
#
memory 32 gb

molecule  {
0 1
  O        0.0049688     0.2116000    -0.4018913
  O       -1.3063300    -1.6835180    -0.2393630
  O        1.1131790    -1.1413980     1.1162780
  C       -2.3394790     0.5235580    -0.2686750
  C        2.3972750     0.1605680    -0.4950760
  C       -1.2129060    -0.4792070    -0.2860030
  C        1.1581700    -0.3826440     0.1751130
  C       -3.6769720    -0.1720140    -0.4890940
  C       -2.2983330     1.2966310     1.0564140
  C        2.4741530     1.6802570    -0.2975580
  C        3.6385590    -0.5497050     0.0312540
  H       -2.1437190     1.2306780    -1.0846340
  H        2.2784230    -0.0395630    -1.5677780
  H       -4.4834260     0.5663220    -0.5092150
  H       -3.6860570    -0.7233770    -1.4323560
  H       -3.8736540    -0.8834450     0.3164790
  H       -3.1030040     2.0367670     1.0791630
  H       -2.4386000     0.6130600     1.8994820
  H       -1.3454850     1.8152510     1.1829620
  H        2.5408530     1.9208960     0.7682120
  H        1.5983600     2.1807600    -0.7147640
  H        3.3683510     2.0723810    -0.7901000
  H        3.7622080    -0.3606850     1.1004290
  H        4.5263690    -0.1854060    -0.4932010
  H        3.5668740    -1.6302420    -0.1114630
units angstrom
no_reorient  #important for SAPT in psi4, default
symmetry c1  #important for SAPT in psi4, default
}

set PROPERTIES_ORIGIN ["COM"]
properties('MP2/aug-cc-pvtz', properties = ['dipole'])
--------------------------------------------------------------------------

    Molecular point group: c1
  Charge       = 0
  Multiplicity = 1
  Basis Set: AUG-CC-PVTZ
    Blend: AUG-CC-PVTZ
  Basis Set: (AUG-CC-PVTZ AUX)
    Blend: AUG-CC-PVTZ-JKFIT

    Orbital Energies [Eh]
    ---------------------

    Doubly Occupied:

       1A    -20.623564     2A    -20.564520     3A    -20.561285
       4A    -11.397087     5A    -11.393105     6A    -11.260373
       7A    -11.257050     8A    -11.236485     9A    -11.233613
      10A    -11.224395    11A    -11.222936    12A     -1.477423
      13A     -1.402546    14A     -1.360522    15A     -1.108004
      16A     -1.094534    17A     -0.951369    18A     -0.946133
      19A     -0.933875    20A     -0.863266    21A     -0.788415
      22A     -0.736174    23A     -0.705056    24A     -0.701664
      25A     -0.674146    26A     -0.645618    27A     -0.629564
      28A     -0.615842    29A     -0.606272    30A     -0.576447
      31A     -0.566727    32A     -0.554219    33A     -0.551419
      34A     -0.536636    35A     -0.533319    36A     -0.528540
      37A     -0.502829    38A     -0.498263    39A     -0.494767
      40A     -0.491196    41A     -0.478271    42A     -0.468516
      43A     -0.432424

  @DF-RHF Final Energy:  -535.91035308931816

   => Energetics <=

    Nuclear Repulsion Energy =            648.1812660150961847
    One-Electron Energy =               -2017.3264245578452574
    Two-Electron Energy =                 833.2348054534307948
    Total Energy =                       -535.9103530893181642
  Basis Set: (AUG-CC-PVTZ AUX)
    Blend: AUG-CC-PVTZ-RI
    Molecular point group: c1

    Geometry (in Angstrom), charge = 0, multiplicity = 1:

       Center              X                  Y                   Z               Mass
    ------------   -----------------  -----------------  -----------------  -----------------
         O            0.009728115156     0.263402256499    -0.404136084855    15.994914619570
         O           -1.301570684844    -1.631715743501    -0.241607784855    15.994914619570
         O            1.117938315156    -1.089595743501     1.114033215145    15.994914619570
         C           -2.334719684844     0.575360256499    -0.270919784855    12.000000000000
         C            2.402034315156     0.212370256499    -0.497320784855    12.000000000000
         C           -1.208146684844    -0.427404743501    -0.288247784855    12.000000000000
         C            1.162929315156    -0.330841743501     0.172868215145    12.000000000000
         C           -3.672212684844    -0.120211743501    -0.491338784855    12.000000000000
         C           -2.293573684844     1.348433256499     1.054169215145    12.000000000000
         C            2.478912315156     1.732059256499    -0.299802784855    12.000000000000
         C            3.643318315156    -0.497902743501     0.029009215145    12.000000000000
         H           -2.138959684844     1.282480256499    -1.086878784855     1.007825032230
         H            2.283182315156     0.012239256499    -1.570022784855     1.007825032230
         H           -4.478666684844     0.618124256499    -0.511459784855     1.007825032230
         H           -3.681297684844    -0.671574743501    -1.434600784855     1.007825032230
         H           -3.868894684844    -0.831642743501     0.314234215145     1.007825032230
         H           -3.098244684844     2.088569256499     1.076918215145     1.007825032230
         H           -2.433840684844     0.664862256499     1.897237215145     1.007825032230
         H           -1.340725684844     1.867053256499     1.180717215145     1.007825032230
         H            2.545612315156     1.972698256499     0.765967215145     1.007825032230
         H            1.603119315156     2.232562256499    -0.717008784855     1.007825032230
         H            3.373110315156     2.124183256499    -0.792344784855     1.007825032230
         H            3.766967315156    -0.308882743501     1.098184215145     1.007825032230
         H            4.531128315156    -0.133603743501    -0.495445784855     1.007825032230
         H            3.571633315156    -1.578439743501    -0.113707784855     1.007825032230

  Basis Set: AUG-CC-PVTZ
    Blend: AUG-CC-PVTZ
  Basis Set: (AUG-CC-PVTZ AUX)
    Blend: AUG-CC-PVTZ-JKFIT
	 Reference Energy          =    -535.9103530893181642 [Eh]
	 Singles Energy            =      -0.0000000000000000 [Eh]
	 Same-Spin Energy          =      -0.5377674454378532 [Eh]
	 Opposite-Spin Energy      =      -1.7533322752669713 [Eh]
	 Correlation Energy        =      -2.2910997207048247 [Eh]
	 Total Energy              =    -538.2014528100229427 [Eh]

	 ================> DF-SCS-MP2 Energies <==================
	-----------------------------------------------------------
	 SCS Same-Spin Scale       =       0.3333333333333333 [-]
	 SCS Opposite-Spin Scale   =       1.2000000000000000 [-]
	 SCS Same-Spin Energy      =      -0.1792558151459510 [Eh]
	 SCS Opposite-Spin Energy  =      -2.1039987303203653 [Eh]
	 SCS Correlation Energy    =      -2.2832545454663165 [Eh]
	 SCS Total Energy          =    -538.1936076347844846 [Eh]
	-----------------------------------------------------------

  Dipole Moment: [D]
     X:     0.3434      Y:     3.3504      Z:    -1.3885     Total:     3.6429

*** Psi4 exiting successfully. Buy a developer a beer!
