                               Psi4 1.3.2 release

  ==> Input File <==

--------------------------------------------------------------------------
#psi4
#
memory 32 gb

molecule  {
0 1
  O        0.0168640     0.1901590    -0.4020990
  O       -1.3063300    -1.6835180    -0.2393630
  O        1.1131790    -1.1413980     1.1162780
  C       -2.3394790     0.5235580    -0.2686750
  C        2.3972750     0.1605680    -0.4950760
  C       -1.2848602    -0.5542306    -0.3026658
  C        1.1581700    -0.3826440     0.1751130
  C       -3.6769720    -0.1720140    -0.4890940
  C       -2.2983330     1.2966310     1.0564140
  C        2.4741530     1.6802570    -0.2975580
  C        3.6385590    -0.5497050     0.0312540
  H       -2.1437190     1.2306780    -1.0846340
  H        2.2784230    -0.0395630    -1.5677780
  H       -4.4834260     0.5663220    -0.5092150
  H       -3.6860570    -0.7233770    -1.4323560
  H       -3.8736540    -0.8834450     0.3164790
  H       -3.1030040     2.0367670     1.0791630
  H       -2.4386000     0.6130600     1.8994820
  H       -1.3454850     1.8152510     1.1829620
  H        2.5408530     1.9208960     0.7682120
  H        1.5983600     2.1807600    -0.7147640
  H        3.3683510     2.0723810    -0.7901000
  H        3.7622080    -0.3606850     1.1004290
  H        4.5263690    -0.1854060    -0.4932010
  H        3.5668740    -1.6302420    -0.1114630
units angstrom
no_reorient  #important for SAPT in psi4, default
symmetry c1  #important for SAPT in psi4, default
}

set PROPERTIES_ORIGIN ["COM"]
properties('MP2/aug-cc-pvtz', properties = ['dipole'])
--------------------------------------------------------------------------

    Molecular point group: c1
  Charge       = 0
  Multiplicity = 1
  Basis Set: AUG-CC-PVTZ
    Blend: AUG-CC-PVTZ
  Basis Set: (AUG-CC-PVTZ AUX)
    Blend: AUG-CC-PVTZ-JKFIT

    Orbital Energies [Eh]
    ---------------------

    Doubly Occupied:

       1A    -20.596086     2A    -20.582695     3A    -20.548827
       4A    -11.392330     5A    -11.380565     6A    -11.263944
       7A    -11.250420     8A    -11.236657     9A    -11.229223
      10A    -11.228480    11A    -11.217486    12A     -1.491192
      13A     -1.422900    14A     -1.344182    15A     -1.108304
      16A     -1.089919    17A     -0.951144    18A     -0.941361
      19A     -0.919902    20A     -0.860164    21A     -0.775906
      22A     -0.739844    23A     -0.706728    24A     -0.694157
      25A     -0.679498    26A     -0.643986    27A     -0.633872
      28A     -0.613769    29A     -0.607085    30A     -0.575424
      31A     -0.565622    32A     -0.556222    33A     -0.551400
      34A     -0.543835    35A     -0.541451    36A     -0.526729
      37A     -0.504352    38A     -0.499103    39A     -0.493414
      40A     -0.486727    41A     -0.471081    42A     -0.463831
      43A     -0.425826

  @DF-RHF Final Energy:  -535.90383562423312

   => Energetics <=

    Nuclear Repulsion Energy =            648.1222207591368942
    One-Electron Energy =               -2017.3408257714977481
    Two-Electron Energy =                 833.3147693881278428
    Total Energy =                       -535.9038356242331247
  Basis Set: (AUG-CC-PVTZ AUX)
    Blend: AUG-CC-PVTZ-RI
    Molecular point group: c1

    Geometry (in Angstrom), charge = 0, multiplicity = 1:

       Center              X                  Y                   Z               Mass
    ------------   -----------------  -----------------  -----------------  -----------------
         O            0.025881455492     0.249825108700    -0.403057996872    15.994914619570
         O           -1.297312544508    -1.623851891300    -0.240321996872    15.994914619570
         O            1.122196455492    -1.081731891300     1.115319003128    15.994914619570
         C           -2.330461544508     0.583224108700    -0.269633996872    12.000000000000
         C            2.406292455492     0.220234108700    -0.496034996872    12.000000000000
         C           -1.275842744508    -0.494564491300    -0.303624796872    12.000000000000
         C            1.167187455492    -0.322977891300     0.174154003128    12.000000000000
         C           -3.667954544508    -0.112347891300    -0.490052996872    12.000000000000
         C           -2.289315544508     1.356297108700     1.055455003128    12.000000000000
         C            2.483170455492     1.739923108700    -0.298516996872    12.000000000000
         C            3.647576455492    -0.490038891300     0.030295003128    12.000000000000
         H           -2.134701544508     1.290344108700    -1.085592996872     1.007825032230
         H            2.287440455492     0.020103108700    -1.568736996872     1.007825032230
         H           -4.474408544508     0.625988108700    -0.510173996872     1.007825032230
         H           -3.677039544508    -0.663710891300    -1.433314996872     1.007825032230
         H           -3.864636544508    -0.823778891300     0.315520003128     1.007825032230
         H           -3.093986544508     2.096433108700     1.078204003128     1.007825032230
         H           -2.429582544508     0.672726108700     1.898523003128     1.007825032230
         H           -1.336467544508     1.874917108700     1.182003003128     1.007825032230
         H            2.549870455492     1.980562108700     0.767253003128     1.007825032230
         H            1.607377455492     2.240426108700    -0.715722996872     1.007825032230
         H            3.377368455492     2.132047108700    -0.791058996872     1.007825032230
         H            3.771225455492    -0.301018891300     1.099470003128     1.007825032230
         H            4.535386455492    -0.125739891300    -0.494159996872     1.007825032230
         H            3.575891455492    -1.570575891300    -0.112421996872     1.007825032230

  Basis Set: AUG-CC-PVTZ
    Blend: AUG-CC-PVTZ
  Basis Set: (AUG-CC-PVTZ AUX)
    Blend: AUG-CC-PVTZ-JKFIT
	 Reference Energy          =    -535.9038356242331247 [Eh]
	 Singles Energy            =      -0.0000000000000000 [Eh]
	 Same-Spin Energy          =      -0.5366522087200143 [Eh]
	 Opposite-Spin Energy      =      -1.7505760580897549 [Eh]
	 Correlation Energy        =      -2.2872282668097692 [Eh]
	 Total Energy              =    -538.1910638910428588 [Eh]

	 ================> DF-SCS-MP2 Energies <==================
	-----------------------------------------------------------
	 SCS Same-Spin Scale       =       0.3333333333333333 [-]
	 SCS Opposite-Spin Scale   =       1.2000000000000000 [-]
	 SCS Same-Spin Energy      =      -0.1788840695733381 [Eh]
	 SCS Opposite-Spin Energy  =      -2.1006912697077058 [Eh]
	 SCS Correlation Energy    =      -2.2795753392810441 [Eh]
	 SCS Total Energy          =    -538.1834109635141203 [Eh]
	-----------------------------------------------------------

  Dipole Moment: [D]
     X:    -0.8107      Y:     2.9374      Z:    -1.4937     Total:     3.3936

*** Psi4 exiting successfully. Buy a developer a beer!
