                               Psi4 1.4a3.dev225

  ==> Input File <==

--------------------------------------------------------------------------
#psi4
#
memory 32 gb

molecule  {
0 1
  O        0.0168770     0.1900940    -0.4022940
  O       -1.3063670    -1.6835610    -0.2394920
  O        1.1130200    -1.1412560     1.1163620
  C       -2.3394820     0.5235460    -0.2686790
  C        2.3972900     0.1604980    -0.4950420
  C       -1.1756007    -0.5124986    -0.2866816
  C        1.1580970    -0.3826160     0.1751030
  C       -3.6770470    -0.1720400    -0.4887310
  C       -2.2980570     1.2968550     1.0562380
  C        2.4742070     1.6801910    -0.2976680
  C        3.6385230    -0.5497820     0.0314390
  H       -2.1438530     1.2305020    -1.0848160
  H        2.2785110    -0.0397390    -1.5677300
  H       -4.4835100     0.5662920    -0.5086310
  H       -3.6863850    -0.7233940    -1.4319940
  H       -3.8734940    -0.8834740     0.3168940
  H       -3.1026030     2.0371270     1.0789400
  H       -2.4383350     0.6134670     1.8994540
  H       -1.3451120     1.8153510     1.1825900
  H        2.5409520     1.9209190     0.7680790
  H        1.5984060     2.1806800    -0.7148800
  H        3.3683910     2.0722630    -0.7902800
  H        3.7619980    -0.3608140     1.1006380
  H        4.5264120    -0.1854560    -0.4928670
  H        3.5668710    -1.6303120    -0.1113440
units angstrom
no_reorient  #important for SAPT in psi4, default
symmetry c1  #important for SAPT in psi4, default
}

set PROPERTIES_ORIGIN ["COM"]
properties('MP2/aug-cc-pvtz', properties = ['dipole'])
--------------------------------------------------------------------------

    Molecular point group: c1
  Charge       = 0
  Multiplicity = 1
  Basis Set: AUG-CC-PVTZ
    Blend: AUG-CC-PVTZ
  Basis Set: (AUG-CC-PVTZ AUX)
    Blend: AUG-CC-PVTZ-JKFIT

    Orbital Energies [Eh]
    ---------------------

    Doubly Occupied:

       1A    -20.627198     2A    -20.563912     3A    -20.563049
       4A    -11.396538     5A    -11.389683     6A    -11.260350
       7A    -11.256003     8A    -11.237036     9A    -11.230669
      10A    -11.224570    11A    -11.220893    12A     -1.490911
      13A     -1.414693    14A     -1.370726    15A     -1.106112
      16A     -1.088193    17A     -0.952268    18A     -0.944456
      19A     -0.935282    20A     -0.857320    21A     -0.791542
      22A     -0.739182    23A     -0.708719    24A     -0.702474
      25A     -0.680919    26A     -0.647494    27A     -0.629996
      28A     -0.617139    29A     -0.607248    30A     -0.577786
      31A     -0.566486    32A     -0.554679    33A     -0.550453
      34A     -0.537931    35A     -0.534738    36A     -0.531586
      37A     -0.503146    38A     -0.496737    39A     -0.495037
      40A     -0.490328    41A     -0.483123    42A     -0.468383
      43A     -0.427253

  @DF-RHF Final Energy:  -535.91298548225404

   => Energetics <=

    Nuclear Repulsion Energy =            648.8528308607725421
    One-Electron Energy =               -2018.5871584336316573
    Two-Electron Energy =                 833.8213420906049578
    Total Energy =                       -535.9129854822540437
  Basis Set: (AUG-CC-PVTZ AUX)
    Blend: AUG-CC-PVTZ-RI
    Molecular point group: c1

    Geometry (in Angstrom), charge = 0, multiplicity = 1:

       Center              X                  Y                   Z               Mass
    ------------   -----------------  -----------------  -----------------  -----------------
         O            0.017602917508     0.246588868734    -0.404468721771    15.994914619570
         O           -1.305641082492    -1.627066131266    -0.241666721771    15.994914619570
         O            1.113745917508    -1.084761131266     1.114187278229    15.994914619570
         C           -2.338756082492     0.580040868734    -0.270853721771    12.000000000000
         C            2.398015917508     0.216992868734    -0.497216721771    12.000000000000
         C           -1.174874782492    -0.456003731266    -0.288856321771    12.000000000000
         C            1.158822917508    -0.326121131266     0.172928278229    12.000000000000
         C           -3.676321082492    -0.115545131266    -0.490905721771    12.000000000000
         C           -2.297331082492     1.353349868734     1.054063278229    12.000000000000
         C            2.474932917508     1.736685868734    -0.299842721771    12.000000000000
         C            3.639248917508    -0.493287131266     0.029264278229    12.000000000000
         H           -2.143127082492     1.286996868734    -1.086990721771     1.007825032230
         H            2.279236917508     0.016755868734    -1.569904721771     1.007825032230
         H           -4.482784082492     0.622786868734    -0.510805721771     1.007825032230
         H           -3.685659082492    -0.666899131266    -1.434168721771     1.007825032230
         H           -3.872768082492    -0.826979131266     0.314719278229     1.007825032230
         H           -3.101877082492     2.093621868734     1.076765278229     1.007825032230
         H           -2.437609082492     0.669961868734     1.897279278229     1.007825032230
         H           -1.344386082492     1.871845868734     1.180415278229     1.007825032230
         H            2.541677917508     1.977413868734     0.765904278229     1.007825032230
         H            1.599131917508     2.237174868734    -0.717054721771     1.007825032230
         H            3.369116917508     2.128757868734    -0.792454721771     1.007825032230
         H            3.762723917508    -0.304319131266     1.098463278229     1.007825032230
         H            4.527137917508    -0.128961131266    -0.495041721771     1.007825032230
         H            3.567596917508    -1.573817131266    -0.113518721771     1.007825032230

  Basis Set: AUG-CC-PVTZ
    Blend: AUG-CC-PVTZ
  Basis Set: (AUG-CC-PVTZ AUX)
    Blend: AUG-CC-PVTZ-JKFIT
	 Reference Energy          =    -535.9129854822540437 [Eh]
	 Singles Energy            =      -0.0000000000000000 [Eh]
	 Same-Spin Energy          =      -0.5363580865162805 [Eh]
	 Opposite-Spin Energy      =      -1.7504608205226408 [Eh]
	 Correlation Energy        =      -2.2868189070389215 [Eh]
	 Total Energy              =    -538.1998043892929218 [Eh]

	 ================> DF-SCS-MP2 Energies <==================
	-----------------------------------------------------------
	 SCS Same-Spin Scale       =       0.3333333333333333 [-]
	 SCS Opposite-Spin Scale   =       1.2000000000000000 [-]
	 SCS Same-Spin Energy      =      -0.1787860288387602 [Eh]
	 SCS Opposite-Spin Energy  =      -2.1005529846271691 [Eh]
	 SCS Correlation Energy    =      -2.2793390134659290 [Eh]
	 SCS Total Energy          =    -538.1923244957199586 [Eh]
	-----------------------------------------------------------

  Dipole Moment: [D]
     X:     0.4825      Y:     3.2221      Z:    -1.4403     Total:     3.5622

*** Psi4 exiting successfully. Buy a developer a beer!
