                               Psi4 1.3.2 release

  ==> Input File <==

--------------------------------------------------------------------------
#psi4
#
memory 32 gb

molecule  {
0 1
  O        1.7572910     0.3059760     0.0000180
  C       -0.4850880     0.9739040    -0.0000120
  C        0.4405670    -0.0879150     0.0000040
  C       -1.8443600     0.6614770    -0.0000180
  C        0.0124244    -1.4183167     0.0500060
  C        0.0151430     2.3911510    -0.0000080
  C       -2.2900340    -0.6642210    -0.0000140
  C       -1.3585410    -1.6984920    -0.0000020
  C        2.7379480    -0.7266300     0.0000180
  H       -2.5677820     1.4752540    -0.0000300
  H        0.7228010    -2.2381660     0.0000160
  H       -0.8234040     3.0925880    -0.0001030
  H        0.6363730     2.5877470     0.8789620
  H        0.6365320     2.5876940    -0.8788760
  H       -3.3546920    -0.8829470    -0.0000210
  H       -1.6887710    -2.7346470     0.0000000
  H        2.6565620    -1.3539010    -0.8944310
  H        2.6565580    -1.3539040     0.8944650
  H        3.6991380    -0.2132700     0.0000220
units angstrom
no_reorient  #important for SAPT in psi4, default
symmetry c1  #important for SAPT in psi4, default
}

set PROPERTIES_ORIGIN ["COM"]
properties('MP2/aug-cc-pvtz', properties = ['dipole'])
--------------------------------------------------------------------------

    Molecular point group: c1
  Charge       = 0
  Multiplicity = 1
  Basis Set: AUG-CC-PVTZ
    Blend: AUG-CC-PVTZ
  Basis Set: (AUG-CC-PVTZ AUX)
    Blend: AUG-CC-PVTZ-JKFIT

    Orbital Energies [Eh]
    ---------------------

    Doubly Occupied:

       1A    -20.584060     2A    -11.295321     3A    -11.284255
       4A    -11.234952     5A    -11.233939     6A    -11.231932
       7A    -11.230548     8A    -11.224463     9A    -11.216061
      10A     -1.403999    11A     -1.145303    12A     -1.044632
      13A     -1.009124    14A     -0.948396    15A     -0.921007
      16A     -0.812566    17A     -0.796773    18A     -0.708903
      19A     -0.666864    20A     -0.653502    21A     -0.646025
      22A     -0.613292    23A     -0.581089    24A     -0.568431
      25A     -0.563216    26A     -0.538857    27A     -0.521966
      28A     -0.508918    29A     -0.496474    30A     -0.475199
      31A     -0.464208    32A     -0.331163    33A     -0.305198

  @DF-RHF Final Energy:  -383.75229953677911

   => Energetics <=

    Nuclear Repulsion Energy =            430.0746761134540748
    One-Electron Energy =               -1373.1326803727870356
    Two-Electron Energy =                 559.3057047225538554
    Total Energy =                       -383.7522995367791054
  Basis Set: (AUG-CC-PVTZ AUX)
    Blend: AUG-CC-PVTZ-RI
    Molecular point group: c1

    Geometry (in Angstrom), charge = 0, multiplicity = 1:

       Center              X                  Y                   Z               Mass
    ------------   -----------------  -----------------  -----------------  -----------------
         O            1.778279367277     0.313843756342    -0.004896920819    15.994914619570
         C           -0.464099632723     0.981771756342    -0.004926920819    12.000000000000
         C            0.461555367277    -0.080047243658    -0.004910920819    12.000000000000
         C           -1.823371632723     0.669344756342    -0.004932920819    12.000000000000
         C            0.033412767277    -1.410448943658     0.045091079181    12.000000000000
         C            0.036131367277     2.399018756342    -0.004922920819    12.000000000000
         C           -2.269045632723    -0.656353243658    -0.004928920819    12.000000000000
         C           -1.337552632723    -1.690624243658    -0.004916920819    12.000000000000
         C            2.758936367277    -0.718762243658    -0.004896920819    12.000000000000
         H           -2.546793632723     1.483121756342    -0.004944920819     1.007825032230
         H            0.743789367277    -2.230298243658    -0.004898920819     1.007825032230
         H           -0.802415632723     3.100455756342    -0.005017920819     1.007825032230
         H            0.657361367277     2.595614756342     0.874047079181     1.007825032230
         H            0.657520367277     2.595561756342    -0.883790920819     1.007825032230
         H           -3.333703632723    -0.875079243658    -0.004935920819     1.007825032230
         H           -1.667782632723    -2.726779243658    -0.004914920819     1.007825032230
         H            2.677550367277    -1.346033243658    -0.899345920819     1.007825032230
         H            2.677546367277    -1.346036243658     0.889550079181     1.007825032230
         H            3.720126367277    -0.205402243658    -0.004892920819     1.007825032230

  Basis Set: AUG-CC-PVTZ
    Blend: AUG-CC-PVTZ
  Basis Set: (AUG-CC-PVTZ AUX)
    Blend: AUG-CC-PVTZ-JKFIT
	 Reference Energy          =    -383.7522995367791054 [Eh]
	 Singles Energy            =      -0.0000000000000000 [Eh]
	 Same-Spin Energy          =      -0.4109046613881590 [Eh]
	 Opposite-Spin Energy      =      -1.3182431042645320 [Eh]
	 Correlation Energy        =      -1.7291477656526908 [Eh]
	 Total Energy              =    -385.4814473024317749 [Eh]

	 ================> DF-SCS-MP2 Energies <==================
	-----------------------------------------------------------
	 SCS Same-Spin Scale       =       0.3333333333333333 [-]
	 SCS Opposite-Spin Scale   =       1.2000000000000000 [-]
	 SCS Same-Spin Energy      =      -0.1369682204627196 [Eh]
	 SCS Opposite-Spin Energy  =      -1.5818917251174383 [Eh]
	 SCS Correlation Energy    =      -1.7188599455801579 [Eh]
	 SCS Total Energy          =    -385.4711594823592691 [Eh]
	-----------------------------------------------------------

  Dipole Moment: [D]
     X:     0.9789      Y:    -0.7313      Z:    -0.0377     Total:     1.2225

*** Psi4 exiting successfully. Buy a developer a beer!
