                               Psi4 1.3.2 release

  ==> Input File <==

--------------------------------------------------------------------------
#psi4
#
memory 32 gb

molecule  {
0 1
  O        1.7572910     0.3059760     0.0000180
  C       -0.4850880     0.9739040    -0.0000120
  C        0.4405670    -0.0879150     0.0000040
  C       -1.8443600     0.6614770    -0.0000180
  C        0.0124250    -1.4183170     0.0000060
  C        0.0151447     2.3911503    -0.2000080
  C       -2.2900340    -0.6642210    -0.0000140
  C       -1.3585410    -1.6984920    -0.0000020
  C        2.7379480    -0.7266300     0.0000180
  H       -2.5677820     1.4752540    -0.0000300
  H        0.7228010    -2.2381660     0.0000160
  H       -0.8234040     3.0925880    -0.0001030
  H        0.6363730     2.5877470     0.8789620
  H        0.6365320     2.5876940    -0.8788760
  H       -3.3546920    -0.8829470    -0.0000210
  H       -1.6887710    -2.7346470     0.0000000
  H        2.6565620    -1.3539010    -0.8944310
  H        2.6565580    -1.3539040     0.8944650
  H        3.6991380    -0.2132700     0.0000220
units angstrom
no_reorient  #important for SAPT in psi4, default
symmetry c1  #important for SAPT in psi4, default
}

set PROPERTIES_ORIGIN ["COM"]
properties('MP2/aug-cc-pvtz', properties = ['dipole'])
--------------------------------------------------------------------------

    Molecular point group: c1
  Charge       = 0
  Multiplicity = 1
  Basis Set: AUG-CC-PVTZ
    Blend: AUG-CC-PVTZ
  Basis Set: (AUG-CC-PVTZ AUX)
    Blend: AUG-CC-PVTZ-JKFIT

    Orbital Energies [Eh]
    ---------------------

    Doubly Occupied:

       1A    -20.584191     2A    -11.295598     3A    -11.284336
       4A    -11.237164     5A    -11.235245     6A    -11.232747
       7A    -11.230832     8A    -11.225130     9A    -11.222073
      10A     -1.404119    11A     -1.145862    12A     -1.044898
      13A     -1.009704    14A     -0.949729    15A     -0.924583
      16A     -0.813366    17A     -0.799881    18A     -0.710910
      19A     -0.668988    20A     -0.653897    21A     -0.649618
      22A     -0.614001    23A     -0.607261    24A     -0.573240
      25A     -0.557112    26A     -0.529608    27A     -0.522355
      28A     -0.509154    29A     -0.481535    30A     -0.473184
      31A     -0.458005    32A     -0.330251    33A     -0.304344

  @DF-RHF Final Energy:  -383.71144367414962

   => Energetics <=

    Nuclear Repulsion Energy =            429.9328121053452492
    One-Electron Energy =               -1372.7226680805549677
    Two-Electron Energy =                 559.0784123010602116
    Total Energy =                       -383.7114436741495638
  Basis Set: (AUG-CC-PVTZ AUX)
    Blend: AUG-CC-PVTZ-RI
    Molecular point group: c1

    Geometry (in Angstrom), charge = 0, multiplicity = 1:

       Center              X                  Y                   Z               Mass
    ------------   -----------------  -----------------  -----------------  -----------------
         O            1.778279141183     0.313843854643     0.019678504922    15.994914619570
         C           -0.464099858817     0.981771854643     0.019648504922    12.000000000000
         C            0.461555141183    -0.080047145357     0.019664504922    12.000000000000
         C           -1.823371858817     0.669344854643     0.019642504922    12.000000000000
         C            0.033413141183    -1.410449145357     0.019666504922    12.000000000000
         C            0.036132841183     2.399018154643    -0.180347495078    12.000000000000
         C           -2.269045858817    -0.656353145357     0.019646504922    12.000000000000
         C           -1.337552858817    -1.690624145357     0.019658504922    12.000000000000
         C            2.758936141183    -0.718762145357     0.019678504922    12.000000000000
         H           -2.546793858817     1.483121854643     0.019630504922     1.007825032230
         H            0.743789141183    -2.230298145357     0.019676504922     1.007825032230
         H           -0.802415858817     3.100455854643     0.019557504922     1.007825032230
         H            0.657361141183     2.595614854643     0.898622504922     1.007825032230
         H            0.657520141183     2.595561854643    -0.859215495078     1.007825032230
         H           -3.333703858817    -0.875079145357     0.019639504922     1.007825032230
         H           -1.667782858817    -2.726779145357     0.019660504922     1.007825032230
         H            2.677550141183    -1.346033145357    -0.874770495078     1.007825032230
         H            2.677546141183    -1.346036145357     0.914125504922     1.007825032230
         H            3.720126141183    -0.205402145357     0.019682504922     1.007825032230

  Basis Set: AUG-CC-PVTZ
    Blend: AUG-CC-PVTZ
  Basis Set: (AUG-CC-PVTZ AUX)
    Blend: AUG-CC-PVTZ-JKFIT
	 Reference Energy          =    -383.7114436741496206 [Eh]
	 Singles Energy            =      -0.0000000000000000 [Eh]
	 Same-Spin Energy          =      -0.4114243684978322 [Eh]
	 Opposite-Spin Energy      =      -1.3200015969754944 [Eh]
	 Correlation Energy        =      -1.7314259654733266 [Eh]
	 Total Energy              =    -385.4428696396229270 [Eh]

	 ================> DF-SCS-MP2 Energies <==================
	-----------------------------------------------------------
	 SCS Same-Spin Scale       =       0.3333333333333333 [-]
	 SCS Opposite-Spin Scale   =       1.2000000000000000 [-]
	 SCS Same-Spin Energy      =      -0.1371414561659441 [Eh]
	 SCS Opposite-Spin Energy  =      -1.5840019163705932 [Eh]
	 SCS Correlation Energy    =      -1.7211433725365373 [Eh]
	 SCS Total Energy          =    -385.4325870466861375 [Eh]
	-----------------------------------------------------------

  Dipole Moment: [D]
     X:     0.9479      Y:    -0.7826      Z:    -0.0882     Total:     1.2324

*** Psi4 exiting successfully. Buy a developer a beer!
