                               Psi4 1.3.2 release

  ==> Input File <==

--------------------------------------------------------------------------
#psi4
#
memory 32 gb

molecule  {
0 1
  O        1.7572910     0.3059760     0.0000180
  C       -0.4850880     0.9739040    -0.0000120
  C        0.4405670    -0.0879150     0.0000040
  C       -1.8443600     0.6614770    -0.0000180
  C        0.0124250    -1.4183170     0.0000060
  C        0.0151439     2.3911507    -0.1000080
  C       -2.2900340    -0.6642210    -0.0000140
  C       -1.3585410    -1.6984920    -0.0000020
  C        2.7379480    -0.7266300     0.0000180
  H       -2.5677820     1.4752540    -0.0000300
  H        0.7228010    -2.2381660     0.0000160
  H       -0.8234040     3.0925880    -0.0001030
  H        0.6363730     2.5877470     0.8789620
  H        0.6365320     2.5876940    -0.8788760
  H       -3.3546920    -0.8829470    -0.0000210
  H       -1.6887710    -2.7346470     0.0000000
  H        2.6565620    -1.3539010    -0.8944310
  H        2.6565580    -1.3539040     0.8944650
  H        3.6991380    -0.2132700     0.0000220
units angstrom
no_reorient  #important for SAPT in psi4, default
symmetry c1  #important for SAPT in psi4, default
}

set PROPERTIES_ORIGIN ["COM"]
properties('MP2/aug-cc-pvtz', properties = ['dipole'])
--------------------------------------------------------------------------

    Molecular point group: c1
  Charge       = 0
  Multiplicity = 1
  Basis Set: AUG-CC-PVTZ
    Blend: AUG-CC-PVTZ
  Basis Set: (AUG-CC-PVTZ AUX)
    Blend: AUG-CC-PVTZ-JKFIT

    Orbital Energies [Eh]
    ---------------------

    Doubly Occupied:

       1A    -20.584043     2A    -11.295226     3A    -11.284280
       4A    -11.234885     5A    -11.234734     6A    -11.232071
       7A    -11.230480     8A    -11.224642     9A    -11.217558
      10A     -1.403994    11A     -1.145492    12A     -1.044730
      13A     -1.009326    14A     -0.948702    15A     -0.921918
      16A     -0.812778    17A     -0.797650    18A     -0.709430
      19A     -0.667390    20A     -0.653563    21A     -0.646991
      22A     -0.613560    23A     -0.590491    24A     -0.572037
      25A     -0.559660    26A     -0.534262    27A     -0.522570
      28A     -0.508961    29A     -0.491106    30A     -0.474972
      31A     -0.463275    32A     -0.330915    33A     -0.305025

  @DF-RHF Final Energy:  -383.74274586738761

   => Energetics <=

    Nuclear Repulsion Energy =            430.0611186439188032
    One-Electron Energy =               -1373.0742935956495785
    Two-Electron Energy =                 559.2704290843431636
    Total Energy =                       -383.7427458673876117
  Basis Set: (AUG-CC-PVTZ AUX)
    Blend: AUG-CC-PVTZ-RI
    Molecular point group: c1

    Geometry (in Angstrom), charge = 0, multiplicity = 1:

       Center              X                  Y                   Z               Mass
    ------------   -----------------  -----------------  -----------------  -----------------
         O            1.778279219824     0.313843815323     0.009848334626    15.994914619570
         C           -0.464099780176     0.981771815323     0.009818334626    12.000000000000
         C            0.461555219824    -0.080047184677     0.009834334626    12.000000000000
         C           -1.823371780176     0.669344815323     0.009812334626    12.000000000000
         C            0.033413219824    -1.410449184677     0.009836334626    12.000000000000
         C            0.036132119824     2.399018515323    -0.090177665374    12.000000000000
         C           -2.269045780176    -0.656353184677     0.009816334626    12.000000000000
         C           -1.337552780176    -1.690624184677     0.009828334626    12.000000000000
         C            2.758936219824    -0.718762184677     0.009848334626    12.000000000000
         H           -2.546793780176     1.483121815323     0.009800334626     1.007825032230
         H            0.743789219824    -2.230298184677     0.009846334626     1.007825032230
         H           -0.802415780176     3.100455815323     0.009727334626     1.007825032230
         H            0.657361219824     2.595614815323     0.888792334626     1.007825032230
         H            0.657520219824     2.595561815323    -0.869045665374     1.007825032230
         H           -3.333703780176    -0.875079184677     0.009809334626     1.007825032230
         H           -1.667782780176    -2.726779184677     0.009830334626     1.007825032230
         H            2.677550219824    -1.346033184677    -0.884600665374     1.007825032230
         H            2.677546219824    -1.346036184677     0.904295334626     1.007825032230
         H            3.720126219824    -0.205402184677     0.009852334626     1.007825032230

  Basis Set: AUG-CC-PVTZ
    Blend: AUG-CC-PVTZ
  Basis Set: (AUG-CC-PVTZ AUX)
    Blend: AUG-CC-PVTZ-JKFIT
	 Reference Energy          =    -383.7427458673876117 [Eh]
	 Singles Energy            =      -0.0000000000000000 [Eh]
	 Same-Spin Energy          =      -0.4110040588095534 [Eh]
	 Opposite-Spin Energy      =      -1.3186271521005053 [Eh]
	 Correlation Energy        =      -1.7296312109100587 [Eh]
	 Total Energy              =    -385.4723770782976544 [Eh]

	 ================> DF-SCS-MP2 Energies <==================
	-----------------------------------------------------------
	 SCS Same-Spin Scale       =       0.3333333333333333 [-]
	 SCS Opposite-Spin Scale   =       1.2000000000000000 [-]
	 SCS Same-Spin Energy      =      -0.1370013529365178 [Eh]
	 SCS Opposite-Spin Energy  =      -1.5823525825206064 [Eh]
	 SCS Correlation Energy    =      -1.7193539354571241 [Eh]
	 SCS Total Energy          =    -385.4620998028447616 [Eh]
	-----------------------------------------------------------

  Dipole Moment: [D]
     X:     0.9725      Y:    -0.7484      Z:    -0.0474     Total:     1.2280

*** Psi4 exiting successfully. Buy a developer a beer!
