                               Psi4 1.3.2 release

  ==> Input File <==

--------------------------------------------------------------------------
#psi4
#
memory 32 gb

molecule  {
0 1
  O        1.7572910     0.3059760     0.0000180
  C       -0.4850880     0.9739040    -0.0000120
  C        0.4405670    -0.0879150     0.0000040
  C       -1.8443600     0.6614770    -0.0000180
  C        0.0124250    -1.4183170     0.0000060
  C        0.0151434     2.3911508    -0.0500080
  C       -2.2900340    -0.6642210    -0.0000140
  C       -1.3585410    -1.6984920    -0.0000020
  C        2.7379480    -0.7266300     0.0000180
  H       -2.5677820     1.4752540    -0.0000300
  H        0.7228010    -2.2381660     0.0000160
  H       -0.8234040     3.0925880    -0.0001030
  H        0.6363730     2.5877470     0.8789620
  H        0.6365320     2.5876940    -0.8788760
  H       -3.3546920    -0.8829470    -0.0000210
  H       -1.6887710    -2.7346470     0.0000000
  H        2.6565620    -1.3539010    -0.8944310
  H        2.6565580    -1.3539040     0.8944650
  H        3.6991380    -0.2132700     0.0000220
units angstrom
no_reorient  #important for SAPT in psi4, default
symmetry c1  #important for SAPT in psi4, default
}

set PROPERTIES_ORIGIN ["COM"]
properties('MP2/aug-cc-pvtz', properties = ['dipole'])
--------------------------------------------------------------------------

    Molecular point group: c1
  Charge       = 0
  Multiplicity = 1
  Basis Set: AUG-CC-PVTZ
    Blend: AUG-CC-PVTZ
  Basis Set: (AUG-CC-PVTZ AUX)
    Blend: AUG-CC-PVTZ-JKFIT

    Orbital Energies [Eh]
    ---------------------

    Doubly Occupied:

       1A    -20.584006     2A    -11.295131     3A    -11.284267
       4A    -11.234792     5A    -11.234131     6A    -11.231882
       7A    -11.230390     8A    -11.224518     9A    -11.216423
      10A     -1.403963    11A     -1.145396    12A     -1.044692
      13A     -1.009230    14A     -0.948483    15A     -0.921256
      16A     -0.812646    17A     -0.797087    18A     -0.709087
      19A     -0.667056    20A     -0.653508    21A     -0.646380
      22A     -0.613494    23A     -0.583601    24A     -0.570345
      25A     -0.561601    26A     -0.537429    27A     -0.522140
      28A     -0.508922    29A     -0.495069    30A     -0.475262
      31A     -0.464067    32A     -0.331087    33A     -0.305181

  @DF-RHF Final Energy:  -383.75046048589996

   => Energetics <=

    Nuclear Repulsion Energy =            430.0934532922785252
    One-Electron Energy =               -1373.1627842832260740
    Two-Electron Energy =                 559.3188705050474709
    Total Energy =                       -383.7504604859000210
  Basis Set: (AUG-CC-PVTZ AUX)
    Blend: AUG-CC-PVTZ-RI
    Molecular point group: c1

    Geometry (in Angstrom), charge = 0, multiplicity = 1:

       Center              X                  Y                   Z               Mass
    ------------   -----------------  -----------------  -----------------  -----------------
         O            1.778279268975     0.313843805492     0.004933249478    15.994914619570
         C           -0.464099731025     0.981771805492     0.004903249478    12.000000000000
         C            0.461555268975    -0.080047194508     0.004919249478    12.000000000000
         C           -1.823371731025     0.669344805492     0.004897249478    12.000000000000
         C            0.033413268975    -1.410449194508     0.004921249478    12.000000000000
         C            0.036131668975     2.399018605492    -0.045092750522    12.000000000000
         C           -2.269045731025    -0.656353194508     0.004901249478    12.000000000000
         C           -1.337552731025    -1.690624194508     0.004913249478    12.000000000000
         C            2.758936268975    -0.718762194508     0.004933249478    12.000000000000
         H           -2.546793731025     1.483121805492     0.004885249478     1.007825032230
         H            0.743789268975    -2.230298194508     0.004931249478     1.007825032230
         H           -0.802415731025     3.100455805492     0.004812249478     1.007825032230
         H            0.657361268975     2.595614805492     0.883877249478     1.007825032230
         H            0.657520268975     2.595561805492    -0.873960750522     1.007825032230
         H           -3.333703731025    -0.875079194508     0.004894249478     1.007825032230
         H           -1.667782731025    -2.726779194508     0.004915249478     1.007825032230
         H            2.677550268975    -1.346033194508    -0.889515750522     1.007825032230
         H            2.677546268975    -1.346036194508     0.899380249478     1.007825032230
         H            3.720126268975    -0.205402194508     0.004937249478     1.007825032230

  Basis Set: AUG-CC-PVTZ
    Blend: AUG-CC-PVTZ
  Basis Set: (AUG-CC-PVTZ AUX)
    Blend: AUG-CC-PVTZ-JKFIT
	 Reference Energy          =    -383.7504604858999642 [Eh]
	 Singles Energy            =      -0.0000000000000000 [Eh]
	 Same-Spin Energy          =      -0.4109005550418397 [Eh]
	 Opposite-Spin Energy      =      -1.3182970533469081 [Eh]
	 Correlation Energy        =      -1.7291976083887477 [Eh]
	 Total Energy              =    -385.4796580942887090 [Eh]

	 ================> DF-SCS-MP2 Energies <==================
	-----------------------------------------------------------
	 SCS Same-Spin Scale       =       0.3333333333333333 [-]
	 SCS Opposite-Spin Scale   =       1.2000000000000000 [-]
	 SCS Same-Spin Energy      =      -0.1369668516806132 [Eh]
	 SCS Opposite-Spin Energy  =      -1.5819564640162895 [Eh]
	 SCS Correlation Energy    =      -1.7189233156969028 [Eh]
	 SCS Total Energy          =    -385.4693838015968481 [Eh]
	-----------------------------------------------------------

  Dipole Moment: [D]
     X:     0.9792      Y:    -0.7396      Z:    -0.0241     Total:     1.2274

*** Psi4 exiting successfully. Buy a developer a beer!
