                               Psi4 1.3.2 release

  ==> Input File <==

--------------------------------------------------------------------------
#psi4
#
memory 32 gb

molecule  {
0 1
  O        1.7572910     0.3059760     0.0000180
  C       -0.4850880     0.9739040    -0.0000120
  C        0.4405670    -0.0879150     0.0000040
  C       -1.8443600     0.6614770    -0.0000180
  C        0.0124250    -1.4183170     0.0000060
  C        0.0151451     2.3911502    -0.2500080
  C       -2.2900340    -0.6642210    -0.0000140
  C       -1.3585410    -1.6984920    -0.0000020
  C        2.7379480    -0.7266300     0.0000180
  H       -2.5677820     1.4752540    -0.0000300
  H        0.7228010    -2.2381660     0.0000160
  H       -0.8234040     3.0925880    -0.0001030
  H        0.6363730     2.5877470     0.8789620
  H        0.6365320     2.5876940    -0.8788760
  H       -3.3546920    -0.8829470    -0.0000210
  H       -1.6887710    -2.7346470     0.0000000
  H        2.6565620    -1.3539010    -0.8944310
  H        2.6565580    -1.3539040     0.8944650
  H        3.6991380    -0.2132700     0.0000220
units angstrom
no_reorient  #important for SAPT in psi4, default
symmetry c1  #important for SAPT in psi4, default
}

set PROPERTIES_ORIGIN ["COM"]
properties('MP2/aug-cc-pvtz', properties = ['dipole'])
--------------------------------------------------------------------------

    Molecular point group: c1
  Charge       = 0
  Multiplicity = 1
  Basis Set: AUG-CC-PVTZ
    Blend: AUG-CC-PVTZ
  Basis Set: (AUG-CC-PVTZ AUX)
    Blend: AUG-CC-PVTZ-JKFIT

    Orbital Energies [Eh]
    ---------------------

    Doubly Occupied:

       1A    -20.584306     2A    -11.295869     3A    -11.284381
       4A    -11.238963     5A    -11.235506     6A    -11.233212
       7A    -11.231089     8A    -11.225486     9A    -11.225429
      10A     -1.404215    11A     -1.146128    12A     -1.045041
      13A     -1.009980    14A     -0.950683    15A     -0.926548
      16A     -0.813882    17A     -0.801483    18A     -0.712107
      19A     -0.670453    20A     -0.654419    21A     -0.651351
      22A     -0.615712    23A     -0.612551    24A     -0.573590
      25A     -0.555929    26A     -0.529318    27A     -0.520996
      28A     -0.509295    29A     -0.479032    30A     -0.471704
      31A     -0.452239    32A     -0.329783    33A     -0.303772

  @DF-RHF Final Energy:  -383.68758056273441

   => Energetics <=

    Nuclear Repulsion Energy =            429.8375036439094288
    One-Electron Energy =               -1372.4612593991132599
    Two-Electron Energy =                 558.9361751924693635
    Total Energy =                       -383.6875805627344107
  Basis Set: (AUG-CC-PVTZ AUX)
    Blend: AUG-CC-PVTZ-RI
    Molecular point group: c1

    Geometry (in Angstrom), charge = 0, multiplicity = 1:

       Center              X                  Y                   Z               Mass
    ------------   -----------------  -----------------  -----------------  -----------------
         O            1.778279101862     0.313843864473     0.024593590071    15.994914619570
         C           -0.464099898138     0.981771864473     0.024563590071    12.000000000000
         C            0.461555101862    -0.080047135527     0.024579590071    12.000000000000
         C           -1.823371898138     0.669344864473     0.024557590071    12.000000000000
         C            0.033413101862    -1.410449135527     0.024581590071    12.000000000000
         C            0.036133201862     2.399018064473    -0.225432409929    12.000000000000
         C           -2.269045898138    -0.656353135526     0.024561590071    12.000000000000
         C           -1.337552898138    -1.690624135526     0.024573590071    12.000000000000
         C            2.758936101862    -0.718762135527     0.024593590071    12.000000000000
         H           -2.546793898138     1.483121864474     0.024545590071     1.007825032230
         H            0.743789101862    -2.230298135527     0.024591590071     1.007825032230
         H           -0.802415898138     3.100455864474     0.024472590071     1.007825032230
         H            0.657361101862     2.595614864473     0.903537590071     1.007825032230
         H            0.657520101862     2.595561864473    -0.854300409929     1.007825032230
         H           -3.333703898138    -0.875079135527     0.024554590071     1.007825032230
         H           -1.667782898138    -2.726779135526     0.024575590071     1.007825032230
         H            2.677550101862    -1.346033135527    -0.869855409929     1.007825032230
         H            2.677546101862    -1.346036135527     0.919040590071     1.007825032230
         H            3.720126101862    -0.205402135527     0.024597590071     1.007825032230

  Basis Set: AUG-CC-PVTZ
    Blend: AUG-CC-PVTZ
  Basis Set: (AUG-CC-PVTZ AUX)
    Blend: AUG-CC-PVTZ-JKFIT
	 Reference Energy          =    -383.6875805627344107 [Eh]
	 Singles Energy            =      -0.0000000000000000 [Eh]
	 Same-Spin Energy          =      -0.4117449165541617 [Eh]
	 Opposite-Spin Energy      =      -1.3210736810048096 [Eh]
	 Correlation Energy        =      -1.7328185975589712 [Eh]
	 Total Energy              =    -385.4203991602933570 [Eh]

	 ================> DF-SCS-MP2 Energies <==================
	-----------------------------------------------------------
	 SCS Same-Spin Scale       =       0.3333333333333333 [-]
	 SCS Opposite-Spin Scale   =       1.2000000000000000 [-]
	 SCS Same-Spin Energy      =      -0.1372483055180539 [Eh]
	 SCS Opposite-Spin Energy  =      -1.5852884172057715 [Eh]
	 SCS Correlation Energy    =      -1.7225367227238255 [Eh]
	 SCS Total Energy          =    -385.4101172854582273 [Eh]
	-----------------------------------------------------------

  Dipole Moment: [D]
     X:     0.9321      Y:    -0.8070      Z:    -0.1037     Total:     1.2372

*** Psi4 exiting successfully. Buy a developer a beer!
