                               Psi4 1.3.2 release

  ==> Input File <==

--------------------------------------------------------------------------
#psi4
#
memory 32 gb

molecule  {
0 1
  O        1.7572910     0.3059760     0.0000180
  C       -0.4850880     0.9739040    -0.0000120
  C        0.4405670    -0.0879150     0.0000040
  C       -1.8443600     0.6614770    -0.0000180
  C        0.0124220    -1.4183157     0.2500060
  C        0.0151430     2.3911510    -0.0000080
  C       -2.2900340    -0.6642210    -0.0000140
  C       -1.3585410    -1.6984920    -0.0000020
  C        2.7379480    -0.7266300     0.0000180
  H       -2.5677820     1.4752540    -0.0000300
  H        0.7228010    -2.2381660     0.0000160
  H       -0.8234040     3.0925880    -0.0001030
  H        0.6363730     2.5877470     0.8789620
  H        0.6365320     2.5876940    -0.8788760
  H       -3.3546920    -0.8829470    -0.0000210
  H       -1.6887710    -2.7346470     0.0000000
  H        2.6565620    -1.3539010    -0.8944310
  H        2.6565580    -1.3539040     0.8944650
  H        3.6991380    -0.2132700     0.0000220
units angstrom
no_reorient  #important for SAPT in psi4, default
symmetry c1  #important for SAPT in psi4, default
}

set PROPERTIES_ORIGIN ["COM"]
properties('MP2/aug-cc-pvtz', properties = ['dipole'])
--------------------------------------------------------------------------

    Molecular point group: c1
  Charge       = 0
  Multiplicity = 1
  Basis Set: AUG-CC-PVTZ
    Blend: AUG-CC-PVTZ
  Basis Set: (AUG-CC-PVTZ AUX)
    Blend: AUG-CC-PVTZ-JKFIT

    Orbital Energies [Eh]
    ---------------------

    Doubly Occupied:

       1A    -20.585708     2A    -11.300541     3A    -11.284111
       4A    -11.239430     5A    -11.235564     6A    -11.234961
       7A    -11.233531     8A    -11.224304     9A    -11.216505
      10A     -1.405158    11A     -1.144041    12A     -1.043639
      13A     -1.007337    14A     -0.948012    15A     -0.920475
      16A     -0.811824    17A     -0.794076    18A     -0.707662
      19A     -0.665025    20A     -0.653742    21A     -0.642880
      22A     -0.608867    23A     -0.581622    24A     -0.568930
      25A     -0.559756    26A     -0.537980    27A     -0.522530
      28A     -0.509106    29A     -0.495246    30A     -0.471401
      31A     -0.462160    32A     -0.331793    33A     -0.304554

  @DF-RHF Final Energy:  -383.73468004407863

   => Energetics <=

    Nuclear Repulsion Energy =            429.3787963224694977
    One-Electron Energy =               -1371.7220084972384484
    Two-Electron Energy =                 558.6085321306903779
    Total Energy =                       -383.7346800440785728
  Basis Set: (AUG-CC-PVTZ AUX)
    Blend: AUG-CC-PVTZ-RI
    Molecular point group: c1

    Geometry (in Angstrom), charge = 0, multiplicity = 1:

       Center              X                  Y                   Z               Mass
    ------------   -----------------  -----------------  -----------------  -----------------
         O            1.778279603201     0.313843658040    -0.024557261411    15.994914619570
         C           -0.464099396799     0.981771658040    -0.024587261411    12.000000000000
         C            0.461555603201    -0.080047341960    -0.024571261411    12.000000000000
         C           -1.823371396799     0.669344658040    -0.024593261411    12.000000000000
         C            0.033410603201    -1.410448041960     0.225430738589    12.000000000000
         C            0.036131603201     2.399018658040    -0.024583261411    12.000000000000
         C           -2.269045396799    -0.656353341960    -0.024589261411    12.000000000000
         C           -1.337552396799    -1.690624341960    -0.024577261411    12.000000000000
         C            2.758936603201    -0.718762341960    -0.024557261411    12.000000000000
         H           -2.546793396799     1.483121658040    -0.024605261411     1.007825032230
         H            0.743789603201    -2.230298341960    -0.024559261411     1.007825032230
         H           -0.802415396799     3.100455658040    -0.024678261411     1.007825032230
         H            0.657361603201     2.595614658040     0.854386738589     1.007825032230
         H            0.657520603201     2.595561658040    -0.903451261411     1.007825032230
         H           -3.333703396799    -0.875079341960    -0.024596261411     1.007825032230
         H           -1.667782396799    -2.726779341960    -0.024575261411     1.007825032230
         H            2.677550603201    -1.346033341960    -0.919006261411     1.007825032230
         H            2.677546603201    -1.346036341960     0.869889738589     1.007825032230
         H            3.720126603201    -0.205402341960    -0.024553261411     1.007825032230

  Basis Set: AUG-CC-PVTZ
    Blend: AUG-CC-PVTZ
  Basis Set: (AUG-CC-PVTZ AUX)
    Blend: AUG-CC-PVTZ-JKFIT
	 Reference Energy          =    -383.7346800440786296 [Eh]
	 Singles Energy            =      -0.0000000000000000 [Eh]
	 Same-Spin Energy          =      -0.4117677559435047 [Eh]
	 Opposite-Spin Energy      =      -1.3208361880233510 [Eh]
	 Correlation Energy        =      -1.7326039439668557 [Eh]
	 Total Energy              =    -385.4672839880454944 [Eh]

	 ================> DF-SCS-MP2 Energies <==================
	-----------------------------------------------------------
	 SCS Same-Spin Scale       =       0.3333333333333333 [-]
	 SCS Opposite-Spin Scale   =       1.2000000000000000 [-]
	 SCS Same-Spin Energy      =      -0.1372559186478349 [Eh]
	 SCS Opposite-Spin Energy  =      -1.5850034256280212 [Eh]
	 SCS Correlation Energy    =      -1.7222593442758560 [Eh]
	 SCS Total Energy          =    -385.4569393883544990 [Eh]
	-----------------------------------------------------------

  Dipole Moment: [D]
     X:     0.9199      Y:    -0.6061      Z:    -0.1937     Total:     1.1185

*** Psi4 exiting successfully. Buy a developer a beer!
