                               Psi4 1.3.2 release

  ==> Input File <==

--------------------------------------------------------------------------
#psi4
#
memory 32 gb

molecule  {
0 1
  O        1.7572910     0.3059760     0.0000180
  C       -0.4850880     0.9739040    -0.0000120
  C        0.4405670    -0.0879150     0.0000040
  C       -1.8443600     0.6614770    -0.0000180
  C        0.0124226    -1.4183160     0.2000060
  C        0.0151430     2.3911510    -0.0000080
  C       -2.2900340    -0.6642210    -0.0000140
  C       -1.3585410    -1.6984920    -0.0000020
  C        2.7379480    -0.7266300     0.0000180
  H       -2.5677820     1.4752540    -0.0000300
  H        0.7228010    -2.2381660     0.0000160
  H       -0.8234040     3.0925880    -0.0001030
  H        0.6363730     2.5877470     0.8789620
  H        0.6365320     2.5876940    -0.8788760
  H       -3.3546920    -0.8829470    -0.0000210
  H       -1.6887710    -2.7346470     0.0000000
  H        2.6565620    -1.3539010    -0.8944310
  H        2.6565580    -1.3539040     0.8944650
  H        3.6991380    -0.2132700     0.0000220
units angstrom
no_reorient  #important for SAPT in psi4, default
symmetry c1  #important for SAPT in psi4, default
}

set PROPERTIES_ORIGIN ["COM"]
properties('MP2/aug-cc-pvtz', properties = ['dipole'])
--------------------------------------------------------------------------

    Molecular point group: c1
  Charge       = 0
  Multiplicity = 1
  Basis Set: AUG-CC-PVTZ
    Blend: AUG-CC-PVTZ
  Basis Set: (AUG-CC-PVTZ AUX)
    Blend: AUG-CC-PVTZ-JKFIT

    Orbital Energies [Eh]
    ---------------------

    Doubly Occupied:

       1A    -20.585089     2A    -11.298621     3A    -11.284164
       4A    -11.237788     5A    -11.234577     6A    -11.233345
       7A    -11.233281     8A    -11.224345     9A    -11.216330
      10A     -1.404723    11A     -1.144483    12A     -1.043989
      13A     -1.008023    14A     -0.948162    15A     -0.920651
      16A     -0.812081    17A     -0.795030    18A     -0.708037
      19A     -0.665674    20A     -0.653655    21A     -0.643934
      22A     -0.610553    23A     -0.581391    24A     -0.568778
      25A     -0.560977    26A     -0.538352    27A     -0.522329
      28A     -0.509030    29A     -0.495691    30A     -0.472890
      31A     -0.462936    32A     -0.331524    33A     -0.304773

  @DF-RHF Final Energy:  -383.74134639196654

   => Energetics <=

    Nuclear Repulsion Energy =            429.6366395115476280
    One-Electron Energy =               -1372.2455525246937214
    Two-Electron Energy =                 558.8675666211795487
    Total Energy =                       -383.7413463919665446
  Basis Set: (AUG-CC-PVTZ AUX)
    Blend: AUG-CC-PVTZ-RI
    Molecular point group: c1

    Geometry (in Angstrom), charge = 0, multiplicity = 1:

       Center              X                  Y                   Z               Mass
    ------------   -----------------  -----------------  -----------------  -----------------
         O            1.778279544220     0.313843687530    -0.019642176263    15.994914619570
         C           -0.464099455780     0.981771687530    -0.019672176263    12.000000000000
         C            0.461555544220    -0.080047312470    -0.019656176263    12.000000000000
         C           -1.823371455780     0.669344687530    -0.019678176263    12.000000000000
         C            0.033411144220    -1.410448312470     0.180345823737    12.000000000000
         C            0.036131544220     2.399018687530    -0.019668176263    12.000000000000
         C           -2.269045455780    -0.656353312470    -0.019674176263    12.000000000000
         C           -1.337552455780    -1.690624312470    -0.019662176263    12.000000000000
         C            2.758936544220    -0.718762312470    -0.019642176263    12.000000000000
         H           -2.546793455780     1.483121687530    -0.019690176263     1.007825032230
         H            0.743789544220    -2.230298312470    -0.019644176263     1.007825032230
         H           -0.802415455780     3.100455687530    -0.019763176263     1.007825032230
         H            0.657361544220     2.595614687530     0.859301823737     1.007825032230
         H            0.657520544220     2.595561687530    -0.898536176263     1.007825032230
         H           -3.333703455780    -0.875079312470    -0.019681176263     1.007825032230
         H           -1.667782455780    -2.726779312470    -0.019660176263     1.007825032230
         H            2.677550544220    -1.346033312470    -0.914091176263     1.007825032230
         H            2.677546544220    -1.346036312470     0.874804823737     1.007825032230
         H            3.720126544220    -0.205402312470    -0.019638176263     1.007825032230

  Basis Set: AUG-CC-PVTZ
    Blend: AUG-CC-PVTZ
  Basis Set: (AUG-CC-PVTZ AUX)
    Blend: AUG-CC-PVTZ-JKFIT
	 Reference Energy          =    -383.7413463919665446 [Eh]
	 Singles Energy            =      -0.0000000000000000 [Eh]
	 Same-Spin Energy          =      -0.4114534935084923 [Eh]
	 Opposite-Spin Energy      =      -1.3198264601950545 [Eh]
	 Correlation Energy        =      -1.7312799537035466 [Eh]
	 Total Energy              =    -385.4726263456701076 [Eh]

	 ================> DF-SCS-MP2 Energies <==================
	-----------------------------------------------------------
	 SCS Same-Spin Scale       =       0.3333333333333333 [-]
	 SCS Opposite-Spin Scale   =       1.2000000000000000 [-]
	 SCS Same-Spin Energy      =      -0.1371511645028307 [Eh]
	 SCS Opposite-Spin Energy  =      -1.5837917522340652 [Eh]
	 SCS Correlation Energy    =      -1.7209429167368959 [Eh]
	 SCS Total Energy          =    -385.4622893087034186 [Eh]
	-----------------------------------------------------------

  Dipole Moment: [D]
     X:     0.9415      Y:    -0.6526      Z:    -0.1535     Total:     1.1558

*** Psi4 exiting successfully. Buy a developer a beer!
