                               Psi4 1.3.2 release

  ==> Input File <==

--------------------------------------------------------------------------
#psi4
#
memory 32 gb

molecule  {
0 1
  O        1.7572910     0.3059760     0.0000180
  C       -0.4850880     0.9739040    -0.0000120
  C        0.4405670    -0.0879150     0.0000040
  C       -1.8443600     0.6614770    -0.0000180
  C        0.0124250    -1.4183170     0.0000060
  C        0.0151443     2.3911505    -0.1500080
  C       -2.2900340    -0.6642210    -0.0000140
  C       -1.3585410    -1.6984920    -0.0000020
  C        2.7379480    -0.7266300     0.0000180
  H       -2.5677820     1.4752540    -0.0000300
  H        0.7228010    -2.2381660     0.0000160
  H       -0.8234040     3.0925880    -0.0001030
  H        0.6363730     2.5877470     0.8789620
  H        0.6365320     2.5876940    -0.8788760
  H       -3.3546920    -0.8829470    -0.0000210
  H       -1.6887710    -2.7346470     0.0000000
  H        2.6565620    -1.3539010    -0.8944310
  H        2.6565580    -1.3539040     0.8944650
  H        3.6991380    -0.2132700     0.0000220
units angstrom
no_reorient  #important for SAPT in psi4, default
symmetry c1  #important for SAPT in psi4, default
}

set PROPERTIES_ORIGIN ["COM"]
properties('MP2/aug-cc-pvtz', properties = ['dipole'])
--------------------------------------------------------------------------

    Molecular point group: c1
  Charge       = 0
  Multiplicity = 1
  Basis Set: AUG-CC-PVTZ
    Blend: AUG-CC-PVTZ
  Basis Set: (AUG-CC-PVTZ AUX)
    Blend: AUG-CC-PVTZ-JKFIT

    Orbital Energies [Eh]
    ---------------------

    Doubly Occupied:

       1A    -20.584104     2A    -11.295382     3A    -11.284303
       4A    -11.235747     5A    -11.235037     6A    -11.232364
       7A    -11.230628     8A    -11.224847     9A    -11.219444
      10A     -1.404046    11A     -1.145648    12A     -1.044797
      13A     -1.009485    14A     -0.949099    15A     -0.923029
      16A     -0.813011    17A     -0.798587    18A     -0.710027
      19A     -0.668004    20A     -0.653675    21A     -0.648071
      22A     -0.613693    23A     -0.599123    24A     -0.572797
      25A     -0.558289    26A     -0.531294    27A     -0.522824
      28A     -0.509039    29A     -0.485946    30A     -0.474343
      31A     -0.461514    32A     -0.330633    33A     -0.304753

  @DF-RHF Final Energy:  -383.72978469461970

   => Energetics <=

    Nuclear Repulsion Energy =            430.0074677270088728
    One-Electron Energy =               -1372.9273390775285861
    Two-Electron Energy =                 559.1900866559000178
    Total Energy =                       -383.7297846946197524
  Basis Set: (AUG-CC-PVTZ AUX)
    Blend: AUG-CC-PVTZ-RI
    Molecular point group: c1

    Geometry (in Angstrom), charge = 0, multiplicity = 1:

       Center              X                  Y                   Z               Mass
    ------------   -----------------  -----------------  -----------------  -----------------
         O            1.778279180504     0.313843834983     0.014763419774    15.994914619570
         C           -0.464099819496     0.981771834983     0.014733419774    12.000000000000
         C            0.461555180504    -0.080047165017     0.014749419774    12.000000000000
         C           -1.823371819496     0.669344834983     0.014727419774    12.000000000000
         C            0.033413180504    -1.410449165017     0.014751419774    12.000000000000
         C            0.036132480504     2.399018334983    -0.135262580226    12.000000000000
         C           -2.269045819496    -0.656353165017     0.014731419774    12.000000000000
         C           -1.337552819496    -1.690624165017     0.014743419774    12.000000000000
         C            2.758936180504    -0.718762165017     0.014763419774    12.000000000000
         H           -2.546793819496     1.483121834983     0.014715419774     1.007825032230
         H            0.743789180504    -2.230298165017     0.014761419774     1.007825032230
         H           -0.802415819496     3.100455834983     0.014642419774     1.007825032230
         H            0.657361180504     2.595614834983     0.893707419774     1.007825032230
         H            0.657520180504     2.595561834983    -0.864130580226     1.007825032230
         H           -3.333703819496    -0.875079165017     0.014724419774     1.007825032230
         H           -1.667782819496    -2.726779165017     0.014745419774     1.007825032230
         H            2.677550180504    -1.346033165017    -0.879685580226     1.007825032230
         H            2.677546180504    -1.346036165017     0.909210419774     1.007825032230
         H            3.720126180504    -0.205402165017     0.014767419774     1.007825032230

  Basis Set: AUG-CC-PVTZ
    Blend: AUG-CC-PVTZ
  Basis Set: (AUG-CC-PVTZ AUX)
    Blend: AUG-CC-PVTZ-JKFIT
	 Reference Energy          =    -383.7297846946196955 [Eh]
	 Singles Energy            =      -0.0000000000000000 [Eh]
	 Same-Spin Energy          =      -0.4111780733670237 [Eh]
	 Opposite-Spin Energy      =      -1.3191906241825555 [Eh]
	 Correlation Energy        =      -1.7303686975495793 [Eh]
	 Total Energy              =    -385.4601533921692749 [Eh]

	 ================> DF-SCS-MP2 Energies <==================
	-----------------------------------------------------------
	 SCS Same-Spin Scale       =       0.3333333333333333 [-]
	 SCS Opposite-Spin Scale   =       1.2000000000000000 [-]
	 SCS Same-Spin Energy      =      -0.1370593577890079 [Eh]
	 SCS Opposite-Spin Energy  =      -1.5830287490190666 [Eh]
	 SCS Correlation Energy    =      -1.7200881068080744 [Eh]
	 SCS Total Energy          =    -385.4498728014277731 [Eh]
	-----------------------------------------------------------

  Dipole Moment: [D]
     X:     0.9618      Y:    -0.7629      Z:    -0.0691     Total:     1.2296

*** Psi4 exiting successfully. Buy a developer a beer!
