                               Psi4 1.3.2 release

  ==> Input File <==

--------------------------------------------------------------------------
#psi4
#
memory 32 gb

molecule  {
0 1
  O        1.7572910     0.3059760     0.0000180
  C       -0.4850880     0.9739040    -0.0000120
  C        0.4405670    -0.0879150     0.0000040
  C       -1.8443600     0.6614770    -0.0000180
  C        0.0124232    -1.4183162     0.1500060
  C        0.0151430     2.3911510    -0.0000080
  C       -2.2900340    -0.6642210    -0.0000140
  C       -1.3585410    -1.6984920    -0.0000020
  C        2.7379480    -0.7266300     0.0000180
  H       -2.5677820     1.4752540    -0.0000300
  H        0.7228010    -2.2381660     0.0000160
  H       -0.8234040     3.0925880    -0.0001030
  H        0.6363730     2.5877470     0.8789620
  H        0.6365320     2.5876940    -0.8788760
  H       -3.3546920    -0.8829470    -0.0000210
  H       -1.6887710    -2.7346470     0.0000000
  H        2.6565620    -1.3539010    -0.8944310
  H        2.6565580    -1.3539040     0.8944650
  H        3.6991380    -0.2132700     0.0000220
units angstrom
no_reorient  #important for SAPT in psi4, default
symmetry c1  #important for SAPT in psi4, default
}

set PROPERTIES_ORIGIN ["COM"]
properties('MP2/aug-cc-pvtz', properties = ['dipole'])
--------------------------------------------------------------------------

    Molecular point group: c1
  Charge       = 0
  Multiplicity = 1
  Basis Set: AUG-CC-PVTZ
    Blend: AUG-CC-PVTZ
  Basis Set: (AUG-CC-PVTZ AUX)
    Blend: AUG-CC-PVTZ-JKFIT

    Orbital Energies [Eh]
    ---------------------

    Doubly Occupied:

       1A    -20.584607     2A    -11.297095     3A    -11.284205
       4A    -11.236478     5A    -11.234121     6A    -11.232794
       7A    -11.232055     8A    -11.224391     9A    -11.216200
      10A     -1.404384    11A     -1.144851    12A     -1.044279
      13A     -1.008542    14A     -0.948273    15A     -0.920805
      16A     -0.812296    17A     -0.795818    18A     -0.708398
      19A     -0.666211    20A     -0.653586    21A     -0.644852
      22A     -0.611845    23A     -0.581235    24A     -0.568638
      25A     -0.561987    26A     -0.538604    27A     -0.522163
      28A     -0.508974    29A     -0.496047    30A     -0.473997
      31A     -0.463531    32A     -0.331341    33A     -0.304960

  @DF-RHF Final Energy:  -383.74648519607433

   => Energetics <=

    Nuclear Repulsion Energy =            429.8397440808150236
    One-Electron Energy =               -1372.6573323521761267
    Two-Electron Energy =                 559.0711030752867146
    Total Energy =                       -383.7464851960743317
  Basis Set: (AUG-CC-PVTZ AUX)
    Blend: AUG-CC-PVTZ-RI
    Molecular point group: c1

    Geometry (in Angstrom), charge = 0, multiplicity = 1:

       Center              X                  Y                   Z               Mass
    ------------   -----------------  -----------------  -----------------  -----------------
         O            1.778279485239     0.313843707191    -0.014727091115    15.994914619570
         C           -0.464099514761     0.981771707191    -0.014757091115    12.000000000000
         C            0.461555485239    -0.080047292809    -0.014741091115    12.000000000000
         C           -1.823371514761     0.669344707191    -0.014763091115    12.000000000000
         C            0.033411685239    -1.410448492809     0.135260908885    12.000000000000
         C            0.036131485239     2.399018707191    -0.014753091115    12.000000000000
         C           -2.269045514761    -0.656353292809    -0.014759091115    12.000000000000
         C           -1.337552514761    -1.690624292809    -0.014747091115    12.000000000000
         C            2.758936485239    -0.718762292809    -0.014727091115    12.000000000000
         H           -2.546793514761     1.483121707191    -0.014775091115     1.007825032230
         H            0.743789485239    -2.230298292809    -0.014729091115     1.007825032230
         H           -0.802415514761     3.100455707191    -0.014848091115     1.007825032230
         H            0.657361485239     2.595614707191     0.864216908885     1.007825032230
         H            0.657520485239     2.595561707191    -0.893621091115     1.007825032230
         H           -3.333703514761    -0.875079292809    -0.014766091115     1.007825032230
         H           -1.667782514761    -2.726779292809    -0.014745091115     1.007825032230
         H            2.677550485239    -1.346033292809    -0.909176091115     1.007825032230
         H            2.677546485239    -1.346036292809     0.879719908885     1.007825032230
         H            3.720126485239    -0.205402292809    -0.014723091115     1.007825032230

  Basis Set: AUG-CC-PVTZ
    Blend: AUG-CC-PVTZ
  Basis Set: (AUG-CC-PVTZ AUX)
    Blend: AUG-CC-PVTZ-JKFIT
	 Reference Energy          =    -383.7464851960743317 [Eh]
	 Singles Energy            =      -0.0000000000000000 [Eh]
	 Same-Spin Energy          =      -0.4112014797684567 [Eh]
	 Opposite-Spin Energy      =      -1.3190428217328283 [Eh]
	 Correlation Energy        =      -1.7302443015012849 [Eh]
	 Total Energy              =    -385.4767294975756045 [Eh]

	 ================> DF-SCS-MP2 Energies <==================
	-----------------------------------------------------------
	 SCS Same-Spin Scale       =       0.3333333333333333 [-]
	 SCS Opposite-Spin Scale   =       1.2000000000000000 [-]
	 SCS Same-Spin Energy      =      -0.1370671599228189 [Eh]
	 SCS Opposite-Spin Energy  =      -1.5828513860793938 [Eh]
	 SCS Correlation Energy    =      -1.7199185460022126 [Eh]
	 SCS Total Energy          =    -385.4664037420765226 [Eh]
	-----------------------------------------------------------

  Dipole Moment: [D]
     X:     0.9588      Y:    -0.6892      Z:    -0.1142     Total:     1.1863

*** Psi4 exiting successfully. Buy a developer a beer!
