                               Psi4 1.3.2 release

  ==> Input File <==

--------------------------------------------------------------------------
#psi4
#
memory 32 gb

molecule  {
0 1
  O        1.7572910     0.3059760     0.0000180
  C       -0.4850880     0.9739040    -0.0000120
  C        0.4405670    -0.0879150     0.0000040
  C       -1.8443600     0.6614770    -0.0000180
  C        0.0124238    -1.4183165     0.1000060
  C        0.0151430     2.3911510    -0.0000080
  C       -2.2900340    -0.6642210    -0.0000140
  C       -1.3585410    -1.6984920    -0.0000020
  C        2.7379480    -0.7266300     0.0000180
  H       -2.5677820     1.4752540    -0.0000300
  H        0.7228010    -2.2381660     0.0000160
  H       -0.8234040     3.0925880    -0.0001030
  H        0.6363730     2.5877470     0.8789620
  H        0.6365320     2.5876940    -0.8788760
  H       -3.3546920    -0.8829470    -0.0000210
  H       -1.6887710    -2.7346470     0.0000000
  H        2.6565620    -1.3539010    -0.8944310
  H        2.6565580    -1.3539040     0.8944650
  H        3.6991380    -0.2132700     0.0000220
units angstrom
no_reorient  #important for SAPT in psi4, default
symmetry c1  #important for SAPT in psi4, default
}

set PROPERTIES_ORIGIN ["COM"]
properties('MP2/aug-cc-pvtz', properties = ['dipole'])
--------------------------------------------------------------------------

    Molecular point group: c1
  Charge       = 0
  Multiplicity = 1
  Basis Set: AUG-CC-PVTZ
    Blend: AUG-CC-PVTZ
  Basis Set: (AUG-CC-PVTZ AUX)
    Blend: AUG-CC-PVTZ-JKFIT

    Orbital Energies [Eh]
    ---------------------

    Doubly Occupied:

       1A    -20.584264     2A    -11.295989     3A    -11.284236
       4A    -11.235526     5A    -11.233980     6A    -11.232276
       7A    -11.231116     8A    -11.224432     9A    -11.216112
      10A     -1.404142    11A     -1.145129    12A     -1.044496
      13A     -1.008906    14A     -0.948349    15A     -0.920927
      16A     -0.812460    17A     -0.796407    18A     -0.708700
      19A     -0.666613    20A     -0.653534    21A     -0.645568
      22A     -0.612753    23A     -0.581138    24A     -0.568516
      25A     -0.562743    26A     -0.538766    27A     -0.522040
      28A     -0.508937    29A     -0.496310    30A     -0.474755
      31A     -0.463954    32A     -0.331224    33A     -0.305104

  @DF-RHF Final Energy:  -383.75012720968454

   => Energetics <=

    Nuclear Repulsion Energy =            429.9862196907438943
    One-Electron Energy =               -1372.9538879237479705
    Two-Electron Energy =                 559.2175410233195407
    Total Energy =                       -383.7501272096845923
  Basis Set: (AUG-CC-PVTZ AUX)
    Blend: AUG-CC-PVTZ-RI
    Molecular point group: c1

    Geometry (in Angstrom), charge = 0, multiplicity = 1:

       Center              X                  Y                   Z               Mass
    ------------   -----------------  -----------------  -----------------  -----------------
         O            1.778279426258     0.313843736681    -0.009812005967    15.994914619570
         C           -0.464099573742     0.981771736681    -0.009842005967    12.000000000000
         C            0.461555426258    -0.080047263319    -0.009826005967    12.000000000000
         C           -1.823371573742     0.669344736681    -0.009848005967    12.000000000000
         C            0.033412226258    -1.410448763319     0.090175994033    12.000000000000
         C            0.036131426258     2.399018736681    -0.009838005967    12.000000000000
         C           -2.269045573742    -0.656353263319    -0.009844005967    12.000000000000
         C           -1.337552573742    -1.690624263319    -0.009832005967    12.000000000000
         C            2.758936426258    -0.718762263319    -0.009812005967    12.000000000000
         H           -2.546793573742     1.483121736681    -0.009860005967     1.007825032230
         H            0.743789426258    -2.230298263319    -0.009814005967     1.007825032230
         H           -0.802415573742     3.100455736681    -0.009933005967     1.007825032230
         H            0.657361426258     2.595614736681     0.869131994033     1.007825032230
         H            0.657520426258     2.595561736681    -0.888706005967     1.007825032230
         H           -3.333703573742    -0.875079263319    -0.009851005967     1.007825032230
         H           -1.667782573742    -2.726779263319    -0.009830005967     1.007825032230
         H            2.677550426258    -1.346033263319    -0.904261005967     1.007825032230
         H            2.677546426258    -1.346036263319     0.884634994033     1.007825032230
         H            3.720126426258    -0.205402263319    -0.009808005967     1.007825032230

  Basis Set: AUG-CC-PVTZ
    Blend: AUG-CC-PVTZ
  Basis Set: (AUG-CC-PVTZ AUX)
    Blend: AUG-CC-PVTZ-JKFIT
	 Reference Energy          =    -383.7501272096845355 [Eh]
	 Singles Energy            =      -0.0000000000000000 [Eh]
	 Same-Spin Energy          =      -0.4110172236768651 [Eh]
	 Opposite-Spin Energy      =      -1.3185092537857859 [Eh]
	 Correlation Energy        =      -1.7295264774626511 [Eh]
	 Total Energy              =    -385.4796536871471631 [Eh]

	 ================> DF-SCS-MP2 Energies <==================
	-----------------------------------------------------------
	 SCS Same-Spin Scale       =       0.3333333333333333 [-]
	 SCS Opposite-Spin Scale   =       1.2000000000000000 [-]
	 SCS Same-Spin Energy      =      -0.1370057412256217 [Eh]
	 SCS Opposite-Spin Energy  =      -1.5822111045429430 [Eh]
	 SCS Correlation Energy    =      -1.7192168457685648 [Eh]
	 SCS Total Energy          =    -385.4693440554531207 [Eh]
	-----------------------------------------------------------

  Dipole Moment: [D]
     X:     0.9713      Y:    -0.7154      Z:    -0.0756     Total:     1.2087

*** Psi4 exiting successfully. Buy a developer a beer!
