                               Psi4 1.4a2.dev612

  ==> Input File <==

--------------------------------------------------------------------------
#psi4
#
memory 32 gb

molecule  {
0 1
  N       -1.7531090     0.6487580     0.1985890
  C       -0.8584400    -0.3593730    -0.1157050
  C        0.5958890    -0.1944310    -0.0686340
  C       -1.6095070    -1.4830350    -0.4543950
  C       -3.0364380     0.1798280     0.0590890
  C       -2.9750140    -1.1422740    -0.3482900
  C       -1.4212420     1.9838780     0.6691930
  C        1.2419450     0.8845030    -0.6969540
  C        1.3787110    -1.1624060     0.5835710
  C        2.6315710     1.0013490    -0.6546280
  C        2.7689430    -1.0546610     0.6054980
  C        3.3999180     0.0321080    -0.0053240
  H       -1.1930810    -2.4304870    -0.7739750
  H       -3.8847853     0.8944971     0.0354144
  H       -3.8253090    -1.7817070    -0.5476340
  H       -2.2212640     2.3282100     1.3272780
  H       -0.4870200     1.9493020     1.2305480
  H       -1.3139190     2.6883760    -0.1607770
  H        0.6536140     1.6152250    -1.2478990
  H        0.8812590    -1.9928010     1.0799670
  H        3.1173860     1.8412050    -1.1464900
  H        3.3610660    -1.8124130     1.1137600
  H        4.4833320     0.1209150     0.0205430
units angstrom
no_reorient  #important for SAPT in psi4, default
symmetry c1  #important for SAPT in psi4, default
}

set PROPERTIES_ORIGIN ["COM"]
properties('MP2/aug-cc-pvtz', properties = ['dipole'])
--------------------------------------------------------------------------

    Molecular point group: c1
  Charge       = 0
  Multiplicity = 1
  Basis Set: AUG-CC-PVTZ
    Blend: AUG-CC-PVTZ
  Basis Set: (AUG-CC-PVTZ AUX)
    Blend: AUG-CC-PVTZ-JKFIT

    Orbital Energies [Eh]
    ---------------------

    Doubly Occupied:

       1A    -15.607138     2A    -11.270160     3A    -11.257218
       4A    -11.250370     5A    -11.249833     6A    -11.241200
       7A    -11.240111     8A    -11.239689     9A    -11.238546
      10A    -11.237552    11A    -11.208996    12A    -11.207170
      13A     -1.298648    14A     -1.155508    15A     -1.073416
      16A     -1.044115    17A     -1.016634    18A     -0.955072
      19A     -0.933191    20A     -0.832978    21A     -0.830964
      22A     -0.769723    23A     -0.742057    24A     -0.712001
      25A     -0.676538    26A     -0.641866    27A     -0.629512
      28A     -0.621477    29A     -0.596705    30A     -0.587669
      31A     -0.569515    32A     -0.567419    33A     -0.535979
      34A     -0.527292    35A     -0.524132    36A     -0.501458
      37A     -0.494917    38A     -0.492114    39A     -0.353237
      40A     -0.340596    41A     -0.335382    42A     -0.276043

  @DF-RHF Final Energy:  -477.54257885012498

   => Energetics <=

    Nuclear Repulsion Energy =            638.9324644594310030
    One-Electron Energy =               -1913.1818018018479961
    Two-Electron Energy =                 796.7067584922920105
    Total Energy =                       -477.5425788501249826
  Basis Set: (AUG-CC-PVTZ AUX)
    Blend: AUG-CC-PVTZ-RI
    Molecular point group: c1

    Geometry (in Angstrom), charge = 0, multiplicity = 1:

       Center              X                  Y                   Z               Mass
    ------------   -----------------  -----------------  -----------------  -----------------
         N           -1.755751072217     0.669398989512     0.207501602225    14.003074004430
         C           -0.861082072217    -0.338732010488    -0.106792397775    12.000000000000
         C            0.593246927783    -0.173790010488    -0.059721397775    12.000000000000
         C           -1.612149072217    -1.462394010488    -0.445482397775    12.000000000000
         C           -3.039080072217     0.200468989512     0.068001602225    12.000000000000
         C           -2.977656072217    -1.121633010488    -0.339377397775    12.000000000000
         C           -1.423884072217     2.004518989512     0.678105602225    12.000000000000
         C            1.239302927783     0.905143989512    -0.688041397775    12.000000000000
         C            1.376068927783    -1.141765010488     0.592483602225    12.000000000000
         C            2.628928927783     1.021989989512    -0.645715397775    12.000000000000
         C            2.766300927783    -1.034020010488     0.614410602225    12.000000000000
         C            3.397275927783     0.052748989512     0.003588602225    12.000000000000
         H           -1.195723072217    -2.409846010488    -0.765062397775     1.007825032230
         H           -3.887427372217     0.915138089512     0.044327002225     1.007825032230
         H           -3.827951072217    -1.761066010488    -0.538721397775     1.007825032230
         H           -2.223906072217     2.348850989512     1.336190602225     1.007825032230
         H           -0.489662072217     1.969942989512     1.239460602225     1.007825032230
         H           -1.316561072217     2.709016989512    -0.151864397775     1.007825032230
         H            0.650971927783     1.635865989512    -1.238986397775     1.007825032230
         H            0.878616927783    -1.972160010488     1.088879602225     1.007825032230
         H            3.114743927783     1.861845989512    -1.137577397775     1.007825032230
         H            3.358423927783    -1.791772010488     1.122672602225     1.007825032230
         H            4.480689927783     0.141555989512     0.029455602225     1.007825032230

  Basis Set: AUG-CC-PVTZ
    Blend: AUG-CC-PVTZ
  Basis Set: (AUG-CC-PVTZ AUX)
    Blend: AUG-CC-PVTZ-JKFIT
	 Reference Energy          =    -477.5425788501249826 [Eh]
	 Singles Energy            =      -0.0000000000000000 [Eh]
	 Same-Spin Energy          =      -0.5393855928186191 [Eh]
	 Opposite-Spin Energy      =      -1.6837494413257579 [Eh]
	 Correlation Energy        =      -2.2231350341443772 [Eh]
	 Total Energy              =    -479.7657138842693598 [Eh]

	 ================> DF-SCS-MP2 Energies <==================
	-----------------------------------------------------------
	 SCS Same-Spin Scale       =       0.3333333333333333 [-]
	 SCS Opposite-Spin Scale   =       1.2000000000000000 [-]
	 SCS Same-Spin Energy      =      -0.1797951976062064 [Eh]
	 SCS Opposite-Spin Energy  =      -2.0204993295909093 [Eh]
	 SCS Correlation Energy    =      -2.2002945271971157 [Eh]
	 SCS Total Energy          =    -479.7428733773220983 [Eh]
	-----------------------------------------------------------

  Dipole Moment: [D]
     X:     0.5584      Y:     1.8831      Z:     0.4675     Total:     2.0190

*** Psi4 exiting successfully. Buy a developer a beer!
