                               Psi4 1.4a2.dev612

  ==> Input File <==

--------------------------------------------------------------------------
#psi4
#
memory 32 gb

molecule  {
0 1
  N       -1.7531090     0.6487580     0.1985890
  C       -0.8584400    -0.3593730    -0.1157050
  C        0.5958890    -0.1944310    -0.0686340
  C       -1.6095070    -1.4830350    -0.4543950
  C       -3.0364380     0.1798280     0.0590890
  C       -2.9750140    -1.1422740    -0.3482900
  C       -1.4212420     1.9838780     0.6691930
  C        1.2419450     0.8845030    -0.6969540
  C        1.3825327    -1.1886626     0.5411919
  C        2.6315710     1.0013490    -0.6546280
  C        2.7689430    -1.0546610     0.6054980
  C        3.3999180     0.0321080    -0.0053240
  H       -1.1930810    -2.4304870    -0.7739750
  H       -3.8823240     0.8199580     0.2740310
  H       -3.8253090    -1.7817070    -0.5476340
  H       -2.2212640     2.3282100     1.3272780
  H       -0.4870200     1.9493020     1.2305480
  H       -1.3139190     2.6883760    -0.1607770
  H        0.6536140     1.6152250    -1.2478990
  H        0.8812590    -1.9928010     1.0799670
  H        3.1173860     1.8412050    -1.1464900
  H        3.3610660    -1.8124130     1.1137600
  H        4.4833320     0.1209150     0.0205430
units angstrom
no_reorient  #important for SAPT in psi4, default
symmetry c1  #important for SAPT in psi4, default
}

set PROPERTIES_ORIGIN ["COM"]
properties('MP2/aug-cc-pvtz', properties = ['dipole'])
--------------------------------------------------------------------------

    Molecular point group: c1
  Charge       = 0
  Multiplicity = 1
  Basis Set: AUG-CC-PVTZ
    Blend: AUG-CC-PVTZ
  Basis Set: (AUG-CC-PVTZ AUX)
    Blend: AUG-CC-PVTZ-JKFIT

    Orbital Energies [Eh]
    ---------------------

    Doubly Occupied:

       1A    -15.607648     2A    -11.270753     3A    -11.256553
       4A    -11.250488     5A    -11.248607     6A    -11.240764
       7A    -11.239591     8A    -11.239270     9A    -11.237873
      10A    -11.237190    11A    -11.208425    12A    -11.206987
      13A     -1.298944    14A     -1.154996    15A     -1.073440
      16A     -1.043884    17A     -1.016145    18A     -0.955915
      19A     -0.933426    20A     -0.833279    21A     -0.830471
      22A     -0.770751    23A     -0.743006    24A     -0.712256
      25A     -0.677659    26A     -0.639850    27A     -0.631979
      28A     -0.622609    29A     -0.596223    30A     -0.587123
      31A     -0.569665    32A     -0.568372    33A     -0.538269
      34A     -0.527275    35A     -0.523660    36A     -0.501582
      37A     -0.495761    38A     -0.491044    39A     -0.354718
      40A     -0.340366    41A     -0.335366    42A     -0.274386

  @DF-RHF Final Energy:  -477.54520044261380

   => Energetics <=

    Nuclear Repulsion Energy =            638.9953252147317926
    One-Electron Energy =               -1913.3079135514269637
    Two-Electron Energy =                 796.7673878940813665
    Total Energy =                       -477.5452004426138046
  Basis Set: (AUG-CC-PVTZ AUX)
    Blend: AUG-CC-PVTZ-RI
    Molecular point group: c1

    Geometry (in Angstrom), charge = 0, multiplicity = 1:

       Center              X                  Y                   Z               Mass
    ------------   -----------------  -----------------  -----------------  -----------------
         N           -1.756058801682     0.671882939374     0.209208056289    14.003074004430
         C           -0.861389801682    -0.336248060626    -0.105085943711    12.000000000000
         C            0.592939198318    -0.171306060626    -0.058014943711    12.000000000000
         C           -1.612456801682    -1.459910060626    -0.443775943711    12.000000000000
         C           -3.039387801682     0.202952939374     0.069708056289    12.000000000000
         C           -2.977963801682    -1.119149060626    -0.337670943711    12.000000000000
         C           -1.424191801682     2.007002939374     0.679812056289    12.000000000000
         C            1.238995198318     0.907627939374    -0.686334943711    12.000000000000
         C            1.379582898318    -1.165537660626     0.551810956289    12.000000000000
         C            2.628621198318     1.024473939374    -0.644008943711    12.000000000000
         C            2.765993198318    -1.031536060626     0.616117056289    12.000000000000
         C            3.396968198318     0.055232939374     0.005295056289    12.000000000000
         H           -1.196030801682    -2.407362060626    -0.763355943711     1.007825032230
         H           -3.885273801682     0.843082939374     0.284650056289     1.007825032230
         H           -3.828258801682    -1.758582060626    -0.537014943711     1.007825032230
         H           -2.224213801682     2.351334939374     1.337897056289     1.007825032230
         H           -0.489969801682     1.972426939374     1.241167056289     1.007825032230
         H           -1.316868801682     2.711500939374    -0.150157943711     1.007825032230
         H            0.650664198318     1.638349939374    -1.237279943711     1.007825032230
         H            0.878309198318    -1.969676060626     1.090586056289     1.007825032230
         H            3.114436198318     1.864329939374    -1.135870943711     1.007825032230
         H            3.358116198318    -1.789288060626     1.124379056289     1.007825032230
         H            4.480382198318     0.144039939374     0.031162056289     1.007825032230

  Basis Set: AUG-CC-PVTZ
    Blend: AUG-CC-PVTZ
  Basis Set: (AUG-CC-PVTZ AUX)
    Blend: AUG-CC-PVTZ-JKFIT
	 Reference Energy          =    -477.5452004426138046 [Eh]
	 Singles Energy            =      -0.0000000000000000 [Eh]
	 Same-Spin Energy          =      -0.5392332220187508 [Eh]
	 Opposite-Spin Energy      =      -1.6833133180610007 [Eh]
	 Correlation Energy        =      -2.2225465400797515 [Eh]
	 Total Energy              =    -479.7677469826935521 [Eh]

	 ================> DF-SCS-MP2 Energies <==================
	-----------------------------------------------------------
	 SCS Same-Spin Scale       =       0.3333333333333333 [-]
	 SCS Opposite-Spin Scale   =       1.2000000000000000 [-]
	 SCS Same-Spin Energy      =      -0.1797444073395836 [Eh]
	 SCS Opposite-Spin Energy  =      -2.0199759816732006 [Eh]
	 SCS Correlation Energy    =      -2.1997203890127843 [Eh]
	 SCS Total Energy          =    -479.7449208316265867 [Eh]
	-----------------------------------------------------------

  Dipole Moment: [D]
     X:     0.4597      Y:     1.8753      Z:     0.6959     Total:     2.0524

*** Psi4 exiting successfully. Buy a developer a beer!
