                               Psi4 1.4a2.dev612

  ==> Input File <==

--------------------------------------------------------------------------
#psi4
#
memory 32 gb

molecule  {
0 1
  N       -1.7531090     0.6487580     0.1985890
  C       -0.8584400    -0.3593730    -0.1157050
  C        0.5958890    -0.1944310    -0.0686340
  C       -1.6095070    -1.4830350    -0.4543950
  C       -3.0364380     0.1798280     0.0590890
  C       -2.9750140    -1.1422740    -0.3482900
  C       -1.4212420     1.9838780     0.6691930
  C        1.2419450     0.8845030    -0.6969540
  C        1.3787110    -1.1624060     0.5835710
  C        2.6315710     1.0013490    -0.6546280
  C        2.7689430    -1.0546610     0.6054980
  C        3.3999180     0.0321080    -0.0053240
  H       -1.1907478    -2.5216973    -0.4881862
  H       -3.8823240     0.8199580     0.2740310
  H       -3.8253090    -1.7817070    -0.5476340
  H       -2.2212640     2.3282100     1.3272780
  H       -0.4870200     1.9493020     1.2305480
  H       -1.3139190     2.6883760    -0.1607770
  H        0.6536140     1.6152250    -1.2478990
  H        0.8812590    -1.9928010     1.0799670
  H        3.1173860     1.8412050    -1.1464900
  H        3.3610660    -1.8124130     1.1137600
  H        4.4833320     0.1209150     0.0205430
units angstrom
no_reorient  #important for SAPT in psi4, default
symmetry c1  #important for SAPT in psi4, default
}

set PROPERTIES_ORIGIN ["COM"]
properties('MP2/aug-cc-pvtz', properties = ['dipole'])
--------------------------------------------------------------------------

    Molecular point group: c1
  Charge       = 0
  Multiplicity = 1
  Basis Set: AUG-CC-PVTZ
    Blend: AUG-CC-PVTZ
  Basis Set: (AUG-CC-PVTZ AUX)
    Blend: AUG-CC-PVTZ-JKFIT

    Orbital Energies [Eh]
    ---------------------

    Doubly Occupied:

       1A    -15.608397     2A    -11.271140     3A    -11.257691
       4A    -11.250677     5A    -11.248964     6A    -11.240945
       7A    -11.239851     8A    -11.239523     9A    -11.238150
      10A    -11.237541    11A    -11.210692    12A    -11.208395
      13A     -1.299588    14A     -1.155370    15A     -1.073503
      16A     -1.044337    17A     -1.016486    18A     -0.956165
      19A     -0.932979    20A     -0.833507    21A     -0.831040
      22A     -0.769041    23A     -0.742730    24A     -0.710819
      25A     -0.677927    26A     -0.639638    27A     -0.632810
      28A     -0.622812    29A     -0.596326    30A     -0.587548
      31A     -0.569536    32A     -0.567576    33A     -0.537243
      34A     -0.528872    35A     -0.519305    36A     -0.502641
      37A     -0.495248    38A     -0.491050    39A     -0.354358
      40A     -0.340284    41A     -0.335301    42A     -0.275248

  @DF-RHF Final Energy:  -477.54067334525143

   => Energetics <=

    Nuclear Repulsion Energy =            638.9232885357317855
    One-Electron Energy =               -1913.1454200672817478
    Two-Electron Energy =                 796.6814581862986415
    Total Energy =                       -477.5406733452514345
  Basis Set: (AUG-CC-PVTZ AUX)
    Blend: AUG-CC-PVTZ-RI
    Molecular point group: c1

    Geometry (in Angstrom), charge = 0, multiplicity = 1:

       Center              X                  Y                   Z               Mass
    ------------   -----------------  -----------------  -----------------  -----------------
         N           -1.755781831930     0.670462375462     0.204137213969    14.003074004430
         C           -0.861112831930    -0.337668624538    -0.110156786031    12.000000000000
         C            0.593216168070    -0.172726624538    -0.063085786031    12.000000000000
         C           -1.612179831930    -1.461330624538    -0.448846786031    12.000000000000
         C           -3.039110831930     0.201532375462     0.064637213969    12.000000000000
         C           -2.977686831930    -1.120569624538    -0.342741786031    12.000000000000
         C           -1.423914831930     2.005582375462     0.674741213969    12.000000000000
         C            1.239272168070     0.906207375462    -0.691405786031    12.000000000000
         C            1.376038168070    -1.140701624538     0.589119213969    12.000000000000
         C            2.628898168070     1.023053375462    -0.649079786031    12.000000000000
         C            2.766270168070    -1.032956624538     0.611046213969    12.000000000000
         C            3.397245168070     0.053812375462     0.000224213969    12.000000000000
         H           -1.193420631930    -2.499992924538    -0.482637986031     1.007825032230
         H           -3.884996831930     0.841662375462     0.279579213969     1.007825032230
         H           -3.827981831930    -1.760002624538    -0.542085786031     1.007825032230
         H           -2.223936831930     2.349914375462     1.332826213969     1.007825032230
         H           -0.489692831930     1.971006375462     1.236096213969     1.007825032230
         H           -1.316591831930     2.710080375462    -0.155228786031     1.007825032230
         H            0.650941168070     1.636929375462    -1.242350786031     1.007825032230
         H            0.878586168070    -1.971096624538     1.085515213969     1.007825032230
         H            3.114713168070     1.862909375462    -1.140941786031     1.007825032230
         H            3.358393168070    -1.790708624538     1.119308213969     1.007825032230
         H            4.480659168070     0.142619375462     0.026091213969     1.007825032230

  Basis Set: AUG-CC-PVTZ
    Blend: AUG-CC-PVTZ
  Basis Set: (AUG-CC-PVTZ AUX)
    Blend: AUG-CC-PVTZ-JKFIT
	 Reference Energy          =    -477.5406733452514345 [Eh]
	 Singles Energy            =      -0.0000000000000000 [Eh]
	 Same-Spin Energy          =      -0.5394175629204290 [Eh]
	 Opposite-Spin Energy      =      -1.6839348020076041 [Eh]
	 Correlation Energy        =      -2.2233523649280329 [Eh]
	 Total Energy              =    -479.7640257101794532 [Eh]

	 ================> DF-SCS-MP2 Energies <==================
	-----------------------------------------------------------
	 SCS Same-Spin Scale       =       0.3333333333333333 [-]
	 SCS Opposite-Spin Scale   =       1.2000000000000000 [-]
	 SCS Same-Spin Energy      =      -0.1798058543068096 [Eh]
	 SCS Opposite-Spin Energy  =      -2.0207217624091247 [Eh]
	 SCS Correlation Energy    =      -2.2005276167159344 [Eh]
	 SCS Total Energy          =    -479.7412009619673654 [Eh]
	-----------------------------------------------------------

  Dipole Moment: [D]
     X:     0.4479      Y:     1.8597      Z:     0.9064     Total:     2.1168

*** Psi4 exiting successfully. Buy a developer a beer!
