                               Psi4 1.4a2.dev612

  ==> Input File <==

--------------------------------------------------------------------------
#psi4
#
memory 32 gb

molecule  {
0 1
  N       -1.7531090     0.6487580     0.1985890
  C       -0.8584400    -0.3593730    -0.1157050
  C        0.5958890    -0.1944310    -0.0686340
  C       -1.6095070    -1.4830350    -0.4543950
  C       -3.0364380     0.1798280     0.0590890
  C       -2.9750140    -1.1422740    -0.3482900
  C       -1.4212420     1.9838780     0.6691930
  C        1.2419450     0.8845030    -0.6969540
  C        1.3901762    -1.2411757     0.4564337
  C        2.6315710     1.0013490    -0.6546280
  C        2.7689430    -1.0546610     0.6054980
  C        3.3999180     0.0321080    -0.0053240
  H       -1.1930810    -2.4304870    -0.7739750
  H       -3.8823240     0.8199580     0.2740310
  H       -3.8253090    -1.7817070    -0.5476340
  H       -2.2212640     2.3282100     1.3272780
  H       -0.4870200     1.9493020     1.2305480
  H       -1.3139190     2.6883760    -0.1607770
  H        0.6536140     1.6152250    -1.2478990
  H        0.8812590    -1.9928010     1.0799670
  H        3.1173860     1.8412050    -1.1464900
  H        3.3610660    -1.8124130     1.1137600
  H        4.4833320     0.1209150     0.0205430
units angstrom
no_reorient  #important for SAPT in psi4, default
symmetry c1  #important for SAPT in psi4, default
}

set PROPERTIES_ORIGIN ["COM"]
properties('MP2/aug-cc-pvtz', properties = ['dipole'])
--------------------------------------------------------------------------

    Molecular point group: c1
  Charge       = 0
  Multiplicity = 1
  Basis Set: AUG-CC-PVTZ
    Blend: AUG-CC-PVTZ
  Basis Set: (AUG-CC-PVTZ AUX)
    Blend: AUG-CC-PVTZ-JKFIT

    Orbital Energies [Eh]
    ---------------------

    Doubly Occupied:

       1A    -15.607840     2A    -11.270983     3A    -11.256758
       4A    -11.252339     5A    -11.248865     6A    -11.241478
       7A    -11.240916     8A    -11.239096     9A    -11.238726
      10A    -11.237454    11A    -11.208613    12A    -11.207143
      13A     -1.299163    14A     -1.154293    15A     -1.073652
      16A     -1.043696    17A     -1.015430    18A     -0.955745
      19A     -0.933618    20A     -0.832737    21A     -0.829776
      22A     -0.770743    23A     -0.742591    24A     -0.712056
      25A     -0.676520    26A     -0.639281    27A     -0.631709
      28A     -0.622234    29A     -0.594907    30A     -0.586013
      31A     -0.569627    32A     -0.568461    33A     -0.538492
      34A     -0.527439    35A     -0.523386    36A     -0.500095
      37A     -0.497078    38A     -0.488185    39A     -0.355851
      40A     -0.340454    41A     -0.335493    42A     -0.272938

  @DF-RHF Final Energy:  -477.53888408858546

   => Energetics <=

    Nuclear Repulsion Energy =            638.7255571006379569
    One-Electron Energy =               -1912.7651367360904260
    Two-Electron Energy =                 796.5006955468668366
    Total Energy =                       -477.5388840885855188
  Basis Set: (AUG-CC-PVTZ AUX)
    Blend: AUG-CC-PVTZ-RI
    Molecular point group: c1

    Geometry (in Angstrom), charge = 0, multiplicity = 1:

       Center              X                  Y                   Z               Mass
    ------------   -----------------  -----------------  -----------------  -----------------
         N           -1.756642686694     0.675894401671     0.215682713540    14.003074004430
         C           -0.861973686694    -0.332236598329    -0.098611286460    12.000000000000
         C            0.592355313306    -0.167294598329    -0.051540286460    12.000000000000
         C           -1.613040686694    -1.455898598329    -0.437301286460    12.000000000000
         C           -3.039971686694     0.206964401671     0.076182713540    12.000000000000
         C           -2.978547686694    -1.115137598329    -0.331196286460    12.000000000000
         C           -1.424775686694     2.011014401671     0.686286713540    12.000000000000
         C            1.238411313306     0.911639401671    -0.679860286460    12.000000000000
         C            1.386642513306    -1.214039298329     0.473527413540    12.000000000000
         C            2.628037313306     1.028485401671    -0.637534286460    12.000000000000
         C            2.765409313306    -1.027524598329     0.622591713540    12.000000000000
         C            3.396384313306     0.059244401671     0.011769713540    12.000000000000
         H           -1.196614686694    -2.403350598329    -0.756881286460     1.007825032230
         H           -3.885857686694     0.847094401671     0.291124713540     1.007825032230
         H           -3.828842686694    -1.754570598329    -0.530540286460     1.007825032230
         H           -2.224797686694     2.355346401671     1.344371713540     1.007825032230
         H           -0.490553686694     1.976438401671     1.247641713540     1.007825032230
         H           -1.317452686694     2.715512401671    -0.143683286460     1.007825032230
         H            0.650080313306     1.642361401671    -1.230805286460     1.007825032230
         H            0.877725313306    -1.965664598329     1.097060713540     1.007825032230
         H            3.113852313306     1.868341401671    -1.129396286460     1.007825032230
         H            3.357532313306    -1.785276598329     1.130853713540     1.007825032230
         H            4.479798313306     0.148051401671     0.037636713540     1.007825032230

  Basis Set: AUG-CC-PVTZ
    Blend: AUG-CC-PVTZ
  Basis Set: (AUG-CC-PVTZ AUX)
    Blend: AUG-CC-PVTZ-JKFIT
	 Reference Energy          =    -477.5388840885854620 [Eh]
	 Singles Energy            =      -0.0000000000000000 [Eh]
	 Same-Spin Energy          =      -0.5396001789067448 [Eh]
	 Opposite-Spin Energy      =      -1.6841907529946978 [Eh]
	 Correlation Energy        =      -2.2237909319014424 [Eh]
	 Total Energy              =    -479.7626750204868813 [Eh]

	 ================> DF-SCS-MP2 Energies <==================
	-----------------------------------------------------------
	 SCS Same-Spin Scale       =       0.3333333333333333 [-]
	 SCS Opposite-Spin Scale   =       1.2000000000000000 [-]
	 SCS Same-Spin Energy      =      -0.1798667263022483 [Eh]
	 SCS Opposite-Spin Energy  =      -2.0210289035936371 [Eh]
	 SCS Correlation Energy    =      -2.2008956298958853 [Eh]
	 SCS Total Energy          =    -479.7397797184813726 [Eh]
	-----------------------------------------------------------

  Dipole Moment: [D]
     X:     0.4430      Y:     1.9320      Z:     0.7211     Total:     2.1093

*** Psi4 exiting successfully. Buy a developer a beer!
