                               Psi4 1.4a2.dev612

  ==> Input File <==

--------------------------------------------------------------------------
#psi4
#
memory 32 gb

molecule  {
0 1
  N       -1.7531090     0.6487580     0.1985890
  C       -0.8584400    -0.3593730    -0.1157050
  C        0.5958890    -0.1944310    -0.0686340
  C       -1.6095070    -1.4830350    -0.4543950
  C       -3.0364380     0.1798280     0.0590890
  C       -2.9750140    -1.1422740    -0.3482900
  C       -1.4212420     1.9838780     0.6691930
  C        1.2419450     0.8845030    -0.6969540
  C        1.3787110    -1.1624060     0.5835710
  C        2.6315710     1.0013490    -0.6546280
  C        2.7689430    -1.0546610     0.6054980
  C        3.3999180     0.0321080    -0.0053240
  H       -1.1930810    -2.4304870    -0.7739750
  H       -3.8823240     0.8199580     0.2740310
  H       -3.8253481    -1.8112424    -0.4520952
  H       -2.2212640     2.3282100     1.3272780
  H       -0.4870200     1.9493020     1.2305480
  H       -1.3139190     2.6883760    -0.1607770
  H        0.6536140     1.6152250    -1.2478990
  H        0.8812590    -1.9928010     1.0799670
  H        3.1173860     1.8412050    -1.1464900
  H        3.3610660    -1.8124130     1.1137600
  H        4.4833320     0.1209150     0.0205430
units angstrom
no_reorient  #important for SAPT in psi4, default
symmetry c1  #important for SAPT in psi4, default
}

set PROPERTIES_ORIGIN ["COM"]
properties('MP2/aug-cc-pvtz', properties = ['dipole'])
--------------------------------------------------------------------------

    Molecular point group: c1
  Charge       = 0
  Multiplicity = 1
  Basis Set: AUG-CC-PVTZ
    Blend: AUG-CC-PVTZ
  Basis Set: (AUG-CC-PVTZ AUX)
    Blend: AUG-CC-PVTZ-JKFIT

    Orbital Energies [Eh]
    ---------------------

    Doubly Occupied:

       1A    -15.607652     2A    -11.270729     3A    -11.256488
       4A    -11.250182     5A    -11.248669     6A    -11.240754
       7A    -11.239618     8A    -11.239302     9A    -11.238029
      10A    -11.237130    11A    -11.208649    12A    -11.207030
      13A     -1.298932    14A     -1.155123    15A     -1.073357
      16A     -1.043963    17A     -1.016232    18A     -0.955958
      19A     -0.933313    20A     -0.833334    21A     -0.830630
      22A     -0.770477    23A     -0.743097    24A     -0.712065
      25A     -0.677908    26A     -0.640134    27A     -0.632064
      28A     -0.622359    29A     -0.596684    30A     -0.587238
      31A     -0.569345    32A     -0.568270    33A     -0.537382
      34A     -0.528087    35A     -0.523416    36A     -0.502240
      37A     -0.494588    38A     -0.492017    39A     -0.353865
      40A     -0.340280    41A     -0.335146    42A     -0.275356

  @DF-RHF Final Energy:  -477.54543560922718

   => Energetics <=

    Nuclear Repulsion Energy =            639.0281313377564629
    One-Electron Energy =               -1913.3729541390764552
    Two-Electron Energy =                 796.7993871920926949
    Total Energy =                       -477.5454356092271837
  Basis Set: (AUG-CC-PVTZ AUX)
    Blend: AUG-CC-PVTZ-RI
    Molecular point group: c1

    Geometry (in Angstrom), charge = 0, multiplicity = 1:

       Center              X                  Y                   Z               Mass
    ------------   -----------------  -----------------  -----------------  -----------------
         N           -1.755766612144     0.670066692448     0.205357786575    14.003074004430
         C           -0.861097612144    -0.338064307552    -0.108936213425    12.000000000000
         C            0.593231387856    -0.173122307552    -0.061865213425    12.000000000000
         C           -1.612164612144    -1.461726307552    -0.447626213425    12.000000000000
         C           -3.039095612144     0.201136692448     0.065857786575    12.000000000000
         C           -2.977671612144    -1.120965307552    -0.341521213425    12.000000000000
         C           -1.423899612144     2.005186692448     0.675961786575    12.000000000000
         C            1.239287387856     0.905811692448    -0.690185213425    12.000000000000
         C            1.376053387856    -1.141097307552     0.590339786575    12.000000000000
         C            2.628913387856     1.022657692448    -0.647859213425    12.000000000000
         C            2.766285387856    -1.033352307552     0.612266786575    12.000000000000
         C            3.397260387856     0.053416692448     0.001444786575    12.000000000000
         H           -1.195738612144    -2.409178307552    -0.767206213425     1.007825032230
         H           -3.884981612144     0.841266692448     0.280799786575     1.007825032230
         H           -3.828005712144    -1.789933707552    -0.445326413425     1.007825032230
         H           -2.223921612144     2.349518692448     1.334046786575     1.007825032230
         H           -0.489677612144     1.970610692448     1.237316786575     1.007825032230
         H           -1.316576612144     2.709684692448    -0.154008213425     1.007825032230
         H            0.650956387856     1.636533692448    -1.241130213425     1.007825032230
         H            0.878601387856    -1.971492307552     1.086735786575     1.007825032230
         H            3.114728387856     1.862513692448    -1.139721213425     1.007825032230
         H            3.358408387856    -1.791104307552     1.120528786575     1.007825032230
         H            4.480674387856     0.142223692448     0.027311786575     1.007825032230

  Basis Set: AUG-CC-PVTZ
    Blend: AUG-CC-PVTZ
  Basis Set: (AUG-CC-PVTZ AUX)
    Blend: AUG-CC-PVTZ-JKFIT
	 Reference Energy          =    -477.5454356092271837 [Eh]
	 Singles Energy            =      -0.0000000000000000 [Eh]
	 Same-Spin Energy          =      -0.5391940810130951 [Eh]
	 Opposite-Spin Energy      =      -1.6832789813438456 [Eh]
	 Correlation Energy        =      -2.2224730623569409 [Eh]
	 Total Energy              =    -479.7679086715841095 [Eh]

	 ================> DF-SCS-MP2 Energies <==================
	-----------------------------------------------------------
	 SCS Same-Spin Scale       =       0.3333333333333333 [-]
	 SCS Opposite-Spin Scale   =       1.2000000000000000 [-]
	 SCS Same-Spin Energy      =      -0.1797313603376983 [Eh]
	 SCS Opposite-Spin Energy  =      -2.0199347776126144 [Eh]
	 SCS Correlation Energy    =      -2.1996661379503126 [Eh]
	 SCS Total Energy          =    -479.7451017471775003 [Eh]
	-----------------------------------------------------------

  Dipole Moment: [D]
     X:     0.4864      Y:     1.8420      Z:     0.7537     Total:     2.0488

*** Psi4 exiting successfully. Buy a developer a beer!
