                               Psi4 1.4a2.dev612

  ==> Input File <==

--------------------------------------------------------------------------
#psi4
#
memory 32 gb

molecule  {
0 1
  N       -1.7531090     0.6487580     0.1985890
  C       -0.8584400    -0.3593730    -0.1157050
  C        0.5958890    -0.1944310    -0.0686340
  C       -1.6104402    -1.4098740    -0.6934485
  C       -3.0364380     0.1798280     0.0590890
  C       -2.9750140    -1.1422740    -0.3482900
  C       -1.4212420     1.9838780     0.6691930
  C        1.2419450     0.8845030    -0.6969540
  C        1.3787110    -1.1624060     0.5835710
  C        2.6315710     1.0013490    -0.6546280
  C        2.7689430    -1.0546610     0.6054980
  C        3.3999180     0.0321080    -0.0053240
  H       -1.1930810    -2.4304870    -0.7739750
  H       -3.8823240     0.8199580     0.2740310
  H       -3.8253090    -1.7817070    -0.5476340
  H       -2.2212640     2.3282100     1.3272780
  H       -0.4870200     1.9493020     1.2305480
  H       -1.3139190     2.6883760    -0.1607770
  H        0.6536140     1.6152250    -1.2478990
  H        0.8812590    -1.9928010     1.0799670
  H        3.1173860     1.8412050    -1.1464900
  H        3.3610660    -1.8124130     1.1137600
  H        4.4833320     0.1209150     0.0205430
units angstrom
no_reorient  #important for SAPT in psi4, default
symmetry c1  #important for SAPT in psi4, default
}

set PROPERTIES_ORIGIN ["COM"]
properties('MP2/aug-cc-pvtz', properties = ['dipole'])
--------------------------------------------------------------------------

    Molecular point group: c1
  Charge       = 0
  Multiplicity = 1
  Basis Set: AUG-CC-PVTZ
    Blend: AUG-CC-PVTZ
  Basis Set: (AUG-CC-PVTZ AUX)
    Blend: AUG-CC-PVTZ-JKFIT

    Orbital Energies [Eh]
    ---------------------

    Doubly Occupied:

       1A    -15.609401     2A    -11.271620     3A    -11.262539
       4A    -11.250846     5A    -11.248059     6A    -11.242017
       7A    -11.241134     8A    -11.240566     9A    -11.239779
      10A    -11.238978    11A    -11.211270    12A    -11.210202
      13A     -1.299203    14A     -1.156431    15A     -1.070021
      16A     -1.044859    17A     -1.017568    18A     -0.955552
      19A     -0.932064    20A     -0.834327    21A     -0.831291
      22A     -0.769256    23A     -0.741982    24A     -0.709927
      25A     -0.678654    26A     -0.641326    27A     -0.631869
      28A     -0.623221    29A     -0.597253    30A     -0.588400
      31A     -0.569821    32A     -0.566402    33A     -0.533591
      34A     -0.528221    35A     -0.515277    36A     -0.503392
      37A     -0.493048    38A     -0.491459    39A     -0.350269
      40A     -0.341195    41A     -0.334021    42A     -0.278409

  @DF-RHF Final Energy:  -477.52903160129085

   => Energetics <=

    Nuclear Repulsion Energy =            638.2587355316863977
    One-Electron Energy =               -1911.7860970764706963
    Two-Electron Energy =                 795.9983299434934452
    Total Energy =                       -477.5290316012908534
  Basis Set: (AUG-CC-PVTZ AUX)
    Blend: AUG-CC-PVTZ-RI
    Molecular point group: c1

    Geometry (in Angstrom), charge = 0, multiplicity = 1:

       Center              X                  Y                   Z               Mass
    ------------   -----------------  -----------------  -----------------  -----------------
         N           -1.755695576085     0.664288454301     0.224231963476    14.003074004430
         C           -0.861026576085    -0.343842545699    -0.090062036524    12.000000000000
         C            0.593302423915    -0.178900545699    -0.042991036524    12.000000000000
         C           -1.613026776085    -1.394343545699    -0.667805536524    12.000000000000
         C           -3.039024576085     0.195358454301     0.084731963476    12.000000000000
         C           -2.977600576085    -1.126743545699    -0.322647036524    12.000000000000
         C           -1.423828576085     1.999408454301     0.694835963476    12.000000000000
         C            1.239358423915     0.900033454301    -0.671311036524    12.000000000000
         C            1.376124423915    -1.146875545699     0.609213963476    12.000000000000
         C            2.628984423915     1.016879454301    -0.628985036524    12.000000000000
         C            2.766356423915    -1.039130545699     0.631140963476    12.000000000000
         C            3.397331423915     0.047638454301     0.020318963476    12.000000000000
         H           -1.195667576085    -2.414956545699    -0.748332036524     1.007825032230
         H           -3.884910576085     0.835488454301     0.299673963476     1.007825032230
         H           -3.827895576085    -1.766176545699    -0.521991036524     1.007825032230
         H           -2.223850576085     2.343740454301     1.352920963476     1.007825032230
         H           -0.489606576085     1.964832454301     1.256190963476     1.007825032230
         H           -1.316505576085     2.703906454301    -0.135134036524     1.007825032230
         H            0.651027423915     1.630755454301    -1.222256036524     1.007825032230
         H            0.878672423915    -1.977270545699     1.105609963476     1.007825032230
         H            3.114799423915     1.856735454301    -1.120847036524     1.007825032230
         H            3.358479423915    -1.796882545699     1.139402963476     1.007825032230
         H            4.480745423915     0.136445454301     0.046185963476     1.007825032230

  Basis Set: AUG-CC-PVTZ
    Blend: AUG-CC-PVTZ
  Basis Set: (AUG-CC-PVTZ AUX)
    Blend: AUG-CC-PVTZ-JKFIT
	 Reference Energy          =    -477.5290316012908534 [Eh]
	 Singles Energy            =      -0.0000000000000000 [Eh]
	 Same-Spin Energy          =      -0.5398605032744584 [Eh]
	 Opposite-Spin Energy      =      -1.6857179403506142 [Eh]
	 Correlation Energy        =      -2.2255784436250727 [Eh]
	 Total Energy              =    -479.7546100449159212 [Eh]

	 ================> DF-SCS-MP2 Energies <==================
	-----------------------------------------------------------
	 SCS Same-Spin Scale       =       0.3333333333333333 [-]
	 SCS Opposite-Spin Scale   =       1.2000000000000000 [-]
	 SCS Same-Spin Energy      =      -0.1799535010914861 [Eh]
	 SCS Opposite-Spin Energy  =      -2.0228615284207367 [Eh]
	 SCS Correlation Energy    =      -2.2028150295122231 [Eh]
	 SCS Total Energy          =    -479.7318466308030906 [Eh]
	-----------------------------------------------------------

  Dipole Moment: [D]
     X:     0.5711      Y:     1.9363      Z:     0.9602     Total:     2.2355

*** Psi4 exiting successfully. Buy a developer a beer!
