                               Psi4 1.4a2.dev612

  ==> Input File <==

--------------------------------------------------------------------------
#psi4
#
memory 32 gb

molecule  {
0 1
  N       -1.7531090     0.6487580     0.1985890
  C       -0.8584400    -0.3593730    -0.1157050
  C        0.5958890    -0.1944310    -0.0686340
  C       -1.6095070    -1.4830350    -0.4543950
  C       -3.0364380     0.1798280     0.0590890
  C       -2.9750140    -1.1422740    -0.3482900
  C       -1.4212420     1.9838780     0.6691930
  C        1.2419450     0.8845030    -0.6969540
  C        1.3787110    -1.1624060     0.5835710
  C        2.6315710     1.0013490    -0.6546280
  C        2.7689430    -1.0546610     0.6054980
  C        3.3999180     0.0321080    -0.0053240
  H       -1.1930810    -2.4304870    -0.7739750
  H       -3.8823240     0.8199580     0.2740310
  H       -3.8254066    -1.8555456    -0.3087871
  H       -2.2212640     2.3282100     1.3272780
  H       -0.4870200     1.9493020     1.2305480
  H       -1.3139190     2.6883760    -0.1607770
  H        0.6536140     1.6152250    -1.2478990
  H        0.8812590    -1.9928010     1.0799670
  H        3.1173860     1.8412050    -1.1464900
  H        3.3610660    -1.8124130     1.1137600
  H        4.4833320     0.1209150     0.0205430
units angstrom
no_reorient  #important for SAPT in psi4, default
symmetry c1  #important for SAPT in psi4, default
}

set PROPERTIES_ORIGIN ["COM"]
properties('MP2/aug-cc-pvtz', properties = ['dipole'])
--------------------------------------------------------------------------

    Molecular point group: c1
  Charge       = 0
  Multiplicity = 1
  Basis Set: AUG-CC-PVTZ
    Blend: AUG-CC-PVTZ
  Basis Set: (AUG-CC-PVTZ AUX)
    Blend: AUG-CC-PVTZ-JKFIT

    Orbital Energies [Eh]
    ---------------------

    Doubly Occupied:

       1A    -15.608116     2A    -11.271025     3A    -11.256698
       4A    -11.250310     5A    -11.249421     6A    -11.240905
       7A    -11.239796     8A    -11.239466     9A    -11.238233
      10A    -11.237348    11A    -11.210363    12A    -11.207344
      13A     -1.299353    14A     -1.155303    15A     -1.073428
      16A     -1.044102    17A     -1.016404    18A     -0.956038
      19A     -0.933131    20A     -0.833443    21A     -0.830734
      22A     -0.769105    23A     -0.743181    24A     -0.711026
      25A     -0.677862    26A     -0.640543    27A     -0.632273
      28A     -0.622234    29A     -0.596239    30A     -0.587423
      31A     -0.568653    32A     -0.567479    33A     -0.536058
      34A     -0.529542    35A     -0.521550    36A     -0.502392
      37A     -0.493988    38A     -0.492266    39A     -0.353887
      40A     -0.340366    41A     -0.334778    42A     -0.275860

  @DF-RHF Final Energy:  -477.54220240949007

   => Energetics <=

    Nuclear Repulsion Energy =            638.9414935423376392
    One-Electron Energy =               -1913.1920560498620034
    Two-Electron Energy =                 796.7083600980342908
    Total Energy =                       -477.5422024094900735
  Basis Set: (AUG-CC-PVTZ AUX)
    Blend: AUG-CC-PVTZ-RI
    Molecular point group: c1

    Geometry (in Angstrom), charge = 0, multiplicity = 1:

       Center              X                  Y                   Z               Mass
    ------------   -----------------  -----------------  -----------------  -----------------
         N           -1.755766236830     0.670350925154     0.204438375584    14.003074004430
         C           -0.861097236830    -0.337780074846    -0.109855624416    12.000000000000
         C            0.593231763170    -0.172838074846    -0.062784624416    12.000000000000
         C           -1.612164236830    -1.461442074846    -0.448545624416    12.000000000000
         C           -3.039095236830     0.201420925154     0.064938375584    12.000000000000
         C           -2.977671236830    -1.120681074846    -0.342440624416    12.000000000000
         C           -1.423899236830     2.005470925154     0.675042375584    12.000000000000
         C            1.239287763170     0.906095925154    -0.691104624416    12.000000000000
         C            1.376053763170    -1.140813074846     0.589420375584    12.000000000000
         C            2.628913763170     1.022941925154    -0.648778624416    12.000000000000
         C            2.766285763170    -1.033068074846     0.611347375584    12.000000000000
         C            3.397260763170     0.053700925154     0.000525375584    12.000000000000
         H           -1.195738236830    -2.408894074846    -0.768125624416     1.007825032230
         H           -3.884981236830     0.841550925154     0.279880375584     1.007825032230
         H           -3.828063836830    -1.833952674846    -0.302937724416     1.007825032230
         H           -2.223921236830     2.349802925154     1.333127375584     1.007825032230
         H           -0.489677236830     1.970894925154     1.236397375584     1.007825032230
         H           -1.316576236830     2.709968925154    -0.154927624416     1.007825032230
         H            0.650956763170     1.636817925154    -1.242049624416     1.007825032230
         H            0.878601763170    -1.971208074846     1.085816375584     1.007825032230
         H            3.114728763170     1.862797925154    -1.140640624416     1.007825032230
         H            3.358408763170    -1.790820074846     1.119609375584     1.007825032230
         H            4.480674763170     0.142507925154     0.026392375584     1.007825032230

  Basis Set: AUG-CC-PVTZ
    Blend: AUG-CC-PVTZ
  Basis Set: (AUG-CC-PVTZ AUX)
    Blend: AUG-CC-PVTZ-JKFIT
	 Reference Energy          =    -477.5422024094900735 [Eh]
	 Singles Energy            =      -0.0000000000000000 [Eh]
	 Same-Spin Energy          =      -0.5393347786508456 [Eh]
	 Opposite-Spin Energy      =      -1.6836647343202003 [Eh]
	 Correlation Energy        =      -2.2229995129710458 [Eh]
	 Total Energy              =    -479.7652019224611308 [Eh]

	 ================> DF-SCS-MP2 Energies <==================
	-----------------------------------------------------------
	 SCS Same-Spin Scale       =       0.3333333333333333 [-]
	 SCS Opposite-Spin Scale   =       1.2000000000000000 [-]
	 SCS Same-Spin Energy      =      -0.1797782595502818 [Eh]
	 SCS Opposite-Spin Energy  =      -2.0203976811842401 [Eh]
	 SCS Correlation Energy    =      -2.2001759407345221 [Eh]
	 SCS Total Energy          =    -479.7423783502246124 [Eh]
	-----------------------------------------------------------

  Dipole Moment: [D]
     X:     0.5454      Y:     1.8410      Z:     0.8733     Total:     2.1093

*** Psi4 exiting successfully. Buy a developer a beer!
