                               Psi4 1.4a2.dev612

  ==> Input File <==

--------------------------------------------------------------------------
#psi4
#
memory 32 gb

molecule  {
0 1
  N       -1.7531090     0.6487580     0.1985890
  C       -0.8584400    -0.3593730    -0.1157050
  C        0.5958890    -0.1944310    -0.0686340
  C       -1.6095070    -1.4830350    -0.4543950
  C       -3.0364380     0.1798280     0.0590890
  C       -2.9750140    -1.1422740    -0.3482900
  C       -1.4212420     1.9838780     0.6691930
  C        1.2419450     0.8845030    -0.6969540
  C        1.3787110    -1.1624060     0.5835710
  C        2.6315710     1.0013490    -0.6546280
  C        2.7689430    -1.0546610     0.6054980
  C        3.3999180     0.0321080    -0.0053240
  H       -1.1930810    -2.4304870    -0.7739750
  H       -3.8823240     0.8199580     0.2740310
  H       -3.8253285    -1.7964747    -0.4998646
  H       -2.2212640     2.3282100     1.3272780
  H       -0.4870200     1.9493020     1.2305480
  H       -1.3139190     2.6883760    -0.1607770
  H        0.6536140     1.6152250    -1.2478990
  H        0.8812590    -1.9928010     1.0799670
  H        3.1173860     1.8412050    -1.1464900
  H        3.3610660    -1.8124130     1.1137600
  H        4.4833320     0.1209150     0.0205430
units angstrom
no_reorient  #important for SAPT in psi4, default
symmetry c1  #important for SAPT in psi4, default
}

set PROPERTIES_ORIGIN ["COM"]
properties('MP2/aug-cc-pvtz', properties = ['dipole'])
--------------------------------------------------------------------------

    Molecular point group: c1
  Charge       = 0
  Multiplicity = 1
  Basis Set: AUG-CC-PVTZ
    Blend: AUG-CC-PVTZ
  Basis Set: (AUG-CC-PVTZ AUX)
    Blend: AUG-CC-PVTZ-JKFIT

    Orbital Energies [Eh]
    ---------------------

    Doubly Occupied:

       1A    -15.607602     2A    -11.270686     3A    -11.256466
       4A    -11.250168     5A    -11.248572     6A    -11.240729
       7A    -11.239585     8A    -11.239273     9A    -11.237985
      10A    -11.237083    11A    -11.208432    12A    -11.206979
      13A     -1.298884    14A     -1.155091    15A     -1.073358
      16A     -1.043942    17A     -1.016199    18A     -0.955952
      19A     -0.933349    20A     -0.833316    21A     -0.830612
      22A     -0.770697    23A     -0.743089    24A     -0.712224
      25A     -0.677906    26A     -0.640053    27A     -0.632043
      28A     -0.622427    29A     -0.596735    30A     -0.587201
      31A     -0.569609    32A     -0.568251    33A     -0.537761
      34A     -0.527612    35A     -0.523702    36A     -0.502212
      37A     -0.494745    38A     -0.491906    39A     -0.353901
      40A     -0.340273    41A     -0.335238    42A     -0.275236

  @DF-RHF Final Energy:  -477.54585418691528

   => Energetics <=

    Nuclear Repulsion Energy =            639.0405983668538283
    One-Electron Energy =               -1913.3987427869351450
    Two-Electron Energy =                 796.8122902331660953
    Total Energy =                       -477.5458541869152214
  Basis Set: (AUG-CC-PVTZ AUX)
    Blend: AUG-CC-PVTZ-RI
    Molecular point group: c1

    Geometry (in Angstrom), charge = 0, multiplicity = 1:

       Center              X                  Y                   Z               Mass
    ------------   -----------------  -----------------  -----------------  -----------------
         N           -1.755766737890     0.669971948427     0.205664257119    14.003074004430
         C           -0.861097737890    -0.338159051573    -0.108629742881    12.000000000000
         C            0.593231262110    -0.173217051573    -0.061558742881    12.000000000000
         C           -1.612164737890    -1.461821051573    -0.447319742881    12.000000000000
         C           -3.039095737890     0.201041948427     0.066164257119    12.000000000000
         C           -2.977671737890    -1.121060051573    -0.341214742881    12.000000000000
         C           -1.423899737890     2.005091948427     0.676268257119    12.000000000000
         C            1.239287262110     0.905716948427    -0.689878742881    12.000000000000
         C            1.376053262110    -1.141192051573     0.590646257119    12.000000000000
         C            2.628913262110     1.022562948427    -0.647552742881    12.000000000000
         C            2.766285262110    -1.033447051573     0.612573257119    12.000000000000
         C            3.397260262110     0.053321948427     0.001751257119    12.000000000000
         H           -1.195738737890    -2.409273051573    -0.766899742881     1.007825032230
         H           -3.884981737890     0.841171948427     0.281106257119     1.007825032230
         H           -3.827986237890    -1.775260751573    -0.492789342881     1.007825032230
         H           -2.223921737890     2.349423948427     1.334353257119     1.007825032230
         H           -0.489677737890     1.970515948427     1.237623257119     1.007825032230
         H           -1.316576737890     2.709589948427    -0.153701742881     1.007825032230
         H            0.650956262110     1.636438948427    -1.240823742881     1.007825032230
         H            0.878601262110    -1.971587051573     1.087042257119     1.007825032230
         H            3.114728262110     1.862418948427    -1.139414742881     1.007825032230
         H            3.358408262110    -1.791199051573     1.120835257119     1.007825032230
         H            4.480674262110     0.142128948427     0.027618257119     1.007825032230

  Basis Set: AUG-CC-PVTZ
    Blend: AUG-CC-PVTZ
  Basis Set: (AUG-CC-PVTZ AUX)
    Blend: AUG-CC-PVTZ-JKFIT
	 Reference Energy          =    -477.5458541869152782 [Eh]
	 Singles Energy            =      -0.0000000000000000 [Eh]
	 Same-Spin Energy          =      -0.5391761031015800 [Eh]
	 Opposite-Spin Energy      =      -1.6832316329545116 [Eh]
	 Correlation Energy        =      -2.2224077360560917 [Eh]
	 Total Energy              =    -479.7682619229713623 [Eh]

	 ================> DF-SCS-MP2 Energies <==================
	-----------------------------------------------------------
	 SCS Same-Spin Scale       =       0.3333333333333333 [-]
	 SCS Opposite-Spin Scale   =       1.2000000000000000 [-]
	 SCS Same-Spin Energy      =      -0.1797253677005267 [Eh]
	 SCS Opposite-Spin Energy  =      -2.0198779595454139 [Eh]
	 SCS Correlation Energy    =      -2.1996033272459408 [Eh]
	 SCS Total Energy          =    -479.7454575141612167 [Eh]
	-----------------------------------------------------------

  Dipole Moment: [D]
     X:     0.4758      Y:     1.8488      Z:     0.7148     Total:     2.0385

*** Psi4 exiting successfully. Buy a developer a beer!
