                               Psi4 1.4a2.dev612

  ==> Input File <==

--------------------------------------------------------------------------
#psi4
#
memory 32 gb

molecule  {
0 1
  N       -1.7531090     0.6487580     0.1985890
  C       -0.8584400    -0.3593730    -0.1157050
  C        0.5958890    -0.1944310    -0.0686340
  C       -1.6095070    -1.4830350    -0.4543950
  C       -3.0364380     0.1798280     0.0590890
  C       -2.9750140    -1.1422740    -0.3482900
  C       -1.4212420     1.9838780     0.6691930
  C        1.2419450     0.8845030    -0.6969540
  C        1.3978197    -1.2936888     0.3716756
  C        2.6315710     1.0013490    -0.6546280
  C        2.7689430    -1.0546610     0.6054980
  C        3.3999180     0.0321080    -0.0053240
  H       -1.1930810    -2.4304870    -0.7739750
  H       -3.8823240     0.8199580     0.2740310
  H       -3.8253090    -1.7817070    -0.5476340
  H       -2.2212640     2.3282100     1.3272780
  H       -0.4870200     1.9493020     1.2305480
  H       -1.3139190     2.6883760    -0.1607770
  H        0.6536140     1.6152250    -1.2478990
  H        0.8812590    -1.9928010     1.0799670
  H        3.1173860     1.8412050    -1.1464900
  H        3.3610660    -1.8124130     1.1137600
  H        4.4833320     0.1209150     0.0205430
units angstrom
no_reorient  #important for SAPT in psi4, default
symmetry c1  #important for SAPT in psi4, default
}

set PROPERTIES_ORIGIN ["COM"]
properties('MP2/aug-cc-pvtz', properties = ['dipole'])
--------------------------------------------------------------------------

    Molecular point group: c1
  Charge       = 0
  Multiplicity = 1
  Basis Set: AUG-CC-PVTZ
    Blend: AUG-CC-PVTZ
  Basis Set: (AUG-CC-PVTZ AUX)
    Blend: AUG-CC-PVTZ-JKFIT

    Orbital Energies [Eh]
    ---------------------

    Doubly Occupied:

       1A    -15.608180     2A    -11.271315     3A    -11.257062
       4A    -11.255633     5A    -11.249337     6A    -11.243920
       7A    -11.243219     8A    -11.241540     9A    -11.238629
      10A    -11.236798    11A    -11.208920    12A    -11.207477
      13A     -1.299518    14A     -1.152918    15A     -1.073963
      16A     -1.043424    17A     -1.013856    18A     -0.955427
      19A     -0.933918    20A     -0.831767    21A     -0.828430
      22A     -0.770780    23A     -0.741983    24A     -0.711765
      25A     -0.674737    26A     -0.638596    27A     -0.631316
      28A     -0.621034    29A     -0.593395    30A     -0.583552
      31A     -0.569726    32A     -0.568164    33A     -0.538568
      34A     -0.527693    35A     -0.523040    36A     -0.498864
      37A     -0.497054    38A     -0.483357    39A     -0.356552
      40A     -0.340448    41A     -0.335661    42A     -0.271587

  @DF-RHF Final Energy:  -477.52609538929670

   => Energetics <=

    Nuclear Repulsion Energy =            638.2350715385413196
    One-Electron Energy =               -1911.7760910768092799
    Two-Electron Energy =                 796.0149241489712040
    Total Energy =                       -477.5260953892966427
  Basis Set: (AUG-CC-PVTZ AUX)
    Blend: AUG-CC-PVTZ-RI
    Molecular point group: c1

    Geometry (in Angstrom), charge = 0, multiplicity = 1:

       Center              X                  Y                   Z               Mass
    ------------   -----------------  -----------------  -----------------  -----------------
         N           -1.757226571707     0.679905863969     0.222157363153    14.003074004430
         C           -0.862557571707    -0.328225136031    -0.092136636847    12.000000000000
         C            0.591771428293    -0.163283136031    -0.045065636847    12.000000000000
         C           -1.613624571707    -1.451887136031    -0.430826636847    12.000000000000
         C           -3.040555571707     0.210975863969     0.082657363153    12.000000000000
         C           -2.979131571707    -1.111126136031    -0.324721636847    12.000000000000
         C           -1.425359571707     2.015025863969     0.692761363153    12.000000000000
         C            1.237827428293     0.915650863969    -0.673385636847    12.000000000000
         C            1.393702128293    -1.262540936031     0.395243963153    12.000000000000
         C            2.627453428293     1.032496863969    -0.631059636847    12.000000000000
         C            2.764825428293    -1.023513136031     0.629066363153    12.000000000000
         C            3.395800428293     0.063255863969     0.018244363153    12.000000000000
         H           -1.197198571707    -2.399339136031    -0.750406636847     1.007825032230
         H           -3.886441571707     0.851105863969     0.297599363153     1.007825032230
         H           -3.829426571707    -1.750559136031    -0.524065636847     1.007825032230
         H           -2.225381571707     2.359357863969     1.350846363153     1.007825032230
         H           -0.491137571707     1.980449863969     1.254116363153     1.007825032230
         H           -1.318036571707     2.719523863969    -0.137208636847     1.007825032230
         H            0.649496428293     1.646372863969    -1.224330636847     1.007825032230
         H            0.877141428293    -1.961653136031     1.103535363153     1.007825032230
         H            3.113268428293     1.872352863969    -1.122921636847     1.007825032230
         H            3.356948428293    -1.781265136031     1.137328363153     1.007825032230
         H            4.479214428293     0.152062863969     0.044111363153     1.007825032230

  Basis Set: AUG-CC-PVTZ
    Blend: AUG-CC-PVTZ
  Basis Set: (AUG-CC-PVTZ AUX)
    Blend: AUG-CC-PVTZ-JKFIT
	 Reference Energy          =    -477.5260953892966995 [Eh]
	 Singles Energy            =      -0.0000000000000000 [Eh]
	 Same-Spin Energy          =      -0.5402685913500018 [Eh]
	 Opposite-Spin Energy      =      -1.6860608162963695 [Eh]
	 Correlation Energy        =      -2.2263294076463715 [Eh]
	 Total Energy              =    -479.7524247969430462 [Eh]

	 ================> DF-SCS-MP2 Energies <==================
	-----------------------------------------------------------
	 SCS Same-Spin Scale       =       0.3333333333333333 [-]
	 SCS Opposite-Spin Scale   =       1.2000000000000000 [-]
	 SCS Same-Spin Energy      =      -0.1800895304500006 [Eh]
	 SCS Opposite-Spin Energy  =      -2.0232729795556432 [Eh]
	 SCS Correlation Energy    =      -2.2033625100056438 [Eh]
	 SCS Total Energy          =    -479.7294578993023606 [Eh]
	-----------------------------------------------------------

  Dipole Moment: [D]
     X:     0.4313      Y:     2.0204      Z:     0.7313     Total:     2.1915

*** Psi4 exiting successfully. Buy a developer a beer!
