                               Psi4 1.4a2.dev612

  ==> Input File <==

--------------------------------------------------------------------------
#psi4
#
memory 32 gb

molecule  {
0 1
  N       -1.7531090     0.6487580     0.1985890
  C       -0.8584400    -0.3593730    -0.1157050
  C        0.5958890    -0.1944310    -0.0686340
  C       -1.6095070    -1.4830350    -0.4543950
  C       -3.0364380     0.1798280     0.0590890
  C       -2.9750140    -1.1422740    -0.3482900
  C       -1.4212420     1.9838780     0.6691930
  C        1.2419450     0.8845030    -0.6969540
  C        1.3787110    -1.1624060     0.5835710
  C        2.6315710     1.0013490    -0.6546280
  C        2.7689430    -1.0546610     0.6054980
  C        3.3999180     0.0321080    -0.0053240
  H       -1.1919144    -2.4760922    -0.6310806
  H       -3.8823240     0.8199580     0.2740310
  H       -3.8253090    -1.7817070    -0.5476340
  H       -2.2212640     2.3282100     1.3272780
  H       -0.4870200     1.9493020     1.2305480
  H       -1.3139190     2.6883760    -0.1607770
  H        0.6536140     1.6152250    -1.2478990
  H        0.8812590    -1.9928010     1.0799670
  H        3.1173860     1.8412050    -1.1464900
  H        3.3610660    -1.8124130     1.1137600
  H        4.4833320     0.1209150     0.0205430
units angstrom
no_reorient  #important for SAPT in psi4, default
symmetry c1  #important for SAPT in psi4, default
}

set PROPERTIES_ORIGIN ["COM"]
properties('MP2/aug-cc-pvtz', properties = ['dipole'])
--------------------------------------------------------------------------

    Molecular point group: c1
  Charge       = 0
  Multiplicity = 1
  Basis Set: AUG-CC-PVTZ
    Blend: AUG-CC-PVTZ
  Basis Set: (AUG-CC-PVTZ AUX)
    Blend: AUG-CC-PVTZ-JKFIT

    Orbital Energies [Eh]
    ---------------------

    Doubly Occupied:

       1A    -15.607794     2A    -11.270801     3A    -11.256747
       4A    -11.250362     5A    -11.248671     6A    -11.240771
       7A    -11.239644     8A    -11.239325     9A    -11.237981
      10A    -11.237236    11A    -11.208728    12A    -11.207625
      13A     -1.299051    14A     -1.155156    15A     -1.073422
      16A     -1.044042    17A     -1.016278    18A     -0.956009
      19A     -0.933294    20A     -0.833371    21A     -0.830781
      22A     -0.770317    23A     -0.743016    24A     -0.712024
      25A     -0.677903    26A     -0.639687    27A     -0.632464
      28A     -0.622642    29A     -0.596631    30A     -0.587316
      31A     -0.569581    32A     -0.568440    33A     -0.537521
      34A     -0.527630    35A     -0.523279    36A     -0.502378
      37A     -0.494992    38A     -0.491511    39A     -0.354115
      40A     -0.340230    41A     -0.335361    42A     -0.275088

  @DF-RHF Final Energy:  -477.54484273661200

   => Energetics <=

    Nuclear Repulsion Energy =            639.0228026682135578
    One-Electron Energy =               -1913.3568621831300334
    Two-Electron Energy =                 796.7892167783046489
    Total Energy =                       -477.5448427366119404
  Basis Set: (AUG-CC-PVTZ AUX)
    Blend: AUG-CC-PVTZ-RI
    Molecular point group: c1

    Geometry (in Angstrom), charge = 0, multiplicity = 1:

       Center              X                  Y                   Z               Mass
    ------------   -----------------  -----------------  -----------------  -----------------
         N           -1.755774347462     0.670169790255     0.205053970816    14.003074004430
         C           -0.861105347462    -0.337961209745    -0.109240029184    12.000000000000
         C            0.593223652538    -0.173019209745    -0.062169029184    12.000000000000
         C           -1.612172347462    -1.461623209745    -0.447930029184    12.000000000000
         C           -3.039103347462     0.201239790255     0.065553970816    12.000000000000
         C           -2.977679347462    -1.120862209745    -0.341825029184    12.000000000000
         C           -1.423907347462     2.005289790255     0.675657970816    12.000000000000
         C            1.239279652538     0.905914790255    -0.690489029184    12.000000000000
         C            1.376045652538    -1.140994209745     0.590035970816    12.000000000000
         C            2.628905652538     1.022760790255    -0.648163029184    12.000000000000
         C            2.766277652538    -1.033249209745     0.611962970816    12.000000000000
         C            3.397252652538     0.053519790255     0.001140970816    12.000000000000
         H           -1.194579747462    -2.454680409745    -0.624615629184     1.007825032230
         H           -3.884989347462     0.841369790255     0.280495970816     1.007825032230
         H           -3.827974347462    -1.760295209745    -0.541169029184     1.007825032230
         H           -2.223929347462     2.349621790255     1.333742970816     1.007825032230
         H           -0.489685347462     1.970713790255     1.237012970816     1.007825032230
         H           -1.316584347462     2.709787790255    -0.154312029184     1.007825032230
         H            0.650948652538     1.636636790255    -1.241434029184     1.007825032230
         H            0.878593652538    -1.971389209745     1.086431970816     1.007825032230
         H            3.114720652538     1.862616790255    -1.140025029184     1.007825032230
         H            3.358400652538    -1.791001209745     1.120224970816     1.007825032230
         H            4.480666652538     0.142326790255     0.027007970816     1.007825032230

  Basis Set: AUG-CC-PVTZ
    Blend: AUG-CC-PVTZ
  Basis Set: (AUG-CC-PVTZ AUX)
    Blend: AUG-CC-PVTZ-JKFIT
	 Reference Energy          =    -477.5448427366119972 [Eh]
	 Singles Energy            =      -0.0000000000000000 [Eh]
	 Same-Spin Energy          =      -0.5392239595136916 [Eh]
	 Opposite-Spin Energy      =      -1.6833894024245963 [Eh]
	 Correlation Energy        =      -2.2226133619382882 [Eh]
	 Total Energy              =    -479.7674560985502694 [Eh]

	 ================> DF-SCS-MP2 Energies <==================
	-----------------------------------------------------------
	 SCS Same-Spin Scale       =       0.3333333333333333 [-]
	 SCS Opposite-Spin Scale   =       1.2000000000000000 [-]
	 SCS Same-Spin Energy      =      -0.1797413198378972 [Eh]
	 SCS Opposite-Spin Energy  =      -2.0200672829095154 [Eh]
	 SCS Correlation Energy    =      -2.1998086027474129 [Eh]
	 SCS Total Energy          =    -479.7446513393593932 [Eh]
	-----------------------------------------------------------

  Dipole Moment: [D]
     X:     0.4636      Y:     1.8406      Z:     0.7877     Total:     2.0550

*** Psi4 exiting successfully. Buy a developer a beer!
