                               Psi4 1.4a2.dev612

  ==> Input File <==

--------------------------------------------------------------------------
#psi4
#
memory 32 gb

molecule  {
0 1
  N       -1.7531090     0.6487580     0.1985890
  C       -0.8584400    -0.3593730    -0.1157050
  C        0.5958890    -0.1944310    -0.0686340
  C       -1.6102535    -1.4245062    -0.6456378
  C       -3.0364380     0.1798280     0.0590890
  C       -2.9750140    -1.1422740    -0.3482900
  C       -1.4212420     1.9838780     0.6691930
  C        1.2419450     0.8845030    -0.6969540
  C        1.3787110    -1.1624060     0.5835710
  C        2.6315710     1.0013490    -0.6546280
  C        2.7689430    -1.0546610     0.6054980
  C        3.3999180     0.0321080    -0.0053240
  H       -1.1930810    -2.4304870    -0.7739750
  H       -3.8823240     0.8199580     0.2740310
  H       -3.8253090    -1.7817070    -0.5476340
  H       -2.2212640     2.3282100     1.3272780
  H       -0.4870200     1.9493020     1.2305480
  H       -1.3139190     2.6883760    -0.1607770
  H        0.6536140     1.6152250    -1.2478990
  H        0.8812590    -1.9928010     1.0799670
  H        3.1173860     1.8412050    -1.1464900
  H        3.3610660    -1.8124130     1.1137600
  H        4.4833320     0.1209150     0.0205430
units angstrom
no_reorient  #important for SAPT in psi4, default
symmetry c1  #important for SAPT in psi4, default
}

set PROPERTIES_ORIGIN ["COM"]
properties('MP2/aug-cc-pvtz', properties = ['dipole'])
--------------------------------------------------------------------------

    Molecular point group: c1
  Charge       = 0
  Multiplicity = 1
  Basis Set: AUG-CC-PVTZ
    Blend: AUG-CC-PVTZ
  Basis Set: (AUG-CC-PVTZ AUX)
    Blend: AUG-CC-PVTZ-JKFIT

    Orbital Energies [Eh]
    ---------------------

    Doubly Occupied:

       1A    -15.608629     2A    -11.271227     3A    -11.260194
       4A    -11.250547     5A    -11.248066     6A    -11.241585
       7A    -11.240651     8A    -11.240164     9A    -11.239262
      10A    -11.238451    11A    -11.210031    12A    -11.209002
      13A     -1.298945    14A     -1.155995    15A     -1.071115
      16A     -1.044518    17A     -1.017150    18A     -0.955646
      19A     -0.932481    20A     -0.833995    21A     -0.831024
      22A     -0.769810    23A     -0.742324    24A     -0.710714
      25A     -0.678461    26A     -0.640842    27A     -0.631856
      28A     -0.622948    29A     -0.597078    30A     -0.588012
      31A     -0.569533    32A     -0.567411    33A     -0.534902
      34A     -0.528177    35A     -0.518322    36A     -0.503029
      37A     -0.493696    38A     -0.491700    39A     -0.350927
      40A     -0.340888    41A     -0.334315    42A     -0.277699

  @DF-RHF Final Energy:  -477.53523337699096

   => Energetics <=

    Nuclear Repulsion Energy =            638.5267622396396519
    One-Electron Energy =               -1912.3413454324092982
    Two-Electron Energy =                 796.2793498157785734
    Total Energy =                       -477.5352333769909592
  Basis Set: (AUG-CC-PVTZ AUX)
    Blend: AUG-CC-PVTZ-RI
    Molecular point group: c1

    Geometry (in Angstrom), charge = 0, multiplicity = 1:

       Center              X                  Y                   Z               Mass
    ------------   -----------------  -----------------  -----------------  -----------------
         N           -1.755709838050     0.665406204322     0.220579716313    14.003074004430
         C           -0.861040838050    -0.342724795678    -0.093714283687    12.000000000000
         C            0.593288161950    -0.177782795678    -0.046643283687    12.000000000000
         C           -1.612854338050    -1.407857995678    -0.623647083687    12.000000000000
         C           -3.039038838050     0.196476204322     0.081079716313    12.000000000000
         C           -2.977614838050    -1.125625795678    -0.326299283687    12.000000000000
         C           -1.423842838050     2.000526204322     0.691183716313    12.000000000000
         C            1.239344161950     0.901151204322    -0.674963283687    12.000000000000
         C            1.376110161950    -1.145757795678     0.605561716313    12.000000000000
         C            2.628970161950     1.017997204322    -0.632637283687    12.000000000000
         C            2.766342161950    -1.038012795678     0.627488716313    12.000000000000
         C            3.397317161950     0.048756204322     0.016666716313    12.000000000000
         H           -1.195681838050    -2.413838795678    -0.751984283687     1.007825032230
         H           -3.884924838050     0.836606204322     0.296021716313     1.007825032230
         H           -3.827909838050    -1.765058795678    -0.525643283687     1.007825032230
         H           -2.223864838050     2.344858204322     1.349268716313     1.007825032230
         H           -0.489620838050     1.965950204322     1.252538716313     1.007825032230
         H           -1.316519838050     2.705024204322    -0.138786283687     1.007825032230
         H            0.651013161950     1.631873204322    -1.225908283687     1.007825032230
         H            0.878658161950    -1.976152795678     1.101957716313     1.007825032230
         H            3.114785161950     1.857853204322    -1.124499283687     1.007825032230
         H            3.358465161950    -1.795764795678     1.135750716313     1.007825032230
         H            4.480731161950     0.137563204322     0.042533716313     1.007825032230

  Basis Set: AUG-CC-PVTZ
    Blend: AUG-CC-PVTZ
  Basis Set: (AUG-CC-PVTZ AUX)
    Blend: AUG-CC-PVTZ-JKFIT
	 Reference Energy          =    -477.5352333769909592 [Eh]
	 Singles Energy            =      -0.0000000000000000 [Eh]
	 Same-Spin Energy          =      -0.5395870164497878 [Eh]
	 Opposite-Spin Energy      =      -1.6847742903574314 [Eh]
	 Correlation Energy        =      -2.2243613068072192 [Eh]
	 Total Energy              =    -479.7595946837981842 [Eh]

	 ================> DF-SCS-MP2 Energies <==================
	-----------------------------------------------------------
	 SCS Same-Spin Scale       =       0.3333333333333333 [-]
	 SCS Opposite-Spin Scale   =       1.2000000000000000 [-]
	 SCS Same-Spin Energy      =      -0.1798623388165959 [Eh]
	 SCS Opposite-Spin Energy  =      -2.0217291484289177 [Eh]
	 SCS Correlation Energy    =      -2.2015914872455138 [Eh]
	 SCS Total Energy          =    -479.7368248642364961 [Eh]
	-----------------------------------------------------------

  Dipole Moment: [D]
     X:     0.5547      Y:     1.8973      Z:     0.8936     Total:     2.1693

*** Psi4 exiting successfully. Buy a developer a beer!
