                               Psi4 1.4a2.dev612

  ==> Input File <==

--------------------------------------------------------------------------
#psi4
#
memory 32 gb

molecule  {
0 1
  N       -1.7531090     0.6487580     0.1985890
  C       -0.8584400    -0.3593730    -0.1157050
  C        0.5958890    -0.1944310    -0.0686340
  C       -1.6095070    -1.4830350    -0.4543950
  C       -3.0364380     0.1798280     0.0590890
  C       -2.9750140    -1.1422740    -0.3482900
  C       -1.4212420     1.9838780     0.6691930
  C        1.2419450     0.8845030    -0.6969540
  C        1.3787110    -1.1624060     0.5835710
  C        2.6315710     1.0013490    -0.6546280
  C        2.7689430    -1.0546610     0.6054980
  C        3.3999180     0.0321080    -0.0053240
  H       -1.1930810    -2.4304870    -0.7739750
  H       -3.8842930     0.8795893     0.0831377
  H       -3.8253090    -1.7817070    -0.5476340
  H       -2.2212640     2.3282100     1.3272780
  H       -0.4870200     1.9493020     1.2305480
  H       -1.3139190     2.6883760    -0.1607770
  H        0.6536140     1.6152250    -1.2478990
  H        0.8812590    -1.9928010     1.0799670
  H        3.1173860     1.8412050    -1.1464900
  H        3.3610660    -1.8124130     1.1137600
  H        4.4833320     0.1209150     0.0205430
units angstrom
no_reorient  #important for SAPT in psi4, default
symmetry c1  #important for SAPT in psi4, default
}

set PROPERTIES_ORIGIN ["COM"]
properties('MP2/aug-cc-pvtz', properties = ['dipole'])
--------------------------------------------------------------------------

    Molecular point group: c1
  Charge       = 0
  Multiplicity = 1
  Basis Set: AUG-CC-PVTZ
    Blend: AUG-CC-PVTZ
  Basis Set: (AUG-CC-PVTZ AUX)
    Blend: AUG-CC-PVTZ-JKFIT

    Orbital Energies [Eh]
    ---------------------

    Doubly Occupied:

       1A    -15.607220     2A    -11.270292     3A    -11.256908
       4A    -11.250273     5A    -11.249305     6A    -11.241051
       7A    -11.239942     8A    -11.239555     9A    -11.238375
      10A    -11.237389    11A    -11.208744    12A    -11.207060
      13A     -1.298675    14A     -1.155367    15A     -1.073359
      16A     -1.044045    17A     -1.016491    18A     -0.955356
      19A     -0.933216    20A     -0.833084    21A     -0.830845
      22A     -0.770041    23A     -0.742409    24A     -0.712079
      25A     -0.676977    26A     -0.641584    27A     -0.630074
      28A     -0.621754    29A     -0.596776    30A     -0.587525
      31A     -0.569524    32A     -0.567746    33A     -0.536420
      34A     -0.527100    35A     -0.524562    36A     -0.501614
      37A     -0.494875    38A     -0.492049    39A     -0.353347
      40A     -0.340484    41A     -0.335329    42A     -0.275799

  @DF-RHF Final Energy:  -477.54389483569707

   => Energetics <=

    Nuclear Repulsion Energy =            638.9720677702474632
    One-Electron Energy =               -1913.2626917532866173
    Two-Electron Energy =                 796.7467291473419664
    Total Energy =                       -477.5438948356970741
  Basis Set: (AUG-CC-PVTZ AUX)
    Blend: AUG-CC-PVTZ-RI
    Molecular point group: c1

    Geometry (in Angstrom), charge = 0, multiplicity = 1:

       Center              X                  Y                   Z               Mass
    ------------   -----------------  -----------------  -----------------  -----------------
         N           -1.755754230629     0.669494632362     0.207195427441    14.003074004430
         C           -0.861085230629    -0.338636367638    -0.107098572559    12.000000000000
         C            0.593243769371    -0.173694367638    -0.060027572559    12.000000000000
         C           -1.612152230629    -1.462298367638    -0.445788572559    12.000000000000
         C           -3.039083230629     0.200564632362     0.067695427441    12.000000000000
         C           -2.977659230629    -1.121537367638    -0.339683572559    12.000000000000
         C           -1.423887230629     2.004614632362     0.677799427441    12.000000000000
         C            1.239299769371     0.905239632362    -0.688347572559    12.000000000000
         C            1.376065769371    -1.141669367638     0.592177427441    12.000000000000
         C            2.628925769371     1.022085632362    -0.646021572559    12.000000000000
         C            2.766297769371    -1.033924367638     0.614104427441    12.000000000000
         C            3.397272769371     0.052844632362     0.003282427441    12.000000000000
         H           -1.195726230629    -2.409750367638    -0.765368572559     1.007825032230
         H           -3.886938230629     0.900325932362     0.091744127441     1.007825032230
         H           -3.827954230629    -1.760970367638    -0.539027572559     1.007825032230
         H           -2.223909230629     2.348946632362     1.335884427441     1.007825032230
         H           -0.489665230629     1.970038632362     1.239154427441     1.007825032230
         H           -1.316564230629     2.709112632362    -0.152170572559     1.007825032230
         H            0.650968769371     1.635961632362    -1.239292572559     1.007825032230
         H            0.878613769371    -1.972064367638     1.088573427441     1.007825032230
         H            3.114740769371     1.861941632362    -1.137883572559     1.007825032230
         H            3.358420769371    -1.791676367638     1.122366427441     1.007825032230
         H            4.480686769371     0.141651632362     0.029149427441     1.007825032230

  Basis Set: AUG-CC-PVTZ
    Blend: AUG-CC-PVTZ
  Basis Set: (AUG-CC-PVTZ AUX)
    Blend: AUG-CC-PVTZ-JKFIT
	 Reference Energy          =    -477.5438948356970741 [Eh]
	 Singles Energy            =      -0.0000000000000000 [Eh]
	 Same-Spin Energy          =      -0.5393039687330698 [Eh]
	 Opposite-Spin Energy      =      -1.6835476300298775 [Eh]
	 Correlation Energy        =      -2.2228515987629471 [Eh]
	 Total Energy              =    -479.7667464344600035 [Eh]

	 ================> DF-SCS-MP2 Energies <==================
	-----------------------------------------------------------
	 SCS Same-Spin Scale       =       0.3333333333333333 [-]
	 SCS Opposite-Spin Scale   =       1.2000000000000000 [-]
	 SCS Same-Spin Energy      =      -0.1797679895776899 [Eh]
	 SCS Opposite-Spin Energy  =      -2.0202571560358531 [Eh]
	 SCS Correlation Energy    =      -2.2000251456135431 [Eh]
	 SCS Total Energy          =    -479.7439199813106256 [Eh]
	-----------------------------------------------------------

  Dipole Moment: [D]
     X:     0.5306      Y:     1.8848      Z:     0.5101     Total:     2.0235

*** Psi4 exiting successfully. Buy a developer a beer!
