                               Psi4 1.4a2.dev612

  ==> Input File <==

--------------------------------------------------------------------------
#psi4
#
memory 32 gb

molecule  {
0 1
  N       -1.7531090     0.6487580     0.1985890
  C       -0.8584400    -0.3593730    -0.1157050
  C        0.5958890    -0.1944310    -0.0686340
  C       -1.6095070    -1.4830350    -0.4543950
  C       -3.0364380     0.1798280     0.0590890
  C       -2.9750140    -1.1422740    -0.3482900
  C       -1.4212420     1.9838780     0.6691930
  C        1.2419450     0.8845030    -0.6969540
  C        1.3787110    -1.1624060     0.5835710
  C        2.6315710     1.0013490    -0.6546280
  C        2.7689430    -1.0546610     0.6054980
  C        3.3999180     0.0321080    -0.0053240
  H       -1.1911366    -2.5064956    -0.5358177
  H       -3.8823240     0.8199580     0.2740310
  H       -3.8253090    -1.7817070    -0.5476340
  H       -2.2212640     2.3282100     1.3272780
  H       -0.4870200     1.9493020     1.2305480
  H       -1.3139190     2.6883760    -0.1607770
  H        0.6536140     1.6152250    -1.2478990
  H        0.8812590    -1.9928010     1.0799670
  H        3.1173860     1.8412050    -1.1464900
  H        3.3610660    -1.8124130     1.1137600
  H        4.4833320     0.1209150     0.0205430
units angstrom
no_reorient  #important for SAPT in psi4, default
symmetry c1  #important for SAPT in psi4, default
}

set PROPERTIES_ORIGIN ["COM"]
properties('MP2/aug-cc-pvtz', properties = ['dipole'])
--------------------------------------------------------------------------

    Molecular point group: c1
  Charge       = 0
  Multiplicity = 1
  Basis Set: AUG-CC-PVTZ
    Blend: AUG-CC-PVTZ
  Basis Set: (AUG-CC-PVTZ AUX)
    Blend: AUG-CC-PVTZ-JKFIT

    Orbital Energies [Eh]
    ---------------------

    Doubly Occupied:

       1A    -15.608152     2A    -11.271004     3A    -11.257305
       4A    -11.250560     5A    -11.248846     6A    -11.240874
       7A    -11.239771     8A    -11.239442     9A    -11.238078
      10A    -11.237428    11A    -11.209801    12A    -11.208190
      13A     -1.299369    14A     -1.155285    15A     -1.073470
      16A     -1.044219    17A     -1.016405    18A     -0.956099
      19A     -0.933104    20A     -0.833453    21A     -0.830946
      22A     -0.769524    23A     -0.742843    24A     -0.711315
      25A     -0.677917    26A     -0.639618    27A     -0.632707
      28A     -0.622753    29A     -0.596440    30A     -0.587461
      31A     -0.569474    32A     -0.568029    33A     -0.537285
      34A     -0.528512    35A     -0.520894    36A     -0.502546
      37A     -0.495147    38A     -0.491242    39A     -0.354267
      40A     -0.340255    41A     -0.335331    42A     -0.275170

  @DF-RHF Final Energy:  -477.54246425927590

   => Energetics <=

    Nuclear Repulsion Energy =            638.9645002240059739
    One-Electron Energy =               -1913.2328730803878898
    Two-Electron Energy =                 796.7259085971061268
    Total Energy =                       -477.5424642592759028
  Basis Set: (AUG-CC-PVTZ AUX)
    Blend: AUG-CC-PVTZ-RI
    Molecular point group: c1

    Geometry (in Angstrom), charge = 0, multiplicity = 1:

       Center              X                  Y                   Z               Mass
    ------------   -----------------  -----------------  -----------------  -----------------
         N           -1.755779337535     0.670364847060     0.204442799799    14.003074004430
         C           -0.861110337535    -0.337766152940    -0.109851200201    12.000000000000
         C            0.593218662465    -0.172824152940    -0.062780200201    12.000000000000
         C           -1.612177337535    -1.461428152940    -0.448541200201    12.000000000000
         C           -3.039108337535     0.201434847060     0.064942799799    12.000000000000
         C           -2.977684337535    -1.120667152940    -0.342436200201    12.000000000000
         C           -1.423912337535     2.005484847060     0.675046799799    12.000000000000
         C            1.239274662465     0.906109847060    -0.691100200201    12.000000000000
         C            1.376040662465    -1.140799152940     0.589424799799    12.000000000000
         C            2.628900662465     1.022955847060    -0.648774200201    12.000000000000
         C            2.766272662465    -1.033054152940     0.611351799799    12.000000000000
         C            3.397247662465     0.053714847060     0.000529799799    12.000000000000
         H           -1.193806937535    -2.484888752940    -0.529963900201     1.007825032230
         H           -3.884994337535     0.841564847060     0.279884799799     1.007825032230
         H           -3.827979337535    -1.760100152940    -0.541780200201     1.007825032230
         H           -2.223934337535     2.349816847060     1.333131799799     1.007825032230
         H           -0.489690337535     1.970908847060     1.236401799799     1.007825032230
         H           -1.316589337535     2.709982847060    -0.154923200201     1.007825032230
         H            0.650943662465     1.636831847060    -1.242045200201     1.007825032230
         H            0.878588662465    -1.971194152940     1.085820799799     1.007825032230
         H            3.114715662465     1.862811847060    -1.140636200201     1.007825032230
         H            3.358395662465    -1.790806152940     1.119613799799     1.007825032230
         H            4.480661662465     0.142521847060     0.026396799799     1.007825032230

  Basis Set: AUG-CC-PVTZ
    Blend: AUG-CC-PVTZ
  Basis Set: (AUG-CC-PVTZ AUX)
    Blend: AUG-CC-PVTZ-JKFIT
	 Reference Energy          =    -477.5424642592759028 [Eh]
	 Singles Energy            =      -0.0000000000000000 [Eh]
	 Same-Spin Energy          =      -0.5393379338299075 [Eh]
	 Opposite-Spin Energy      =      -1.6837089072892673 [Eh]
	 Correlation Energy        =      -2.2230468411191748 [Eh]
	 Total Energy              =    -479.7655111003950879 [Eh]

	 ================> DF-SCS-MP2 Energies <==================
	-----------------------------------------------------------
	 SCS Same-Spin Scale       =       0.3333333333333333 [-]
	 SCS Opposite-Spin Scale   =       1.2000000000000000 [-]
	 SCS Same-Spin Energy      =      -0.1797793112766358 [Eh]
	 SCS Opposite-Spin Energy  =      -2.0204506887471205 [Eh]
	 SCS Correlation Energy    =      -2.2002300000237565 [Eh]
	 SCS Total Energy          =    -479.7426942592996397 [Eh]
	-----------------------------------------------------------

  Dipole Moment: [D]
     X:     0.4542      Y:     1.8493      Z:     0.8663     Total:     2.0921

*** Psi4 exiting successfully. Buy a developer a beer!
