                               Psi4 1.4a2.dev612

  ==> Input File <==

--------------------------------------------------------------------------
#psi4
#
memory 32 gb

molecule  {
0 1
  N       -1.7531090     0.6487580     0.1985890
  C       -0.8584400    -0.3593730    -0.1157050
  C        0.5958890    -0.1944310    -0.0686340
  C       -1.6098803    -1.4537706    -0.5500164
  C       -3.0364380     0.1798280     0.0590890
  C       -2.9750140    -1.1422740    -0.3482900
  C       -1.4212420     1.9838780     0.6691930
  C        1.2419450     0.8845030    -0.6969540
  C        1.3787110    -1.1624060     0.5835710
  C        2.6315710     1.0013490    -0.6546280
  C        2.7689430    -1.0546610     0.6054980
  C        3.3999180     0.0321080    -0.0053240
  H       -1.1930810    -2.4304870    -0.7739750
  H       -3.8823240     0.8199580     0.2740310
  H       -3.8253090    -1.7817070    -0.5476340
  H       -2.2212640     2.3282100     1.3272780
  H       -0.4870200     1.9493020     1.2305480
  H       -1.3139190     2.6883760    -0.1607770
  H        0.6536140     1.6152250    -1.2478990
  H        0.8812590    -1.9928010     1.0799670
  H        3.1173860     1.8412050    -1.1464900
  H        3.3610660    -1.8124130     1.1137600
  H        4.4833320     0.1209150     0.0205430
units angstrom
no_reorient  #important for SAPT in psi4, default
symmetry c1  #important for SAPT in psi4, default
}

set PROPERTIES_ORIGIN ["COM"]
properties('MP2/aug-cc-pvtz', properties = ['dipole'])
--------------------------------------------------------------------------

    Molecular point group: c1
  Charge       = 0
  Multiplicity = 1
  Basis Set: AUG-CC-PVTZ
    Blend: AUG-CC-PVTZ
  Basis Set: (AUG-CC-PVTZ AUX)
    Blend: AUG-CC-PVTZ-JKFIT

    Orbital Energies [Eh]
    ---------------------

    Doubly Occupied:

       1A    -15.607714     2A    -11.270750     3A    -11.257167
       4A    -11.250198     5A    -11.248241     6A    -11.240988
       7A    -11.239936     8A    -11.239564     9A    -11.238453
      10A    -11.237593    11A    -11.208590    12A    -11.207332
      13A     -1.298737    14A     -1.155367    15A     -1.072690
      16A     -1.044071    17A     -1.016521    18A     -0.955829
      19A     -0.933072    20A     -0.833518    21A     -0.830684
      22A     -0.770583    23A     -0.742876    24A     -0.711873
      25A     -0.678146    26A     -0.640214    27A     -0.631902
      28A     -0.622598    29A     -0.596868    30A     -0.587452
      31A     -0.569474    32A     -0.568442    33A     -0.537077
      34A     -0.527403    35A     -0.522800    36A     -0.502475
      37A     -0.494508    38A     -0.491794    39A     -0.352372
      40A     -0.340462    41A     -0.334880    42A     -0.276375

  @DF-RHF Final Energy:  -477.54338082207130

   => Energetics <=

    Nuclear Repulsion Energy =            638.8994114475718789
    One-Electron Energy =               -1913.1104049421232958
    Two-Electron Energy =                 796.6676126724802316
    Total Energy =                       -477.5433808220712990
  Basis Set: (AUG-CC-PVTZ AUX)
    Blend: AUG-CC-PVTZ-RI
    Molecular point group: c1

    Geometry (in Angstrom), charge = 0, multiplicity = 1:

       Center              X                  Y                   Z               Mass
    ------------   -----------------  -----------------  -----------------  -----------------
         N           -1.755738346703     0.667641704364     0.213275221988    14.003074004430
         C           -0.861069346703    -0.340489295636    -0.101018778012    12.000000000000
         C            0.593259653297    -0.175547295636    -0.053947778012    12.000000000000
         C           -1.612509646703    -1.434886895636    -0.535330178012    12.000000000000
         C           -3.039067346703     0.198711704364     0.073775221988    12.000000000000
         C           -2.977643346703    -1.123390295636    -0.333603778012    12.000000000000
         C           -1.423871346703     2.002761704364     0.683879221988    12.000000000000
         C            1.239315653297     0.903386704364    -0.682267778012    12.000000000000
         C            1.376081653297    -1.143522295636     0.598257221988    12.000000000000
         C            2.628941653297     1.020232704364    -0.639941778012    12.000000000000
         C            2.766313653297    -1.035777295636     0.620184221988    12.000000000000
         C            3.397288653297     0.050991704364     0.009362221988    12.000000000000
         H           -1.195710346703    -2.411603295636    -0.759288778012     1.007825032230
         H           -3.884953346703     0.838841704364     0.288717221988     1.007825032230
         H           -3.827938346703    -1.762823295636    -0.532947778012     1.007825032230
         H           -2.223893346703     2.347093704364     1.341964221988     1.007825032230
         H           -0.489649346703     1.968185704364     1.245234221988     1.007825032230
         H           -1.316548346703     2.707259704364    -0.146090778012     1.007825032230
         H            0.650984653297     1.634108704364    -1.233212778012     1.007825032230
         H            0.878629653297    -1.973917295636     1.094653221988     1.007825032230
         H            3.114756653297     1.860088704364    -1.131803778012     1.007825032230
         H            3.358436653297    -1.793529295636     1.128446221988     1.007825032230
         H            4.480702653297     0.139798704364     0.035229221988     1.007825032230

  Basis Set: AUG-CC-PVTZ
    Blend: AUG-CC-PVTZ
  Basis Set: (AUG-CC-PVTZ AUX)
    Blend: AUG-CC-PVTZ-JKFIT
	 Reference Energy          =    -477.5433808220712990 [Eh]
	 Singles Energy            =      -0.0000000000000000 [Eh]
	 Same-Spin Energy          =      -0.5392361035986462 [Eh]
	 Opposite-Spin Energy      =      -1.6835560165489991 [Eh]
	 Correlation Energy        =      -2.2227921201476453 [Eh]
	 Total Energy              =    -479.7661729422189296 [Eh]

	 ================> DF-SCS-MP2 Energies <==================
	-----------------------------------------------------------
	 SCS Same-Spin Scale       =       0.3333333333333333 [-]
	 SCS Opposite-Spin Scale   =       1.2000000000000000 [-]
	 SCS Same-Spin Energy      =      -0.1797453678662154 [Eh]
	 SCS Opposite-Spin Energy  =      -2.0202672198587988 [Eh]
	 SCS Correlation Energy    =      -2.2000125877250141 [Eh]
	 SCS Total Energy          =    -479.7433934097963402 [Eh]
	-----------------------------------------------------------

  Dipole Moment: [D]
     X:     0.5153      Y:     1.8536      Z:     0.7754     Total:     2.0742

*** Psi4 exiting successfully. Buy a developer a beer!
