                               Psi4 1.4a2.dev612

  ==> Input File <==

--------------------------------------------------------------------------
#psi4
#
memory 32 gb

molecule  {
0 1
  N       -1.7531090     0.6487580     0.1985890
  C       -0.8584400    -0.3593730    -0.1157050
  C        0.5958890    -0.1944310    -0.0686340
  C       -1.6095070    -1.4830350    -0.4543950
  C       -3.0364380     0.1798280     0.0590890
  C       -2.9750140    -1.1422740    -0.3482900
  C       -1.4212420     1.9838780     0.6691930
  C        1.2419450     0.8845030    -0.6969540
  C        1.3787110    -1.1624060     0.5835710
  C        2.6315710     1.0013490    -0.6546280
  C        2.7689430    -1.0546610     0.6054980
  C        3.3999180     0.0321080    -0.0053240
  H       -1.1930810    -2.4304870    -0.7739750
  H       -3.8823240     0.8199580     0.2740310
  H       -3.8253871    -1.8407778    -0.3565565
  H       -2.2212640     2.3282100     1.3272780
  H       -0.4870200     1.9493020     1.2305480
  H       -1.3139190     2.6883760    -0.1607770
  H        0.6536140     1.6152250    -1.2478990
  H        0.8812590    -1.9928010     1.0799670
  H        3.1173860     1.8412050    -1.1464900
  H        3.3610660    -1.8124130     1.1137600
  H        4.4833320     0.1209150     0.0205430
units angstrom
no_reorient  #important for SAPT in psi4, default
symmetry c1  #important for SAPT in psi4, default
}

set PROPERTIES_ORIGIN ["COM"]
properties('MP2/aug-cc-pvtz', properties = ['dipole'])
--------------------------------------------------------------------------

    Molecular point group: c1
  Charge       = 0
  Multiplicity = 1
  Basis Set: AUG-CC-PVTZ
    Blend: AUG-CC-PVTZ
  Basis Set: (AUG-CC-PVTZ AUX)
    Blend: AUG-CC-PVTZ-JKFIT

    Orbital Energies [Eh]
    ---------------------

    Doubly Occupied:

       1A    -15.607910     2A    -11.270899     3A    -11.256603
       4A    -11.250253     5A    -11.249095     6A    -11.240841
       7A    -11.239724     8A    -11.239398     9A    -11.238153
      10A    -11.237263    11A    -11.209611    12A    -11.207219
      13A     -1.299167    14A     -1.155229    15A     -1.073391
      16A     -1.044042    17A     -1.016334    18A     -0.955999
      19A     -0.933201    20A     -0.833396    21A     -0.830691
      22A     -0.769661    23A     -0.743143    24A     -0.711458
      25A     -0.677886    26A     -0.640381    27A     -0.632179
      28A     -0.622259    29A     -0.596424    30A     -0.587349
      31A     -0.568650    32A     -0.568086    33A     -0.536523
      34A     -0.529079    35A     -0.522333    36A     -0.502330
      37A     -0.494211    38A     -0.492205    39A     -0.353858
      40A     -0.340326    41A     -0.334915    42A     -0.275668

  @DF-RHF Final Energy:  -477.54364776784666

   => Energetics <=

    Nuclear Repulsion Energy =            638.9782284714099205
    One-Electron Energy =               -1913.2690602820148342
    Two-Electron Energy =                 796.7471840427582492
    Total Energy =                       -477.5436477678466645
  Basis Set: (AUG-CC-PVTZ AUX)
    Blend: AUG-CC-PVTZ-RI
    Molecular point group: c1

    Geometry (in Angstrom), charge = 0, multiplicity = 1:

       Center              X                  Y                   Z               Mass
    ------------   -----------------  -----------------  -----------------  -----------------
         N           -1.755766361934     0.670256180491     0.204744846128    14.003074004430
         C           -0.861097361934    -0.337874819509    -0.109549153872    12.000000000000
         C            0.593231638066    -0.172932819509    -0.062478153872    12.000000000000
         C           -1.612164361934    -1.461536819509    -0.448239153872    12.000000000000
         C           -3.039095361934     0.201326180491     0.065244846128    12.000000000000
         C           -2.977671361934    -1.120775819509    -0.342134153872    12.000000000000
         C           -1.423899361934     2.005376180491     0.675348846128    12.000000000000
         C            1.239287638066     0.906001180491    -0.690798153872    12.000000000000
         C            1.376053638066    -1.140907819509     0.589726846128    12.000000000000
         C            2.628913638066     1.022847180491    -0.648472153872    12.000000000000
         C            2.766285638066    -1.033162819509     0.611653846128    12.000000000000
         C            3.397260638066     0.053606180491     0.000831846128    12.000000000000
         H           -1.195738361934    -2.408988819509    -0.767819153872     1.007825032230
         H           -3.884981361934     0.841456180491     0.280186846128     1.007825032230
         H           -3.828044461934    -1.819279619509    -0.350400653872     1.007825032230
         H           -2.223921361934     2.349708180491     1.333433846128     1.007825032230
         H           -0.489677361934     1.970800180491     1.236703846128     1.007825032230
         H           -1.316576361934     2.709874180491    -0.154621153872     1.007825032230
         H            0.650956638066     1.636723180491    -1.241743153872     1.007825032230
         H            0.878601638066    -1.971302819509     1.086122846128     1.007825032230
         H            3.114728638066     1.862703180491    -1.140334153872     1.007825032230
         H            3.358408638066    -1.790914819509     1.119915846128     1.007825032230
         H            4.480674638066     0.142413180491     0.026698846128     1.007825032230

  Basis Set: AUG-CC-PVTZ
    Blend: AUG-CC-PVTZ
  Basis Set: (AUG-CC-PVTZ AUX)
    Blend: AUG-CC-PVTZ-JKFIT
	 Reference Energy          =    -477.5436477678466645 [Eh]
	 Singles Energy            =      -0.0000000000000000 [Eh]
	 Same-Spin Energy          =      -0.5392738797803891 [Eh]
	 Opposite-Spin Energy      =      -1.6834931453416273 [Eh]
	 Correlation Energy        =      -2.2227670251220166 [Eh]
	 Total Energy              =    -479.7664147929687033 [Eh]

	 ================> DF-SCS-MP2 Energies <==================
	-----------------------------------------------------------
	 SCS Same-Spin Scale       =       0.3333333333333333 [-]
	 SCS Opposite-Spin Scale   =       1.2000000000000000 [-]
	 SCS Same-Spin Energy      =      -0.1797579599267964 [Eh]
	 SCS Opposite-Spin Energy  =      -2.0201917744099527 [Eh]
	 SCS Correlation Energy    =      -2.1999497343367489 [Eh]
	 SCS Total Energy          =    -479.7435975021834338 [Eh]
	-----------------------------------------------------------

  Dipole Moment: [D]
     X:     0.5214      Y:     1.8381      Z:     0.8332     Total:     2.0844

*** Psi4 exiting successfully. Buy a developer a beer!
