                               Psi4 1.4a2.dev612

  ==> Input File <==

--------------------------------------------------------------------------
#psi4
#
memory 32 gb

molecule  {
0 1
  N       -1.7531090     0.6487580     0.1985890
  C       -0.8584400    -0.3593730    -0.1157050
  C        0.5958890    -0.1944310    -0.0686340
  C       -1.6095070    -1.4830350    -0.4543950
  C       -3.0364380     0.1798280     0.0590890
  C       -2.9750140    -1.1422740    -0.3482900
  C       -1.4212420     1.9838780     0.6691930
  C        1.2419450     0.8845030    -0.6969540
  C        1.3787110    -1.1624060     0.5835710
  C        2.6315710     1.0013490    -0.6546280
  C        2.7689430    -1.0546610     0.6054980
  C        3.3999180     0.0321080    -0.0053240
  H       -1.1930810    -2.4304870    -0.7739750
  H       -3.8838008     0.8646814     0.1308611
  H       -3.8253090    -1.7817070    -0.5476340
  H       -2.2212640     2.3282100     1.3272780
  H       -0.4870200     1.9493020     1.2305480
  H       -1.3139190     2.6883760    -0.1607770
  H        0.6536140     1.6152250    -1.2478990
  H        0.8812590    -1.9928010     1.0799670
  H        3.1173860     1.8412050    -1.1464900
  H        3.3610660    -1.8124130     1.1137600
  H        4.4833320     0.1209150     0.0205430
units angstrom
no_reorient  #important for SAPT in psi4, default
symmetry c1  #important for SAPT in psi4, default
}

set PROPERTIES_ORIGIN ["COM"]
properties('MP2/aug-cc-pvtz', properties = ['dipole'])
--------------------------------------------------------------------------

    Molecular point group: c1
  Charge       = 0
  Multiplicity = 1
  Basis Set: AUG-CC-PVTZ
    Blend: AUG-CC-PVTZ
  Basis Set: (AUG-CC-PVTZ AUX)
    Blend: AUG-CC-PVTZ-JKFIT

    Orbital Energies [Eh]
    ---------------------

    Doubly Occupied:

       1A    -15.607310     2A    -11.270410     3A    -11.256676
       4A    -11.250204     5A    -11.248910     6A    -11.240927
       7A    -11.239802     8A    -11.239444     9A    -11.238229
      10A    -11.237257    11A    -11.208556    12A    -11.206983
      13A     -1.298713    14A     -1.155252    15A     -1.073325
      16A     -1.043992    17A     -1.016373    18A     -0.955594
      19A     -0.933247    20A     -0.833179    21A     -0.830748
      22A     -0.770318    23A     -0.742697    24A     -0.712150
      25A     -0.677343    26A     -0.641249    27A     -0.630636
      28A     -0.621984    29A     -0.596810    30A     -0.587402
      31A     -0.569561    32A     -0.567986    33A     -0.536856
      34A     -0.526976    35A     -0.524753    36A     -0.501761
      37A     -0.494849    38A     -0.491978    39A     -0.353474
      40A     -0.340395    41A     -0.335296    42A     -0.275586

  @DF-RHF Final Energy:  -477.54485587865202

   => Energetics <=

    Nuclear Repulsion Energy =            639.0034189663761026
    One-Electron Energy =               -1913.3261654108664516
    Two-Electron Energy =                 796.7778905658383337
    Total Energy =                       -477.5448558786520152
  Basis Set: (AUG-CC-PVTZ AUX)
    Blend: AUG-CC-PVTZ-RI
    Molecular point group: c1

    Geometry (in Angstrom), charge = 0, multiplicity = 1:

       Center              X                  Y                   Z               Mass
    ------------   -----------------  -----------------  -----------------  -----------------
         N           -1.755757388400     0.669590275854     0.206889252015    14.003074004430
         C           -0.861088388400    -0.338540724146    -0.107404747985    12.000000000000
         C            0.593240611600    -0.173598724146    -0.060333747985    12.000000000000
         C           -1.612155388400    -1.462202724146    -0.446094747985    12.000000000000
         C           -3.039086388400     0.200660275854     0.067389252015    12.000000000000
         C           -2.977662388400    -1.121441724146    -0.339989747985    12.000000000000
         C           -1.423890388400     2.004710275854     0.677493252015    12.000000000000
         C            1.239296611600     0.905335275854    -0.688653747985    12.000000000000
         C            1.376062611600    -1.141573724146     0.591871252015    12.000000000000
         C            2.628922611600     1.022181275854    -0.646327747985    12.000000000000
         C            2.766294611600    -1.033828724146     0.613798252015    12.000000000000
         C            3.397269611600     0.052940275854     0.002976252015    12.000000000000
         H           -1.195729388400    -2.409654724146    -0.765674747985     1.007825032230
         H           -3.886449188400     0.885513675854     0.139161352015     1.007825032230
         H           -3.827957388400    -1.760874724146    -0.539333747985     1.007825032230
         H           -2.223912388400     2.349042275854     1.335578252015     1.007825032230
         H           -0.489668388400     1.970134275854     1.238848252015     1.007825032230
         H           -1.316567388400     2.709208275854    -0.152476747985     1.007825032230
         H            0.650965611600     1.636057275854    -1.239598747985     1.007825032230
         H            0.878610611600    -1.971968724146     1.088267252015     1.007825032230
         H            3.114737611600     1.862037275854    -1.138189747985     1.007825032230
         H            3.358417611600    -1.791580724146     1.122060252015     1.007825032230
         H            4.480683611600     0.141747275854     0.028843252015     1.007825032230

  Basis Set: AUG-CC-PVTZ
    Blend: AUG-CC-PVTZ
  Basis Set: (AUG-CC-PVTZ AUX)
    Blend: AUG-CC-PVTZ-JKFIT
	 Reference Energy          =    -477.5448558786520152 [Eh]
	 Singles Energy            =      -0.0000000000000000 [Eh]
	 Same-Spin Energy          =      -0.5392411385095469 [Eh]
	 Opposite-Spin Energy      =      -1.6833950081379387 [Eh]
	 Correlation Energy        =      -2.2226361466474858 [Eh]
	 Total Energy              =    -479.7674920252994752 [Eh]

	 ================> DF-SCS-MP2 Energies <==================
	-----------------------------------------------------------
	 SCS Same-Spin Scale       =       0.3333333333333333 [-]
	 SCS Opposite-Spin Scale   =       1.2000000000000000 [-]
	 SCS Same-Spin Energy      =      -0.1797470461698490 [Eh]
	 SCS Opposite-Spin Energy  =      -2.0200740097655263 [Eh]
	 SCS Correlation Energy    =      -2.1998210559353755 [Eh]
	 SCS Total Energy          =    -479.7446769345874031 [Eh]
	-----------------------------------------------------------

  Dipole Moment: [D]
     X:     0.5076      Y:     1.8833      Z:     0.5526     Total:     2.0273

*** Psi4 exiting successfully. Buy a developer a beer!
