                               Psi4 1.4a2.dev612

  ==> Input File <==

--------------------------------------------------------------------------
#psi4
#
memory 32 gb

molecule  {
0 1
  N       -1.7531090     0.6487580     0.1985890
  C       -0.8584400    -0.3593730    -0.1157050
  C        0.5958890    -0.1944310    -0.0686340
  C       -1.6095070    -1.4830350    -0.4543950
  C       -3.0364380     0.1798280     0.0590890
  C       -2.9750140    -1.1422740    -0.3482900
  C       -1.4212420     1.9838780     0.6691930
  C        1.2419450     0.8845030    -0.6969540
  C        1.3787110    -1.1624060     0.5835710
  C        2.6315710     1.0013490    -0.6546280
  C        2.7689430    -1.0546610     0.6054980
  C        3.3999180     0.0321080    -0.0053240
  H       -1.1923033    -2.4608904    -0.6787121
  H       -3.8823240     0.8199580     0.2740310
  H       -3.8253090    -1.7817070    -0.5476340
  H       -2.2212640     2.3282100     1.3272780
  H       -0.4870200     1.9493020     1.2305480
  H       -1.3139190     2.6883760    -0.1607770
  H        0.6536140     1.6152250    -1.2478990
  H        0.8812590    -1.9928010     1.0799670
  H        3.1173860     1.8412050    -1.1464900
  H        3.3610660    -1.8124130     1.1137600
  H        4.4833320     0.1209150     0.0205430
units angstrom
no_reorient  #important for SAPT in psi4, default
symmetry c1  #important for SAPT in psi4, default
}

set PROPERTIES_ORIGIN ["COM"]
properties('MP2/aug-cc-pvtz', properties = ['dipole'])
--------------------------------------------------------------------------

    Molecular point group: c1
  Charge       = 0
  Multiplicity = 1
  Basis Set: AUG-CC-PVTZ
    Blend: AUG-CC-PVTZ
  Basis Set: (AUG-CC-PVTZ AUX)
    Blend: AUG-CC-PVTZ-JKFIT

    Orbital Energies [Eh]
    ---------------------

    Doubly Occupied:

       1A    -15.607684     2A    -11.270734     3A    -11.256579
       4A    -11.250283     5A    -11.248613     6A    -11.240739
       7A    -11.239601     8A    -11.239290     9A    -11.237956
      10A    -11.237159    11A    -11.208516    12A    -11.207307
      13A     -1.298953    14A     -1.155113    15A     -1.073403
      16A     -1.043984    17A     -1.016232    18A     -0.955981
      19A     -0.933350    20A     -0.833343    21A     -0.830711
      22A     -0.770583    23A     -0.743068    24A     -0.712221
      25A     -0.677898    26A     -0.639768    27A     -0.632328
      28A     -0.622591    29A     -0.596694    30A     -0.587259
      31A     -0.569678    32A     -0.568442    33A     -0.537695
      34A     -0.527218    35A     -0.523993    36A     -0.502308
      37A     -0.494939    38A     -0.491613    39A     -0.354052
      40A     -0.340234    41A     -0.335359    42A     -0.275082

  @DF-RHF Final Energy:  -477.54551691234894

   => Energetics <=

    Nuclear Repulsion Energy =            639.0390594909164292
    One-Electron Energy =               -1913.3920420245522109
    Two-Electron Energy =                 796.8074656212869513
    Total Energy =                       -477.5455169123489441
  Basis Set: (AUG-CC-PVTZ AUX)
    Blend: AUG-CC-PVTZ-RI
    Molecular point group: c1

    Geometry (in Angstrom), charge = 0, multiplicity = 1:

       Center              X                  Y                   Z               Mass
    ------------   -----------------  -----------------  -----------------  -----------------
         N           -1.755771852426     0.670072261211     0.205359556646    14.003074004430
         C           -0.861102852426    -0.338058738789    -0.108934443354    12.000000000000
         C            0.593226147574    -0.173116738789    -0.061863443354    12.000000000000
         C           -1.612169852426    -1.461720738789    -0.447624443354    12.000000000000
         C           -3.039100852426     0.201142261211     0.065859556646    12.000000000000
         C           -2.977676852426    -1.120959738789    -0.341519443354    12.000000000000
         C           -1.423904852426     2.005192261211     0.675963556646    12.000000000000
         C            1.239282147574     0.905817261211    -0.690183443354    12.000000000000
         C            1.376048147574    -1.141091738789     0.590341556646    12.000000000000
         C            2.628908147574     1.022663261211    -0.647857443354    12.000000000000
         C            2.766280147574    -1.033346738789     0.612268556646    12.000000000000
         C            3.397255147574     0.053422261211     0.001446556646    12.000000000000
         H           -1.194966152426    -2.439576138789    -0.671941543354     1.007825032230
         H           -3.884986852426     0.841272261211     0.280801556646     1.007825032230
         H           -3.827971852426    -1.760392738789    -0.540863443354     1.007825032230
         H           -2.223926852426     2.349524261211     1.334048556646     1.007825032230
         H           -0.489682852426     1.970616261211     1.237318556646     1.007825032230
         H           -1.316581852426     2.709690261211    -0.154006443354     1.007825032230
         H            0.650951147574     1.636539261211    -1.241128443354     1.007825032230
         H            0.878596147574    -1.971486738789     1.086737556646     1.007825032230
         H            3.114723147574     1.862519261211    -1.139719443354     1.007825032230
         H            3.358403147574    -1.791098738789     1.120530556646     1.007825032230
         H            4.480669147574     0.142229261211     0.027313556646     1.007825032230

  Basis Set: AUG-CC-PVTZ
    Blend: AUG-CC-PVTZ
  Basis Set: (AUG-CC-PVTZ AUX)
    Blend: AUG-CC-PVTZ-JKFIT
	 Reference Energy          =    -477.5455169123489441 [Eh]
	 Singles Energy            =      -0.0000000000000000 [Eh]
	 Same-Spin Energy          =      -0.5391907740123615 [Eh]
	 Opposite-Spin Energy      =      -1.6832935700813985 [Eh]
	 Correlation Energy        =      -2.2224843440937598 [Eh]
	 Total Energy              =    -479.7680012564426875 [Eh]

	 ================> DF-SCS-MP2 Energies <==================
	-----------------------------------------------------------
	 SCS Same-Spin Scale       =       0.3333333333333333 [-]
	 SCS Opposite-Spin Scale   =       1.2000000000000000 [-]
	 SCS Same-Spin Energy      =      -0.1797302580041205 [Eh]
	 SCS Opposite-Spin Energy  =      -2.0199522840976782 [Eh]
	 SCS Correlation Energy    =      -2.1996825421017987 [Eh]
	 SCS Total Energy          =    -479.7451994544507556 [Eh]
	-----------------------------------------------------------

  Dipole Moment: [D]
     X:     0.4668      Y:     1.8424      Z:     0.7496     Total:     2.0431

*** Psi4 exiting successfully. Buy a developer a beer!
