                               Psi4 1.4a2.dev612

  ==> Input File <==

--------------------------------------------------------------------------
#psi4
#
memory 32 gb

molecule  {
0 1
  N       -1.7531090     0.6487580     0.1985890
  C       -0.8584400    -0.3593730    -0.1157050
  C        0.5958890    -0.1944310    -0.0686340
  C       -1.6095070    -1.4830350    -0.4543950
  C       -3.0364380     0.1798280     0.0590890
  C       -2.9750140    -1.1422740    -0.3482900
  C       -1.4212420     1.9838780     0.6691930
  C        1.2419450     0.8845030    -0.6969540
  C        1.3863545    -1.2149191     0.4988128
  C        2.6315710     1.0013490    -0.6546280
  C        2.7689430    -1.0546610     0.6054980
  C        3.3999180     0.0321080    -0.0053240
  H       -1.1930810    -2.4304870    -0.7739750
  H       -3.8823240     0.8199580     0.2740310
  H       -3.8253090    -1.7817070    -0.5476340
  H       -2.2212640     2.3282100     1.3272780
  H       -0.4870200     1.9493020     1.2305480
  H       -1.3139190     2.6883760    -0.1607770
  H        0.6536140     1.6152250    -1.2478990
  H        0.8812590    -1.9928010     1.0799670
  H        3.1173860     1.8412050    -1.1464900
  H        3.3610660    -1.8124130     1.1137600
  H        4.4833320     0.1209150     0.0205430
units angstrom
no_reorient  #important for SAPT in psi4, default
symmetry c1  #important for SAPT in psi4, default
}

set PROPERTIES_ORIGIN ["COM"]
properties('MP2/aug-cc-pvtz', properties = ['dipole'])
--------------------------------------------------------------------------

    Molecular point group: c1
  Charge       = 0
  Multiplicity = 1
  Basis Set: AUG-CC-PVTZ
    Blend: AUG-CC-PVTZ
  Basis Set: (AUG-CC-PVTZ AUX)
    Blend: AUG-CC-PVTZ-JKFIT

    Orbital Energies [Eh]
    ---------------------

    Doubly Occupied:

       1A    -15.607726     2A    -11.270856     3A    -11.256650
       4A    -11.251215     5A    -11.248710     6A    -11.240999
       7A    -11.240024     8A    -11.239234     9A    -11.237921
      10A    -11.237556    11A    -11.208504    12A    -11.207043
      13A     -1.299037    14A     -1.154734    15A     -1.073534
      16A     -1.043804    17A     -1.015894    18A     -0.955846
      19A     -0.933509    20A     -0.833080    21A     -0.830200
      22A     -0.770740    23A     -0.742834    24A     -0.712177
      25A     -0.677192    26A     -0.639599    27A     -0.631865
      28A     -0.622523    29A     -0.595603    30A     -0.586743
      31A     -0.569633    32A     -0.568448    33A     -0.538399
      34A     -0.527346    35A     -0.523534    36A     -0.500876
      37A     -0.496506    38A     -0.489844    39A     -0.355346
      40A     -0.340425    41A     -0.335425    42A     -0.273651

  @DF-RHF Final Energy:  -477.54283851586729

   => Energetics <=

    Nuclear Repulsion Energy =            638.8887570487097491
    One-Electron Energy =               -1913.0936245852321917
    Two-Electron Energy =                 796.6620290206551545
    Total Energy =                       -477.5428385158672882
  Basis Set: (AUG-CC-PVTZ AUX)
    Blend: AUG-CC-PVTZ-RI
    Molecular point group: c1

    Geometry (in Angstrom), charge = 0, multiplicity = 1:

       Center              X                  Y                   Z               Mass
    ------------   -----------------  -----------------  -----------------  -----------------
         N           -1.756350748007     0.673888666703     0.212445384915    14.003074004430
         C           -0.861681748007    -0.334242333297    -0.101848615085    12.000000000000
         C            0.592647251993    -0.169300333297    -0.054777615085    12.000000000000
         C           -1.612748748007    -1.457904333297    -0.440538615085    12.000000000000
         C           -3.039679748007     0.204958666703     0.072945384915    12.000000000000
         C           -2.978255748007    -1.117143333297    -0.334433615085    12.000000000000
         C           -1.424483748007     2.009008666703     0.683049384915    12.000000000000
         C            1.238703251993     0.909633666703    -0.683097615085    12.000000000000
         C            1.383112751993    -1.189788433297     0.512669184915    12.000000000000
         C            2.628329251993     1.026479666703    -0.640771615085    12.000000000000
         C            2.765701251993    -1.029530333297     0.619354384915    12.000000000000
         C            3.396676251993     0.057238666703     0.008532384915    12.000000000000
         H           -1.196322748007    -2.405356333297    -0.760118615085     1.007825032230
         H           -3.885565748007     0.845088666703     0.287887384915     1.007825032230
         H           -3.828550748007    -1.756576333297    -0.533777615085     1.007825032230
         H           -2.224505748007     2.353340666703     1.341134384915     1.007825032230
         H           -0.490261748007     1.974432666703     1.244404384915     1.007825032230
         H           -1.317160748007     2.713506666703    -0.146920615085     1.007825032230
         H            0.650372251993     1.640355666703    -1.234042615085     1.007825032230
         H            0.878017251993    -1.967670333297     1.093823384915     1.007825032230
         H            3.114144251993     1.866335666703    -1.132633615085     1.007825032230
         H            3.357824251993    -1.787282333297     1.127616384915     1.007825032230
         H            4.480090251993     0.146045666703     0.034399384915     1.007825032230

  Basis Set: AUG-CC-PVTZ
    Blend: AUG-CC-PVTZ
  Basis Set: (AUG-CC-PVTZ AUX)
    Blend: AUG-CC-PVTZ-JKFIT
	 Reference Energy          =    -477.5428385158672882 [Eh]
	 Singles Energy            =      -0.0000000000000000 [Eh]
	 Same-Spin Energy          =      -0.5393765465788805 [Eh]
	 Opposite-Spin Energy      =      -1.6836243096718706 [Eh]
	 Correlation Energy        =      -2.2230008562507511 [Eh]
	 Total Energy              =    -479.7658393721180232 [Eh]

	 ================> DF-SCS-MP2 Energies <==================
	-----------------------------------------------------------
	 SCS Same-Spin Scale       =       0.3333333333333333 [-]
	 SCS Opposite-Spin Scale   =       1.2000000000000000 [-]
	 SCS Same-Spin Energy      =      -0.1797921821929601 [Eh]
	 SCS Opposite-Spin Energy  =      -2.0203491716062447 [Eh]
	 SCS Correlation Energy    =      -2.2001413537992049 [Eh]
	 SCS Total Energy          =    -479.7429798696664989 [Eh]
	-----------------------------------------------------------

  Dipole Moment: [D]
     X:     0.4507      Y:     1.8997      Z:     0.7106     Total:     2.0777

*** Psi4 exiting successfully. Buy a developer a beer!
