                               Psi4 1.4a2.dev612

  ==> Input File <==

--------------------------------------------------------------------------
#psi4
#
memory 32 gb

molecule  {
0 1
  N       -1.7531090     0.6487580     0.1985890
  C       -0.8584400    -0.3593730    -0.1157050
  C        0.5958890    -0.1944310    -0.0686340
  C       -1.6095070    -1.4830350    -0.4543950
  C       -3.0364380     0.1798280     0.0590890
  C       -2.9750140    -1.1422740    -0.3482900
  C       -1.4212420     1.9838780     0.6691930
  C        1.2419450     0.8845030    -0.6969540
  C        1.3787110    -1.1624060     0.5835710
  C        2.6315710     1.0013490    -0.6546280
  C        2.7689430    -1.0546610     0.6054980
  C        3.3999180     0.0321080    -0.0053240
  H       -1.1930810    -2.4304870    -0.7739750
  H       -3.8852776     0.9094049    -0.0123089
  H       -3.8253090    -1.7817070    -0.5476340
  H       -2.2212640     2.3282100     1.3272780
  H       -0.4870200     1.9493020     1.2305480
  H       -1.3139190     2.6883760    -0.1607770
  H        0.6536140     1.6152250    -1.2478990
  H        0.8812590    -1.9928010     1.0799670
  H        3.1173860     1.8412050    -1.1464900
  H        3.3610660    -1.8124130     1.1137600
  H        4.4833320     0.1209150     0.0205430
units angstrom
no_reorient  #important for SAPT in psi4, default
symmetry c1  #important for SAPT in psi4, default
}

set PROPERTIES_ORIGIN ["COM"]
properties('MP2/aug-cc-pvtz', properties = ['dipole'])
--------------------------------------------------------------------------

    Molecular point group: c1
  Charge       = 0
  Multiplicity = 1
  Basis Set: AUG-CC-PVTZ
    Blend: AUG-CC-PVTZ
  Basis Set: (AUG-CC-PVTZ AUX)
    Blend: AUG-CC-PVTZ-JKFIT

    Orbital Energies [Eh]
    ---------------------

    Doubly Occupied:

       1A    -15.607067     2A    -11.270016     3A    -11.257603
       4A    -11.250496     5A    -11.250490     6A    -11.241376
       7A    -11.240305     8A    -11.239845     9A    -11.238741
      10A    -11.237744    11A    -11.209314    12A    -11.207314
      13A     -1.298634    14A     -1.155675    15A     -1.073498
      16A     -1.044204    17A     -1.016802    18A     -0.954754
      19A     -0.933174    20A     -0.832871    21A     -0.831100
      22A     -0.769384    23A     -0.741650    24A     -0.711921
      25A     -0.676039    26A     -0.642093    27A     -0.628979
      28A     -0.621142    29A     -0.596596    30A     -0.587834
      31A     -0.569539    32A     -0.567010    33A     -0.535537
      34A     -0.527505    35A     -0.523506    36A     -0.501288
      37A     -0.494969    38A     -0.492161    39A     -0.353146
      40A     -0.340732    41A     -0.335455    42A     -0.276317

  @DF-RHF Final Energy:  -477.54086025429228

   => Energetics <=

    Nuclear Repulsion Energy =            638.8851001611669744
    One-Electron Energy =               -1913.0842740415507706
    Two-Electron Energy =                 796.6583136260915126
    Total Energy =                       -477.5408602542922836
  Basis Set: (AUG-CC-PVTZ AUX)
    Blend: AUG-CC-PVTZ-RI
    Molecular point group: c1

    Geometry (in Angstrom), charge = 0, multiplicity = 1:

       Center              X                  Y                   Z               Mass
    ------------   -----------------  -----------------  -----------------  -----------------
         N           -1.755747913805     0.669303346662     0.207807777008    14.003074004430
         C           -0.861078913805    -0.338827653338    -0.106486222992    12.000000000000
         C            0.593250086195    -0.173885653338    -0.059415222992    12.000000000000
         C           -1.612145913805    -1.462489653338    -0.445176222992    12.000000000000
         C           -3.039076913805     0.200373346662     0.068307777008    12.000000000000
         C           -2.977652913805    -1.121728653338    -0.339071222992    12.000000000000
         C           -1.423880913805     2.004423346662     0.678411777008    12.000000000000
         C            1.239306086195     0.905048346662    -0.687735222992    12.000000000000
         C            1.376072086195    -1.141860653338     0.592789777008    12.000000000000
         C            2.628932086195     1.021894346662    -0.645409222992    12.000000000000
         C            2.766304086195    -1.034115653338     0.614716777008    12.000000000000
         C            3.397279086195     0.052653346662     0.003894777008    12.000000000000
         H           -1.195719913805    -2.409941653338    -0.764756222992     1.007825032230
         H           -3.887916513805     0.929950246662    -0.003090122992     1.007825032230
         H           -3.827947913805    -1.761161653338    -0.538415222992     1.007825032230
         H           -2.223902913805     2.348755346662     1.336496777008     1.007825032230
         H           -0.489658913805     1.969847346662     1.239766777008     1.007825032230
         H           -1.316557913805     2.708921346662    -0.151558222992     1.007825032230
         H            0.650975086195     1.635770346662    -1.238680222992     1.007825032230
         H            0.878620086195    -1.972255653338     1.089185777008     1.007825032230
         H            3.114747086195     1.861750346662    -1.137271222992     1.007825032230
         H            3.358427086195    -1.791867653338     1.122978777008     1.007825032230
         H            4.480693086195     0.141460346662     0.029761777008     1.007825032230

  Basis Set: AUG-CC-PVTZ
    Blend: AUG-CC-PVTZ
  Basis Set: (AUG-CC-PVTZ AUX)
    Blend: AUG-CC-PVTZ-JKFIT
	 Reference Energy          =    -477.5408602542922836 [Eh]
	 Singles Energy            =      -0.0000000000000000 [Eh]
	 Same-Spin Energy          =      -0.5394848309356330 [Eh]
	 Opposite-Spin Energy      =      -1.6840005777257989 [Eh]
	 Correlation Energy        =      -2.2234854086614320 [Eh]
	 Total Energy              =    -479.7643456629537013 [Eh]

	 ================> DF-SCS-MP2 Energies <==================
	-----------------------------------------------------------
	 SCS Same-Spin Scale       =       0.3333333333333333 [-]
	 SCS Opposite-Spin Scale   =       1.2000000000000000 [-]
	 SCS Same-Spin Energy      =      -0.1798282769785443 [Eh]
	 SCS Opposite-Spin Energy  =      -2.0208006932709588 [Eh]
	 SCS Correlation Energy    =      -2.2006289702495030 [Eh]
	 SCS Total Energy          =    -479.7414892245417946 [Eh]
	-----------------------------------------------------------

  Dipole Moment: [D]
     X:     0.5909      Y:     1.8782      Z:     0.4252     Total:     2.0144

*** Psi4 exiting successfully. Buy a developer a beer!
