                               Psi4 1.4a2.dev612

  ==> Input File <==

--------------------------------------------------------------------------
#psi4
#
memory 32 gb

molecule  {
0 1
  N       -1.7531090     0.6487580     0.1985890
  C       -0.8584400    -0.3593730    -0.1157050
  C        0.5958890    -0.1944310    -0.0686340
  C       -1.6095070    -1.4830350    -0.4543950
  C       -3.0364380     0.1798280     0.0590890
  C       -2.9750140    -1.1422740    -0.3482900
  C       -1.4212420     1.9838780     0.6691930
  C        1.2419450     0.8845030    -0.6969540
  C        1.3939979    -1.2674323     0.4140546
  C        2.6315710     1.0013490    -0.6546280
  C        2.7689430    -1.0546610     0.6054980
  C        3.3999180     0.0321080    -0.0053240
  H       -1.1930810    -2.4304870    -0.7739750
  H       -3.8823240     0.8199580     0.2740310
  H       -3.8253090    -1.7817070    -0.5476340
  H       -2.2212640     2.3282100     1.3272780
  H       -0.4870200     1.9493020     1.2305480
  H       -1.3139190     2.6883760    -0.1607770
  H        0.6536140     1.6152250    -1.2478990
  H        0.8812590    -1.9928010     1.0799670
  H        3.1173860     1.8412050    -1.1464900
  H        3.3610660    -1.8124130     1.1137600
  H        4.4833320     0.1209150     0.0205430
units angstrom
no_reorient  #important for SAPT in psi4, default
symmetry c1  #important for SAPT in psi4, default
}

set PROPERTIES_ORIGIN ["COM"]
properties('MP2/aug-cc-pvtz', properties = ['dipole'])
--------------------------------------------------------------------------

    Molecular point group: c1
  Charge       = 0
  Multiplicity = 1
  Basis Set: AUG-CC-PVTZ
    Blend: AUG-CC-PVTZ
  Basis Set: (AUG-CC-PVTZ AUX)
    Blend: AUG-CC-PVTZ-JKFIT

    Orbital Energies [Eh]
    ---------------------

    Doubly Occupied:

       1A    -15.607991     2A    -11.271135     3A    -11.256881
       4A    -11.253834     5A    -11.249073     6A    -11.242282
       7A    -11.242162     8A    -11.239975     9A    -11.238887
      10A    -11.237166    11A    -11.208751    12A    -11.207288
      13A     -1.299323    14A     -1.153683    15A     -1.073795
      16A     -1.043567    17A     -1.014750    18A     -0.955607
      19A     -0.933753    20A     -0.832287    21A     -0.829189
      22A     -0.770756    23A     -0.742299    24A     -0.711911
      25A     -0.675685    26A     -0.638933    27A     -0.631522
      28A     -0.621737    29A     -0.594168    30A     -0.584933
      31A     -0.569657    32A     -0.568380    33A     -0.538548
      34A     -0.527554    35A     -0.523220    36A     -0.499320
      37A     -0.497375    38A     -0.486037    39A     -0.356246
      40A     -0.340459    41A     -0.335572    42A     -0.272248

  @DF-RHF Final Energy:  -477.53331180631471

   => Energetics <=

    Nuclear Repulsion Energy =            638.5070579327605174
    One-Electron Energy =               -1912.3248612309848795
    Two-Electron Energy =                 796.2844914919096482
    Total Energy =                       -477.5333118063147140
  Basis Set: (AUG-CC-PVTZ AUX)
    Blend: AUG-CC-PVTZ-RI
    Molecular point group: c1

    Geometry (in Angstrom), charge = 0, multiplicity = 1:

       Center              X                  Y                   Z               Mass
    ------------   -----------------  -----------------  -----------------  -----------------
         N           -1.756934625381     0.677900136640     0.218920042166    14.003074004430
         C           -0.862265625381    -0.330230863360    -0.095373957834    12.000000000000
         C            0.592063374619    -0.165288863360    -0.048302957834    12.000000000000
         C           -1.613332625381    -1.453892863360    -0.434063957834    12.000000000000
         C           -3.040263625381     0.208970136640     0.079420042166    12.000000000000
         C           -2.978839625381    -1.113131863360    -0.327958957834    12.000000000000
         C           -1.425067625381     2.013020136640     0.689524042166    12.000000000000
         C            1.238119374619     0.913645136640    -0.676622957834    12.000000000000
         C            1.390172274619    -1.238290163360     0.434385642166    12.000000000000
         C            2.627745374619     1.030491136640    -0.634296957834    12.000000000000
         C            2.765117374619    -1.025518863360     0.625829042166    12.000000000000
         C            3.396092374619     0.061250136640     0.015007042166    12.000000000000
         H           -1.196906625381    -2.401344863360    -0.753643957834     1.007825032230
         H           -3.886149625381     0.849100136640     0.294362042166     1.007825032230
         H           -3.829134625381    -1.752564863360    -0.527302957834     1.007825032230
         H           -2.225089625381     2.357352136640     1.347609042166     1.007825032230
         H           -0.490845625381     1.978444136640     1.250879042166     1.007825032230
         H           -1.317744625381     2.717518136640    -0.140445957834     1.007825032230
         H            0.649788374619     1.644367136640    -1.227567957834     1.007825032230
         H            0.877433374619    -1.963658863360     1.100298042166     1.007825032230
         H            3.113560374619     1.870347136640    -1.126158957834     1.007825032230
         H            3.357240374619    -1.783270863360     1.134091042166     1.007825032230
         H            4.479506374619     0.150057136640     0.040874042166     1.007825032230

  Basis Set: AUG-CC-PVTZ
    Blend: AUG-CC-PVTZ
  Basis Set: (AUG-CC-PVTZ AUX)
    Blend: AUG-CC-PVTZ-JKFIT
	 Reference Energy          =    -477.5333118063147140 [Eh]
	 Singles Energy            =      -0.0000000000000000 [Eh]
	 Same-Spin Energy          =      -0.5398994253653968 [Eh]
	 Opposite-Spin Energy      =      -1.6850094465366101 [Eh]
	 Correlation Energy        =      -2.2249088719020067 [Eh]
	 Total Energy              =    -479.7582206782167304 [Eh]

	 ================> DF-SCS-MP2 Energies <==================
	-----------------------------------------------------------
	 SCS Same-Spin Scale       =       0.3333333333333333 [-]
	 SCS Opposite-Spin Scale   =       1.2000000000000000 [-]
	 SCS Same-Spin Energy      =      -0.1799664751217989 [Eh]
	 SCS Opposite-Spin Energy  =      -2.0220113358439322 [Eh]
	 SCS Correlation Energy    =      -2.2019778109657313 [Eh]
	 SCS Total Energy          =    -479.7352896172804435 [Eh]
	-----------------------------------------------------------

  Dipole Moment: [D]
     X:     0.4365      Y:     1.9723      Z:     0.7280     Total:     2.1472

*** Psi4 exiting successfully. Buy a developer a beer!
