                               Psi4 1.4a2.dev612

  ==> Input File <==

--------------------------------------------------------------------------
#psi4
#
memory 32 gb

molecule  {
0 1
  N       -1.7531090     0.6487580     0.1985890
  C       -0.8584400    -0.3593730    -0.1157050
  C        0.5958890    -0.1944310    -0.0686340
  C       -1.6095070    -1.4830350    -0.4543950
  C       -3.0364380     0.1798280     0.0590890
  C       -2.9750140    -1.1422740    -0.3482900
  C       -1.4212420     1.9838780     0.6691930
  C        1.2419450     0.8845030    -0.6969540
  C        1.3787110    -1.1624060     0.5835710
  C        2.6315710     1.0013490    -0.6546280
  C        2.7689430    -1.0546610     0.6054980
  C        3.3999180     0.0321080    -0.0053240
  H       -1.1930810    -2.4304870    -0.7739750
  H       -3.8833085     0.8497736     0.1785844
  H       -3.8253090    -1.7817070    -0.5476340
  H       -2.2212640     2.3282100     1.3272780
  H       -0.4870200     1.9493020     1.2305480
  H       -1.3139190     2.6883760    -0.1607770
  H        0.6536140     1.6152250    -1.2478990
  H        0.8812590    -1.9928010     1.0799670
  H        3.1173860     1.8412050    -1.1464900
  H        3.3610660    -1.8124130     1.1137600
  H        4.4833320     0.1209150     0.0205430
units angstrom
no_reorient  #important for SAPT in psi4, default
symmetry c1  #important for SAPT in psi4, default
}

set PROPERTIES_ORIGIN ["COM"]
properties('MP2/aug-cc-pvtz', properties = ['dipole'])
--------------------------------------------------------------------------

    Molecular point group: c1
  Charge       = 0
  Multiplicity = 1
  Basis Set: AUG-CC-PVTZ
    Blend: AUG-CC-PVTZ
  Basis Set: (AUG-CC-PVTZ AUX)
    Blend: AUG-CC-PVTZ-JKFIT

    Orbital Energies [Eh]
    ---------------------

    Doubly Occupied:

       1A    -15.607406     2A    -11.270514     3A    -11.256525
       4A    -11.250163     5A    -11.248652     6A    -11.240831
       7A    -11.239692     8A    -11.239358     9A    -11.238109
      10A    -11.237155    11A    -11.208433    12A    -11.206943
      13A     -1.298761    14A     -1.155164    15A     -1.073316
      16A     -1.043956    17A     -1.016282    18A     -0.955778
      19A     -0.933283    20A     -0.833251    21A     -0.830674
      22A     -0.770540    23A     -0.742910    24A     -0.712210
      25A     -0.677622    26A     -0.640865    27A     -0.631172
      28A     -0.622178    29A     -0.596811    30A     -0.587303
      31A     -0.569615    32A     -0.568143    33A     -0.537284
      34A     -0.526970    35A     -0.524665    36A     -0.501904
      37A     -0.494840    38A     -0.491909    39A     -0.353619
      40A     -0.340330    41A     -0.335283    42A     -0.275405

  @DF-RHF Final Energy:  -477.54550490561036

   => Energetics <=

    Nuclear Repulsion Energy =            639.0261143630788183
    One-Electron Energy =               -1913.3715927573875888
    Two-Electron Energy =                 796.7999734886984697
    Total Energy =                       -477.5455049056104144
  Basis Set: (AUG-CC-PVTZ AUX)
    Blend: AUG-CC-PVTZ-RI
    Molecular point group: c1

    Geometry (in Angstrom), charge = 0, multiplicity = 1:

       Center              X                  Y                   Z               Mass
    ------------   -----------------  -----------------  -----------------  -----------------
         N           -1.755760546812     0.669685918705     0.206583077231    14.003074004430
         C           -0.861091546812    -0.338445081295    -0.107710922769    12.000000000000
         C            0.593237453188    -0.173503081295    -0.060639922769    12.000000000000
         C           -1.612158546812    -1.462107081295    -0.446400922769    12.000000000000
         C           -3.039089546812     0.200755918705     0.067083077231    12.000000000000
         C           -2.977665546812    -1.121346081295    -0.340295922769    12.000000000000
         C           -1.423893546812     2.004805918705     0.677187077231    12.000000000000
         C            1.239293453188     0.905430918705    -0.688959922769    12.000000000000
         C            1.376059453188    -1.141478081295     0.591565077231    12.000000000000
         C            2.628919453188     1.022276918705    -0.646633922769    12.000000000000
         C            2.766291453188    -1.033733081295     0.613492077231    12.000000000000
         C            3.397266453188     0.053035918705     0.002670077231    12.000000000000
         H           -1.195732546812    -2.409559081295    -0.765980922769     1.007825032230
         H           -3.885960046812     0.870701518705     0.186578477231     1.007825032230
         H           -3.827960546812    -1.760779081295    -0.539639922769     1.007825032230
         H           -2.223915546812     2.349137918705     1.335272077231     1.007825032230
         H           -0.489671546812     1.970229918705     1.238542077231     1.007825032230
         H           -1.316570546812     2.709303918705    -0.152782922769     1.007825032230
         H            0.650962453188     1.636152918705    -1.239904922769     1.007825032230
         H            0.878607453188    -1.971873081295     1.087961077231     1.007825032230
         H            3.114734453188     1.862132918705    -1.138495922769     1.007825032230
         H            3.358414453188    -1.791485081295     1.121754077231     1.007825032230
         H            4.480680453188     0.141842918705     0.028537077231     1.007825032230

  Basis Set: AUG-CC-PVTZ
    Blend: AUG-CC-PVTZ
  Basis Set: (AUG-CC-PVTZ AUX)
    Blend: AUG-CC-PVTZ-JKFIT
	 Reference Energy          =    -477.5455049056103576 [Eh]
	 Singles Energy            =      -0.0000000000000000 [Eh]
	 Same-Spin Energy          =      -0.5391980070556581 [Eh]
	 Opposite-Spin Energy      =      -1.6832906476424103 [Eh]
	 Correlation Energy        =      -2.2224886546980684 [Eh]
	 Total Energy              =    -479.7679935603084118 [Eh]

	 ================> DF-SCS-MP2 Energies <==================
	-----------------------------------------------------------
	 SCS Same-Spin Scale       =       0.3333333333333333 [-]
	 SCS Opposite-Spin Scale   =       1.2000000000000000 [-]
	 SCS Same-Spin Energy      =      -0.1797326690185527 [Eh]
	 SCS Opposite-Spin Energy  =      -2.0199487771708924 [Eh]
	 SCS Correlation Energy    =      -2.1996814461894449 [Eh]
	 SCS Total Energy          =    -479.7451863517998163 [Eh]
	-----------------------------------------------------------

  Dipole Moment: [D]
     X:     0.4897      Y:     1.8785      Z:     0.5947     Total:     2.0304

*** Psi4 exiting successfully. Buy a developer a beer!
