                               Psi4 1.4a2.dev612

  ==> Input File <==

--------------------------------------------------------------------------
#psi4
#
memory 32 gb

molecule  {
0 1
  N       -1.7531090     0.6487580     0.1985890
  C       -0.8584400    -0.3593730    -0.1157050
  C        0.5958890    -0.1944310    -0.0686340
  C       -1.6096936    -1.4684028    -0.5022057
  C       -3.0364380     0.1798280     0.0590890
  C       -2.9750140    -1.1422740    -0.3482900
  C       -1.4212420     1.9838780     0.6691930
  C        1.2419450     0.8845030    -0.6969540
  C        1.3787110    -1.1624060     0.5835710
  C        2.6315710     1.0013490    -0.6546280
  C        2.7689430    -1.0546610     0.6054980
  C        3.3999180     0.0321080    -0.0053240
  H       -1.1930810    -2.4304870    -0.7739750
  H       -3.8823240     0.8199580     0.2740310
  H       -3.8253090    -1.7817070    -0.5476340
  H       -2.2212640     2.3282100     1.3272780
  H       -0.4870200     1.9493020     1.2305480
  H       -1.3139190     2.6883760    -0.1607770
  H        0.6536140     1.6152250    -1.2478990
  H        0.8812590    -1.9928010     1.0799670
  H        3.1173860     1.8412050    -1.1464900
  H        3.3610660    -1.8124130     1.1137600
  H        4.4833320     0.1209150     0.0205430
units angstrom
no_reorient  #important for SAPT in psi4, default
symmetry c1  #important for SAPT in psi4, default
}

set PROPERTIES_ORIGIN ["COM"]
properties('MP2/aug-cc-pvtz', properties = ['dipole'])
--------------------------------------------------------------------------

    Molecular point group: c1
  Charge       = 0
  Multiplicity = 1
  Basis Set: AUG-CC-PVTZ
    Blend: AUG-CC-PVTZ
  Basis Set: (AUG-CC-PVTZ AUX)
    Blend: AUG-CC-PVTZ-JKFIT

    Orbital Energies [Eh]
    ---------------------

    Doubly Occupied:

       1A    -15.607561     2A    -11.270662     3A    -11.256523
       4A    -11.250144     5A    -11.248385     6A    -11.240813
       7A    -11.239708     8A    -11.239372     9A    -11.238163
      10A    -11.237280    11A    -11.208334    12A    -11.206978
      13A     -1.298769    14A     -1.155178    15A     -1.073146
      16A     -1.043963    17A     -1.016314    18A     -0.955901
      19A     -0.933257    20A     -0.833379    21A     -0.830611
      22A     -0.770759    23A     -0.743034    24A     -0.712180
      25A     -0.678014    26A     -0.640060    27A     -0.631961
      28A     -0.622517    29A     -0.596794    30A     -0.587279
      31A     -0.569640    32A     -0.568428    33A     -0.537755
      34A     -0.526997    35A     -0.523958    36A     -0.502301
      37A     -0.494739    38A     -0.491789    39A     -0.353150
      40A     -0.340341    41A     -0.335117    42A     -0.275748

  @DF-RHF Final Energy:  -477.54537098642720

   => Energetics <=

    Nuclear Repulsion Energy =            639.0008538096778921
    One-Electron Energy =               -1913.3184464331984600
    Two-Electron Energy =                 796.7722216370933666
    Total Energy =                       -477.5453709864272014
  Basis Set: (AUG-CC-PVTZ AUX)
    Blend: AUG-CC-PVTZ-RI
    Molecular point group: c1

    Geometry (in Angstrom), charge = 0, multiplicity = 1:

       Center              X                  Y                   Z               Mass
    ------------   -----------------  -----------------  -----------------  -----------------
         N           -1.755752608668     0.668759454385     0.209622974826    14.003074004430
         C           -0.861083608668    -0.339371545615    -0.104671025174    12.000000000000
         C            0.593245391332    -0.174429545615    -0.057600025174    12.000000000000
         C           -1.612337208668    -1.448401345615    -0.491171725174    12.000000000000
         C           -3.039081608668     0.199829454385     0.070122974826    12.000000000000
         C           -2.977657608668    -1.122272545615    -0.337256025174    12.000000000000
         C           -1.423885608668     2.003879454385     0.680226974826    12.000000000000
         C            1.239301391332     0.904504454385    -0.685920025174    12.000000000000
         C            1.376067391332    -1.142404545615     0.594604974826    12.000000000000
         C            2.628927391332     1.021350454385    -0.643594025174    12.000000000000
         C            2.766299391332    -1.034659545615     0.616531974826    12.000000000000
         C            3.397274391332     0.052109454385     0.005709974826    12.000000000000
         H           -1.195724608668    -2.410485545615    -0.762941025174     1.007825032230
         H           -3.884967608668     0.839959454385     0.285064974826     1.007825032230
         H           -3.827952608668    -1.761705545615    -0.536600025174     1.007825032230
         H           -2.223907608668     2.348211454385     1.338311974826     1.007825032230
         H           -0.489663608668     1.969303454385     1.241581974826     1.007825032230
         H           -1.316562608668     2.708377454385    -0.149743025174     1.007825032230
         H            0.650970391332     1.635226454385    -1.236865025174     1.007825032230
         H            0.878615391332    -1.972799545615     1.091000974826     1.007825032230
         H            3.114742391332     1.861206454385    -1.135456025174     1.007825032230
         H            3.358422391332    -1.792411545615     1.124793974826     1.007825032230
         H            4.480688391332     0.140916454385     0.031576974826     1.007825032230

  Basis Set: AUG-CC-PVTZ
    Blend: AUG-CC-PVTZ
  Basis Set: (AUG-CC-PVTZ AUX)
    Blend: AUG-CC-PVTZ-JKFIT
	 Reference Energy          =    -477.5453709864272014 [Eh]
	 Singles Energy            =      -0.0000000000000000 [Eh]
	 Same-Spin Energy          =      -0.5391678294932110 [Eh]
	 Opposite-Spin Energy      =      -1.6832852986522642 [Eh]
	 Correlation Energy        =      -2.2224531281454754 [Eh]
	 Total Energy              =    -479.7678241145727043 [Eh]

	 ================> DF-SCS-MP2 Energies <==================
	-----------------------------------------------------------
	 SCS Same-Spin Scale       =       0.3333333333333333 [-]
	 SCS Opposite-Spin Scale   =       1.2000000000000000 [-]
	 SCS Same-Spin Energy      =      -0.1797226098310703 [Eh]
	 SCS Opposite-Spin Energy  =      -2.0199423583827167 [Eh]
	 SCS Correlation Energy    =      -2.1996649682137872 [Eh]
	 SCS Total Energy          =    -479.7450359546409686 [Eh]
	-----------------------------------------------------------

  Dipole Moment: [D]
     X:     0.4932      Y:     1.8499      Z:     0.7237     Total:     2.0467

*** Psi4 exiting successfully. Buy a developer a beer!
