                               Psi4 1.4a2.dev612

  ==> Input File <==

--------------------------------------------------------------------------
#psi4
#
memory 32 gb

molecule  {
0 1
  N       -1.7531090     0.6487580     0.1985890
  C       -0.8584400    -0.3593730    -0.1157050
  C        0.5958890    -0.1944310    -0.0686340
  C       -1.6095070    -1.4830350    -0.4543950
  C       -3.0364380     0.1798280     0.0590890
  C       -2.9750140    -1.1422740    -0.3482900
  C       -1.4212420     1.9838780     0.6691930
  C        1.2419450     0.8845030    -0.6969540
  C        1.4016414    -1.3199454     0.3292965
  C        2.6315710     1.0013490    -0.6546280
  C        2.7689430    -1.0546610     0.6054980
  C        3.3999180     0.0321080    -0.0053240
  H       -1.1930810    -2.4304870    -0.7739750
  H       -3.8823240     0.8199580     0.2740310
  H       -3.8253090    -1.7817070    -0.5476340
  H       -2.2212640     2.3282100     1.3272780
  H       -0.4870200     1.9493020     1.2305480
  H       -1.3139190     2.6883760    -0.1607770
  H        0.6536140     1.6152250    -1.2478990
  H        0.8812590    -1.9928010     1.0799670
  H        3.1173860     1.8412050    -1.1464900
  H        3.3610660    -1.8124130     1.1137600
  H        4.4833320     0.1209150     0.0205430
units angstrom
no_reorient  #important for SAPT in psi4, default
symmetry c1  #important for SAPT in psi4, default
}

set PROPERTIES_ORIGIN ["COM"]
properties('MP2/aug-cc-pvtz', properties = ['dipole'])
--------------------------------------------------------------------------

    Molecular point group: c1
  Charge       = 0
  Multiplicity = 1
  Basis Set: AUG-CC-PVTZ
    Blend: AUG-CC-PVTZ
  Basis Set: (AUG-CC-PVTZ AUX)
    Blend: AUG-CC-PVTZ-JKFIT

    Orbital Energies [Eh]
    ---------------------

    Doubly Occupied:

       1A    -15.608409     2A    -11.271525     3A    -11.258105
       4A    -11.256899     5A    -11.249660     6A    -11.245946
       7A    -11.244499     8A    -11.243369     9A    -11.238338
      10A    -11.236373    11A    -11.209121    12A    -11.207711
      13A     -1.299749    14A     -1.152018    15A     -1.074159
      16A     -1.043275    17A     -1.012750    18A     -0.955197
      19A     -0.934113    20A     -0.831203    21A     -0.827510
      22A     -0.770814    23A     -0.741666    24A     -0.711638
      25A     -0.673738    26A     -0.638310    27A     -0.631111
      28A     -0.620142    29A     -0.592568    30A     -0.581987
      31A     -0.569834    32A     -0.567760    33A     -0.538552
      34A     -0.527856    35A     -0.522850    36A     -0.498828
      37A     -0.495972    38A     -0.480101    39A     -0.356790
      40A     -0.340431    41A     -0.335763    42A     -0.270959

  @DF-RHF Final Energy:  -477.51721455950315

   => Energetics <=

    Nuclear Repulsion Energy =            637.9118293294350224
    One-Electron Energy =               -1911.1228884176882730
    Two-Electron Energy =                 795.6938445287501054
    Total Energy =                       -477.5172145595031452
  Basis Set: (AUG-CC-PVTZ AUX)
    Blend: AUG-CC-PVTZ-RI
    Molecular point group: c1

    Geometry (in Angstrom), charge = 0, multiplicity = 1:

       Center              X                  Y                   Z               Mass
    ------------   -----------------  -----------------  -----------------  -----------------
         N           -1.757518510394     0.681911598937     0.225394691778    14.003074004430
         C           -0.862849510394    -0.326219401063    -0.088899308222    12.000000000000
         C            0.591479489606    -0.161277401063    -0.041828308222    12.000000000000
         C           -1.613916510394    -1.449881401063    -0.427589308222    12.000000000000
         C           -3.040847510394     0.212981598937     0.085894691778    12.000000000000
         C           -2.979423510394    -1.109120401063    -0.321484308222    12.000000000000
         C           -1.425651510394     2.017031598937     0.695998691778    12.000000000000
         C            1.237535489606     0.917656598937    -0.670148308222    12.000000000000
         C            1.397231889606    -1.286791801063     0.356102191778    12.000000000000
         C            2.627161489606     1.034502598937    -0.627822308222    12.000000000000
         C            2.764533489606    -1.021507401063     0.632303691778    12.000000000000
         C            3.395508489606     0.065261598937     0.021481691778    12.000000000000
         H           -1.197490510394    -2.397333401063    -0.747169308222     1.007825032230
         H           -3.886733510394     0.853111598937     0.300836691778     1.007825032230
         H           -3.829718510394    -1.748553401063    -0.520828308222     1.007825032230
         H           -2.225673510394     2.361363598937     1.354083691778     1.007825032230
         H           -0.491429510394     1.982455598937     1.257353691778     1.007825032230
         H           -1.318328510394     2.721529598937    -0.133971308222     1.007825032230
         H            0.649204489606     1.648378598937    -1.221093308222     1.007825032230
         H            0.876849489606    -1.959647401063     1.106772691778     1.007825032230
         H            3.112976489606     1.874358598937    -1.119684308222     1.007825032230
         H            3.356656489606    -1.779259401063     1.140565691778     1.007825032230
         H            4.478922489606     0.154068598937     0.047348691778     1.007825032230

  Basis Set: AUG-CC-PVTZ
    Blend: AUG-CC-PVTZ
  Basis Set: (AUG-CC-PVTZ AUX)
    Blend: AUG-CC-PVTZ-JKFIT
	 Reference Energy          =    -477.5172145595031452 [Eh]
	 Singles Energy            =      -0.0000000000000000 [Eh]
	 Same-Spin Energy          =      -0.5407004558328130 [Eh]
	 Opposite-Spin Energy      =      -1.6873262016908006 [Eh]
	 Correlation Energy        =      -2.2280266575236136 [Eh]
	 Total Energy              =    -479.7452412170267735 [Eh]

	 ================> DF-SCS-MP2 Energies <==================
	-----------------------------------------------------------
	 SCS Same-Spin Scale       =       0.3333333333333333 [-]
	 SCS Opposite-Spin Scale   =       1.2000000000000000 [-]
	 SCS Same-Spin Energy      =      -0.1802334852776043 [Eh]
	 SCS Opposite-Spin Energy  =      -2.0247914420289606 [Eh]
	 SCS Correlation Energy    =      -2.2050249273065647 [Eh]
	 SCS Total Energy          =    -479.7222394868097126 [Eh]
	-----------------------------------------------------------

  Dipole Moment: [D]
     X:     0.4271      Y:     2.0759      Z:     0.7312     Total:     2.2420

*** Psi4 exiting successfully. Buy a developer a beer!
