                               Psi4 1.4a2.dev612

  ==> Input File <==

--------------------------------------------------------------------------
#psi4
#
memory 32 gb

molecule  {
0 1
  N       -1.7531090     0.6487580     0.1985890
  C       -0.8584400    -0.3593730    -0.1157050
  C        0.5958890    -0.1944310    -0.0686340
  C       -1.6100669    -1.4391384    -0.5978271
  C       -3.0364380     0.1798280     0.0590890
  C       -2.9750140    -1.1422740    -0.3482900
  C       -1.4212420     1.9838780     0.6691930
  C        1.2419450     0.8845030    -0.6969540
  C        1.3787110    -1.1624060     0.5835710
  C        2.6315710     1.0013490    -0.6546280
  C        2.7689430    -1.0546610     0.6054980
  C        3.3999180     0.0321080    -0.0053240
  H       -1.1930810    -2.4304870    -0.7739750
  H       -3.8823240     0.8199580     0.2740310
  H       -3.8253090    -1.7817070    -0.5476340
  H       -2.2212640     2.3282100     1.3272780
  H       -0.4870200     1.9493020     1.2305480
  H       -1.3139190     2.6883760    -0.1607770
  H        0.6536140     1.6152250    -1.2478990
  H        0.8812590    -1.9928010     1.0799670
  H        3.1173860     1.8412050    -1.1464900
  H        3.3610660    -1.8124130     1.1137600
  H        4.4833320     0.1209150     0.0205430
units angstrom
no_reorient  #important for SAPT in psi4, default
symmetry c1  #important for SAPT in psi4, default
}

set PROPERTIES_ORIGIN ["COM"]
properties('MP2/aug-cc-pvtz', properties = ['dipole'])
--------------------------------------------------------------------------

    Molecular point group: c1
  Charge       = 0
  Multiplicity = 1
  Basis Set: AUG-CC-PVTZ
    Blend: AUG-CC-PVTZ
  Basis Set: (AUG-CC-PVTZ AUX)
    Blend: AUG-CC-PVTZ-JKFIT

    Orbital Energies [Eh]
    ---------------------

    Doubly Occupied:

       1A    -15.608069     2A    -11.270937     3A    -11.258396
       4A    -11.250332     5A    -11.248131     6A    -11.241244
       7A    -11.240250     8A    -11.239829     9A    -11.238819
      10A    -11.237986    11A    -11.209150    12A    -11.208021
      13A     -1.298793    14A     -1.155639    15A     -1.072009
      16A     -1.044255    17A     -1.016800    18A     -0.955741
      19A     -0.932815    20A     -0.833724    21A     -0.830822
      22A     -0.770260    23A     -0.742632    24A     -0.711375
      25A     -0.678294    26A     -0.640472    27A     -0.631868
      28A     -0.622741    29A     -0.596957    30A     -0.587695
      31A     -0.569396    32A     -0.568133    33A     -0.536101
      34A     -0.527879    35A     -0.520848    36A     -0.502719
      37A     -0.494171    38A     -0.491780    39A     -0.351630
      40A     -0.340644    41A     -0.334608    42A     -0.277024

  @DF-RHF Final Energy:  -477.54000823039553

   => Energetics <=

    Nuclear Repulsion Energy =            638.7409336751242108
    One-Electron Energy =               -1912.7839026428225679
    Two-Electron Energy =                 796.5029607373029421
    Total Energy =                       -477.5400082303955287
  Basis Set: (AUG-CC-PVTZ AUX)
    Blend: AUG-CC-PVTZ-RI
    Molecular point group: c1

    Geometry (in Angstrom), charge = 0, multiplicity = 1:

       Center              X                  Y                   Z               Mass
    ------------   -----------------  -----------------  -----------------  -----------------
         N           -1.755724092377     0.666523954343     0.216927469151    14.003074004430
         C           -0.861055092377    -0.341607045657    -0.097366530849    12.000000000000
         C            0.593273907623    -0.176665045657    -0.050295530849    12.000000000000
         C           -1.612681992377    -1.421372445657    -0.579488630849    12.000000000000
         C           -3.039053092377     0.197593954343     0.077427469151    12.000000000000
         C           -2.977629092377    -1.124508045657    -0.329951530849    12.000000000000
         C           -1.423857092377     2.001643954343     0.687531469151    12.000000000000
         C            1.239329907623     0.902268954343    -0.678615530849    12.000000000000
         C            1.376095907623    -1.144640045657     0.601909469151    12.000000000000
         C            2.628955907623     1.019114954343    -0.636289530849    12.000000000000
         C            2.766327907623    -1.036895045657     0.623836469151    12.000000000000
         C            3.397302907623     0.049873954343     0.013014469151    12.000000000000
         H           -1.195696092377    -2.412721045657    -0.755636530849     1.007825032230
         H           -3.884939092377     0.837723954343     0.292369469151     1.007825032230
         H           -3.827924092377    -1.763941045657    -0.529295530849     1.007825032230
         H           -2.223879092377     2.345975954343     1.345616469151     1.007825032230
         H           -0.489635092377     1.967067954343     1.248886469151     1.007825032230
         H           -1.316534092377     2.706141954343    -0.142438530849     1.007825032230
         H            0.650998907623     1.632990954343    -1.229560530849     1.007825032230
         H            0.878643907623    -1.975035045657     1.098305469151     1.007825032230
         H            3.114770907623     1.858970954343    -1.128151530849     1.007825032230
         H            3.358450907623    -1.794647045657     1.132098469151     1.007825032230
         H            4.480716907623     0.138680954343     0.038881469151     1.007825032230

  Basis Set: AUG-CC-PVTZ
    Blend: AUG-CC-PVTZ
  Basis Set: (AUG-CC-PVTZ AUX)
    Blend: AUG-CC-PVTZ-JKFIT
	 Reference Energy          =    -477.5400082303955287 [Eh]
	 Singles Energy            =      -0.0000000000000000 [Eh]
	 Same-Spin Energy          =      -0.5393769995260658 [Eh]
	 Opposite-Spin Energy      =      -1.6840509926311245 [Eh]
	 Correlation Energy        =      -2.2234279921571902 [Eh]
	 Total Energy              =    -479.7634362225527411 [Eh]

	 ================> DF-SCS-MP2 Energies <==================
	-----------------------------------------------------------
	 SCS Same-Spin Scale       =       0.3333333333333333 [-]
	 SCS Opposite-Spin Scale   =       1.2000000000000000 [-]
	 SCS Same-Spin Energy      =      -0.1797923331753553 [Eh]
	 SCS Opposite-Spin Energy  =      -2.0208611911573491 [Eh]
	 SCS Correlation Energy    =      -2.2006535243327043 [Eh]
	 SCS Total Energy          =    -479.7406617547282508 [Eh]
	-----------------------------------------------------------

  Dipole Moment: [D]
     X:     0.5359      Y:     1.8695      Z:     0.8319     Total:     2.1153

*** Psi4 exiting successfully. Buy a developer a beer!
