                               Psi4 1.4a2.dev612

  ==> Input File <==

--------------------------------------------------------------------------
#psi4
#
memory 32 gb

molecule  {
0 1
  N       -1.7531090     0.6487580     0.1985890
  C       -0.8584400    -0.3593730    -0.1157050
  C        0.5958890    -0.1944310    -0.0686340
  C       -1.6095070    -1.4830350    -0.4543950
  C       -3.0364380     0.1798280     0.0590890
  C       -2.9750140    -1.1422740    -0.3482900
  C       -1.4212420     1.9838780     0.6691930
  C        1.2419450     0.8845030    -0.6969540
  C        1.3787110    -1.1624060     0.5835710
  C        2.6315710     1.0013490    -0.6546280
  C        2.7689430    -1.0546610     0.6054980
  C        3.3999180     0.0321080    -0.0053240
  H       -1.1930810    -2.4304870    -0.7739750
  H       -3.8828163     0.8348658     0.2263077
  H       -3.8253090    -1.7817070    -0.5476340
  H       -2.2212640     2.3282100     1.3272780
  H       -0.4870200     1.9493020     1.2305480
  H       -1.3139190     2.6883760    -0.1607770
  H        0.6536140     1.6152250    -1.2478990
  H        0.8812590    -1.9928010     1.0799670
  H        3.1173860     1.8412050    -1.1464900
  H        3.3610660    -1.8124130     1.1137600
  H        4.4833320     0.1209150     0.0205430
units angstrom
no_reorient  #important for SAPT in psi4, default
symmetry c1  #important for SAPT in psi4, default
}

set PROPERTIES_ORIGIN ["COM"]
properties('MP2/aug-cc-pvtz', properties = ['dipole'])
--------------------------------------------------------------------------

    Molecular point group: c1
  Charge       = 0
  Multiplicity = 1
  Basis Set: AUG-CC-PVTZ
    Blend: AUG-CC-PVTZ
  Basis Set: (AUG-CC-PVTZ AUX)
    Blend: AUG-CC-PVTZ-JKFIT

    Orbital Energies [Eh]
    ---------------------

    Doubly Occupied:

       1A    -15.607504     2A    -11.270601     3A    -11.256456
       4A    -11.250151     5A    -11.248533     6A    -11.240761
       7A    -11.239612     8A    -11.239295     9A    -11.238017
      10A    -11.237086    11A    -11.208373    12A    -11.206939
      13A     -1.298818    14A     -1.155104    15A     -1.073331
      16A     -1.043937    17A     -1.016217    18A     -0.955899
      19A     -0.933324    20A     -0.833295    21A     -0.830624
      22A     -0.770695    23A     -0.743042    24A     -0.712254
      25A     -0.677808    26A     -0.640444    27A     -0.631653
      28A     -0.622347    29A     -0.596782    30A     -0.587228
      31A     -0.569670    32A     -0.568229    33A     -0.537701
      34A     -0.527070    35A     -0.524316    36A     -0.502049
      37A     -0.494851    38A     -0.491844    39A     -0.353780
      40A     -0.340290    41A     -0.335289    42A     -0.275256

  @DF-RHF Final Energy:  -477.54587564254933

   => Energetics <=

    Nuclear Repulsion Energy =            639.0398536987299849
    One-Electron Energy =               -1913.3985117178010569
    Two-Electron Energy =                 796.8127823765217954
    Total Energy =                       -477.5458756425492766
  Basis Set: (AUG-CC-PVTZ AUX)
    Blend: AUG-CC-PVTZ-RI
    Molecular point group: c1

    Geometry (in Angstrom), charge = 0, multiplicity = 1:

       Center              X                  Y                   Z               Mass
    ------------   -----------------  -----------------  -----------------  -----------------
         N           -1.755763704583     0.669781561555     0.206276902447    14.003074004430
         C           -0.861094704583    -0.338349438445    -0.108017097553    12.000000000000
         C            0.593234295417    -0.173407438445    -0.060946097553    12.000000000000
         C           -1.612161704583    -1.462011438445    -0.446707097553    12.000000000000
         C           -3.039092704583     0.200851561555     0.066776902447    12.000000000000
         C           -2.977668704583    -1.121250438445    -0.340602097553    12.000000000000
         C           -1.423896704583     2.004901561555     0.676880902447    12.000000000000
         C            1.239290295417     0.905526561555    -0.689266097553    12.000000000000
         C            1.376056295417    -1.141382438445     0.591258902447    12.000000000000
         C            2.628916295417     1.022372561555    -0.646940097553    12.000000000000
         C            2.766288295417    -1.033637438445     0.613185902447    12.000000000000
         C            3.397263295417     0.053131561555     0.002363902447    12.000000000000
         H           -1.195735704583    -2.409463438445    -0.766287097553     1.007825032230
         H           -3.885471004583     0.855889361555     0.233995602447     1.007825032230
         H           -3.827963704583    -1.760683438445    -0.539946097553     1.007825032230
         H           -2.223918704583     2.349233561555     1.334965902447     1.007825032230
         H           -0.489674704583     1.970325561555     1.238235902447     1.007825032230
         H           -1.316573704583     2.709399561555    -0.153089097553     1.007825032230
         H            0.650959295417     1.636248561555    -1.240211097553     1.007825032230
         H            0.878604295417    -1.971777438445     1.087654902447     1.007825032230
         H            3.114731295417     1.862228561555    -1.138802097553     1.007825032230
         H            3.358411295417    -1.791389438445     1.121447902447     1.007825032230
         H            4.480677295417     0.141938561555     0.028230902447     1.007825032230

  Basis Set: AUG-CC-PVTZ
    Blend: AUG-CC-PVTZ
  Basis Set: (AUG-CC-PVTZ AUX)
    Blend: AUG-CC-PVTZ-JKFIT
	 Reference Energy          =    -477.5458756425493334 [Eh]
	 Singles Energy            =      -0.0000000000000000 [Eh]
	 Same-Spin Energy          =      -0.5391751835487794 [Eh]
	 Opposite-Spin Energy      =      -1.6832330650699254 [Eh]
	 Correlation Energy        =      -2.2224082486187049 [Eh]
	 Total Energy              =    -479.7682838911680392 [Eh]

	 ================> DF-SCS-MP2 Energies <==================
	-----------------------------------------------------------
	 SCS Same-Spin Scale       =       0.3333333333333333 [-]
	 SCS Opposite-Spin Scale   =       1.2000000000000000 [-]
	 SCS Same-Spin Energy      =      -0.1797250611829264 [Eh]
	 SCS Opposite-Spin Energy  =      -2.0198796780839103 [Eh]
	 SCS Correlation Energy    =      -2.1996047392668370 [Eh]
	 SCS Total Energy          =    -479.7454803818161508 [Eh]
	-----------------------------------------------------------

  Dipole Moment: [D]
     X:     0.4771      Y:     1.8704      Z:     0.6362     Total:     2.0324

*** Psi4 exiting successfully. Buy a developer a beer!
