                               Psi4 1.4a2.dev612

  ==> Input File <==

--------------------------------------------------------------------------
#psi4
#
memory 32 gb

molecule  {
0 1
  N       -1.7531090     0.6487580     0.1985890
  C       -0.8584400    -0.3593730    -0.1157050
  C        0.5958890    -0.1944310    -0.0686340
  C       -1.6095070    -1.4830350    -0.4543950
  C       -3.0364380     0.1798280     0.0590890
  C       -2.9750140    -1.1422740    -0.3482900
  C       -1.4212420     1.9838780     0.6691930
  C        1.2419450     0.8845030    -0.6969540
  C        1.3787110    -1.1624060     0.5835710
  C        2.6315710     1.0013490    -0.6546280
  C        2.7689430    -1.0546610     0.6054980
  C        3.3999180     0.0321080    -0.0053240
  H       -1.1930810    -2.4304870    -0.7739750
  H       -3.8823240     0.8199580     0.2740310
  H       -3.8254262    -1.8703133    -0.2610177
  H       -2.2212640     2.3282100     1.3272780
  H       -0.4870200     1.9493020     1.2305480
  H       -1.3139190     2.6883760    -0.1607770
  H        0.6536140     1.6152250    -1.2478990
  H        0.8812590    -1.9928010     1.0799670
  H        3.1173860     1.8412050    -1.1464900
  H        3.3610660    -1.8124130     1.1137600
  H        4.4833320     0.1209150     0.0205430
units angstrom
no_reorient  #important for SAPT in psi4, default
symmetry c1  #important for SAPT in psi4, default
}

set PROPERTIES_ORIGIN ["COM"]
properties('MP2/aug-cc-pvtz', properties = ['dipole'])
--------------------------------------------------------------------------

    Molecular point group: c1
  Charge       = 0
  Multiplicity = 1
  Basis Set: AUG-CC-PVTZ
    Blend: AUG-CC-PVTZ
  Basis Set: (AUG-CC-PVTZ AUX)
    Blend: AUG-CC-PVTZ-JKFIT

    Orbital Energies [Eh]
    ---------------------

    Doubly Occupied:

       1A    -15.608372     2A    -11.271177     3A    -11.256818
       4A    -11.250382     5A    -11.249821     6A    -11.240981
       7A    -11.239880     8A    -11.239546     9A    -11.238324
      10A    -11.237446    11A    -11.211286    12A    -11.207488
      13A     -1.299583    14A     -1.155391    15A     -1.073481
      16A     -1.044175    17A     -1.016487    18A     -0.956094
      19A     -0.933057    20A     -0.833504    21A     -0.830785
      22A     -0.768483    23A     -0.743231    24A     -0.710522
      25A     -0.677834    26A     -0.640729    27A     -0.632390
      28A     -0.622231    29A     -0.596034    30A     -0.587509
      31A     -0.568763    32A     -0.566689    33A     -0.535590
      34A     -0.529964    35A     -0.520585    36A     -0.502467
      37A     -0.493755    38A     -0.492269    39A     -0.353938
      40A     -0.340418    41A     -0.334629    42A     -0.276074

  @DF-RHF Final Energy:  -477.54032912786124

   => Energetics <=

    Nuclear Repulsion Energy =            638.8975213577303975
    One-Electron Energy =               -1913.0993362244084892
    Two-Electron Energy =                 796.6614857388167366
    Total Energy =                       -477.5403291278612414
  Basis Set: (AUG-CC-PVTZ AUX)
    Blend: AUG-CC-PVTZ-RI
    Molecular point group: c1

    Geometry (in Angstrom), charge = 0, multiplicity = 1:

       Center              X                  Y                   Z               Mass
    ------------   -----------------  -----------------  -----------------  -----------------
         N           -1.755766111083     0.670445669176     0.204131905040    14.003074004430
         C           -0.861097111083    -0.337685330824    -0.110162094960    12.000000000000
         C            0.593231888917    -0.172743330824    -0.063091094960    12.000000000000
         C           -1.612164111083    -1.461347330824    -0.448852094960    12.000000000000
         C           -3.039095111083     0.201515669176     0.064631905040    12.000000000000
         C           -2.977671111083    -1.120586330824    -0.342747094960    12.000000000000
         C           -1.423899111083     2.005565669176     0.674735905040    12.000000000000
         C            1.239287888917     0.906190669176    -0.691411094960    12.000000000000
         C            1.376053888917    -1.140718330824     0.589113905040    12.000000000000
         C            2.628913888917     1.023036669176    -0.649085094960    12.000000000000
         C            2.766285888917    -1.032973330824     0.611040905040    12.000000000000
         C            3.397260888917     0.053795669176     0.000218905040    12.000000000000
         H           -1.195738111083    -2.408799330824    -0.768432094960     1.007825032230
         H           -3.884981111083     0.841645669176     0.279573905040     1.007825032230
         H           -3.828083311083    -1.848625630824    -0.255474794960     1.007825032230
         H           -2.223921111083     2.349897669176     1.332820905040     1.007825032230
         H           -0.489677111083     1.970989669176     1.236090905040     1.007825032230
         H           -1.316576111083     2.710063669176    -0.155234094960     1.007825032230
         H            0.650956888917     1.636912669176    -1.242356094960     1.007825032230
         H            0.878601888917    -1.971113330824     1.085509905040     1.007825032230
         H            3.114728888917     1.862892669176    -1.140947094960     1.007825032230
         H            3.358408888917    -1.790725330824     1.119302905040     1.007825032230
         H            4.480674888917     0.142602669176     0.026085905040     1.007825032230

  Basis Set: AUG-CC-PVTZ
    Blend: AUG-CC-PVTZ
  Basis Set: (AUG-CC-PVTZ AUX)
    Blend: AUG-CC-PVTZ-JKFIT
	 Reference Energy          =    -477.5403291278612414 [Eh]
	 Singles Energy            =      -0.0000000000000000 [Eh]
	 Same-Spin Energy          =      -0.5394087492947863 [Eh]
	 Opposite-Spin Energy      =      -1.6838814016520529 [Eh]
	 Correlation Energy        =      -2.2232901509468395 [Eh]
	 Total Energy              =    -479.7636192788081075 [Eh]

	 ================> DF-SCS-MP2 Energies <==================
	-----------------------------------------------------------
	 SCS Same-Spin Scale       =       0.3333333333333333 [-]
	 SCS Opposite-Spin Scale   =       1.2000000000000000 [-]
	 SCS Same-Spin Energy      =      -0.1798029164315954 [Eh]
	 SCS Opposite-Spin Energy  =      -2.0206576819824633 [Eh]
	 SCS Correlation Energy    =      -2.2004605984140588 [Eh]
	 SCS Total Energy          =    -479.7407897262752954 [Eh]
	-----------------------------------------------------------

  Dipole Moment: [D]
     X:     0.5736      Y:     1.8469      Z:     0.9135     Total:     2.1388

*** Psi4 exiting successfully. Buy a developer a beer!
