                               Psi4 1.4a2.dev612

  ==> Input File <==

--------------------------------------------------------------------------
#psi4
#
memory 32 gb

molecule  {
0 1
  N       -1.7531090     0.6487580     0.1985890
  C       -0.8584400    -0.3593730    -0.1157050
  C        0.5958890    -0.1944310    -0.0686340
  C       -1.6095070    -1.4830350    -0.4543950
  C       -3.0364380     0.1798280     0.0590890
  C       -2.9750140    -1.1422740    -0.3482900
  C       -1.4212420     1.9838780     0.6691930
  C        1.2419450     0.8845030    -0.6969540
  C        1.3787110    -1.1624060     0.5835710
  C        2.6315710     1.0013490    -0.6546280
  C        2.7689430    -1.0546610     0.6054980
  C        3.3999180     0.0321080    -0.0053240
  H       -1.1930810    -2.4304870    -0.7739750
  H       -3.8823240     0.8199580     0.2740310
  H       -3.8253090    -1.7817070    -0.5476340
  H       -2.2212640     2.3282100     1.3272780
  H       -0.4870200     1.9493020     1.2305480
  H       -1.3139190     2.6883760    -0.1607770
  H        0.6536140     1.6152250    -1.2478990
  H        0.8812590    -1.9928010     1.0799670
  H        3.1173860     1.8412050    -1.1464900
  H        3.3610660    -1.8124130     1.1137600
  H        4.4833320     0.1209150     0.0205430
units angstrom
no_reorient  #important for SAPT in psi4, default
symmetry c1  #important for SAPT in psi4, default
}

set PROPERTIES_ORIGIN ["COM"]
properties('MP2/aug-cc-pvtz', properties = ['dipole'])
--------------------------------------------------------------------------

    Molecular point group: c1
  Charge       = 0
  Multiplicity = 1
  Basis Set: AUG-CC-PVTZ
    Blend: AUG-CC-PVTZ
  Basis Set: (AUG-CC-PVTZ AUX)
    Blend: AUG-CC-PVTZ-JKFIT

    Orbital Energies [Eh]
    ---------------------

    Doubly Occupied:

       1A    -15.607605     2A    -11.270671     3A    -11.256469
       4A    -11.250169     5A    -11.248553     6A    -11.240718
       7A    -11.239564     8A    -11.239257     9A    -11.237953
      10A    -11.237049    11A    -11.208376    12A    -11.206975
      13A     -1.298882    14A     -1.155073    15A     -1.073369
      16A     -1.043933    17A     -1.016180    18A     -0.955953
      19A     -0.933369    20A     -0.833306    21A     -0.830600
      22A     -0.770775    23A     -0.743090    24A     -0.712281
      25A     -0.677893    26A     -0.640002    27A     -0.632048
      28A     -0.622499    29A     -0.596726    30A     -0.587176
      31A     -0.569717    32A     -0.568247    33A     -0.538100
      34A     -0.527226    35A     -0.523760    36A     -0.502197
      37A     -0.494885    38A     -0.491787    39A     -0.353957
      40A     -0.340275    41A     -0.335313    42A     -0.275140

  @DF-RHF Final Energy:  -477.54598890557128

   => Energetics <=

    Nuclear Repulsion Energy =            639.0444568352671695
    One-Electron Energy =               -1913.4066511796449959
    Two-Electron Energy =                 796.8162054388063780
    Total Energy =                       -477.5459889055713347
  Basis Set: (AUG-CC-PVTZ AUX)
    Blend: AUG-CC-PVTZ-RI
    Molecular point group: c1

    Geometry (in Angstrom), charge = 0, multiplicity = 1:

       Center              X                  Y                   Z               Mass
    ------------   -----------------  -----------------  -----------------  -----------------
         N           -1.755766862995     0.669877204406     0.205970727663    14.003074004430
         C           -0.861097862995    -0.338253795594    -0.108323272337    12.000000000000
         C            0.593231137005    -0.173311795594    -0.061252272337    12.000000000000
         C           -1.612164862995    -1.461915795594    -0.447013272337    12.000000000000
         C           -3.039095862995     0.200947204406     0.066470727663    12.000000000000
         C           -2.977671862995    -1.121154795594    -0.340908272337    12.000000000000
         C           -1.423899862995     2.004997204406     0.676574727663    12.000000000000
         C            1.239287137005     0.905622204406    -0.689572272337    12.000000000000
         C            1.376053137005    -1.141286795594     0.590952727663    12.000000000000
         C            2.628913137005     1.022468204406    -0.647246272337    12.000000000000
         C            2.766285137005    -1.033541795594     0.612879727663    12.000000000000
         C            3.397260137005     0.053227204406     0.002057727663    12.000000000000
         H           -1.195738862995    -2.409367795594    -0.766593272337     1.007825032230
         H           -3.884981862995     0.841077204406     0.281412727663     1.007825032230
         H           -3.827966862995    -1.760587795594    -0.540252272337     1.007825032230
         H           -2.223921862995     2.349329204406     1.334659727663     1.007825032230
         H           -0.489677862995     1.970421204406     1.237929727663     1.007825032230
         H           -1.316576862995     2.709495204406    -0.153395272337     1.007825032230
         H            0.650956137005     1.636344204406    -1.240517272337     1.007825032230
         H            0.878601137005    -1.971681795594     1.087348727663     1.007825032230
         H            3.114728137005     1.862324204406    -1.139108272337     1.007825032230
         H            3.358408137005    -1.791293795594     1.121141727663     1.007825032230
         H            4.480674137005     0.142034204406     0.027924727663     1.007825032230

  Basis Set: AUG-CC-PVTZ
    Blend: AUG-CC-PVTZ
  Basis Set: (AUG-CC-PVTZ AUX)
    Blend: AUG-CC-PVTZ-JKFIT
	 Reference Energy          =    -477.5459889055712779 [Eh]
	 Singles Energy            =      -0.0000000000000000 [Eh]
	 Same-Spin Energy          =      -0.5391729951886460 [Eh]
	 Opposite-Spin Energy      =      -1.6832207421122616 [Eh]
	 Correlation Energy        =      -2.2223937373009077 [Eh]
	 Total Energy              =    -479.7683826428722114 [Eh]

	 ================> DF-SCS-MP2 Energies <==================
	-----------------------------------------------------------
	 SCS Same-Spin Scale       =       0.3333333333333333 [-]
	 SCS Opposite-Spin Scale   =       1.2000000000000000 [-]
	 SCS Same-Spin Energy      =      -0.1797243317295487 [Eh]
	 SCS Opposite-Spin Energy  =      -2.0198648905347136 [Eh]
	 SCS Correlation Energy    =      -2.1995892222642621 [Eh]
	 SCS Total Energy          =    -479.7455781278355289 [Eh]
	-----------------------------------------------------------

  Dipole Moment: [D]
     X:     0.4698      Y:     1.8588      Z:     0.6768     Total:     2.0332

*** Psi4 exiting successfully. Buy a developer a beer!
