                               Psi4 1.4a2.dev612

  ==> Input File <==

--------------------------------------------------------------------------
#psi4
#
memory 32 gb

molecule  {
0 1
  N       -1.7531090     0.6487580     0.1985890
  C       -0.8584400    -0.3593730    -0.1157050
  C        0.5958890    -0.1944310    -0.0686340
  C       -1.6095070    -1.4830350    -0.4543950
  C       -3.0364380     0.1798280     0.0590890
  C       -2.9750140    -1.1422740    -0.3482900
  C       -1.4212420     1.9838780     0.6691930
  C        1.2419450     0.8845030    -0.6969540
  C        1.3787110    -1.1624060     0.5835710
  C        2.6315710     1.0013490    -0.6546280
  C        2.7689430    -1.0546610     0.6054980
  C        3.3999180     0.0321080    -0.0053240
  H       -1.1930810    -2.4304870    -0.7739750
  H       -3.8823240     0.8199580     0.2740310
  H       -3.8253676    -1.8260101    -0.4043258
  H       -2.2212640     2.3282100     1.3272780
  H       -0.4870200     1.9493020     1.2305480
  H       -1.3139190     2.6883760    -0.1607770
  H        0.6536140     1.6152250    -1.2478990
  H        0.8812590    -1.9928010     1.0799670
  H        3.1173860     1.8412050    -1.1464900
  H        3.3610660    -1.8124130     1.1137600
  H        4.4833320     0.1209150     0.0205430
units angstrom
no_reorient  #important for SAPT in psi4, default
symmetry c1  #important for SAPT in psi4, default
}

set PROPERTIES_ORIGIN ["COM"]
properties('MP2/aug-cc-pvtz', properties = ['dipole'])
--------------------------------------------------------------------------

    Molecular point group: c1
  Charge       = 0
  Multiplicity = 1
  Basis Set: AUG-CC-PVTZ
    Blend: AUG-CC-PVTZ
  Basis Set: (AUG-CC-PVTZ AUX)
    Blend: AUG-CC-PVTZ-JKFIT

    Orbital Energies [Eh]
    ---------------------

    Doubly Occupied:

       1A    -15.607755     2A    -11.270801     3A    -11.256533
       4A    -11.250210     5A    -11.248843     6A    -11.240791
       7A    -11.239665     8A    -11.239344     9A    -11.238085
      10A    -11.237190    11A    -11.209039    12A    -11.207114
      13A     -1.299026    14A     -1.155169    15A     -1.073368
      16A     -1.043996    17A     -1.016277    18A     -0.955973
      19A     -0.933263    20A     -0.833360    21A     -0.830657
      22A     -0.770126    23A     -0.743115    24A     -0.711807
      25A     -0.677901    26A     -0.640243    27A     -0.632109
      28A     -0.622302    29A     -0.596577    30A     -0.587288
      31A     -0.568958    32A     -0.568278    33A     -0.536968
      34A     -0.528588    35A     -0.522953    36A     -0.502279
      37A     -0.494412    38A     -0.492118    39A     -0.353851
      40A     -0.340298    41A     -0.335038    42A     -0.275501

  @DF-RHF Final Energy:  -477.54471141903485

   => Energetics <=

    Nuclear Repulsion Energy =            639.0072414482702925
    One-Electron Energy =               -1913.3295709722760876
    Two-Electron Energy =                 796.7776181049709976
    Total Energy =                       -477.5447114190349112
  Basis Set: (AUG-CC-PVTZ AUX)
    Blend: AUG-CC-PVTZ-RI
    Molecular point group: c1

    Geometry (in Angstrom), charge = 0, multiplicity = 1:

       Center              X                  Y                   Z               Mass
    ------------   -----------------  -----------------  -----------------  -----------------
         N           -1.755766487039     0.670161436470     0.205051316031    14.003074004430
         C           -0.861097487039    -0.337969563530    -0.109242683969    12.000000000000
         C            0.593231512961    -0.173027563530    -0.062171683969    12.000000000000
         C           -1.612164487039    -1.461631563530    -0.447932683969    12.000000000000
         C           -3.039095487039     0.201231436470     0.065551316031    12.000000000000
         C           -2.977671487039    -1.120870563530    -0.341827683969    12.000000000000
         C           -1.423899487039     2.005281436470     0.675655316031    12.000000000000
         C            1.239287512961     0.905906436470    -0.690491683969    12.000000000000
         C            1.376053512961    -1.141002563530     0.590033316031    12.000000000000
         C            2.628913512961     1.022752436470    -0.648165683969    12.000000000000
         C            2.766285512961    -1.033257563530     0.611960316031    12.000000000000
         C            3.397260512961     0.053511436470     0.001138316031    12.000000000000
         H           -1.195738487039    -2.409083563530    -0.767512683969     1.007825032230
         H           -3.884981487039     0.841361436470     0.280493316031     1.007825032230
         H           -3.828025087039    -1.804606663530    -0.397863483969     1.007825032230
         H           -2.223921487039     2.349613436470     1.333740316031     1.007825032230
         H           -0.489677487039     1.970705436470     1.237010316031     1.007825032230
         H           -1.316576487039     2.709779436470    -0.154314683969     1.007825032230
         H            0.650956512961     1.636628436470    -1.241436683969     1.007825032230
         H            0.878601512961    -1.971397563530     1.086429316031     1.007825032230
         H            3.114728512961     1.862608436470    -1.140027683969     1.007825032230
         H            3.358408512961    -1.791009563530     1.120222316031     1.007825032230
         H            4.480674512961     0.142318436470     0.027005316031     1.007825032230

  Basis Set: AUG-CC-PVTZ
    Blend: AUG-CC-PVTZ
  Basis Set: (AUG-CC-PVTZ AUX)
    Blend: AUG-CC-PVTZ-JKFIT
	 Reference Energy          =    -477.5447114190348543 [Eh]
	 Singles Energy            =      -0.0000000000000000 [Eh]
	 Same-Spin Energy          =      -0.5392267914311210 [Eh]
	 Opposite-Spin Energy      =      -1.6833652690835250 [Eh]
	 Correlation Energy        =      -2.2225920605146459 [Eh]
	 Total Energy              =    -479.7673034795495255 [Eh]

	 ================> DF-SCS-MP2 Energies <==================
	-----------------------------------------------------------
	 SCS Same-Spin Scale       =       0.3333333333333333 [-]
	 SCS Opposite-Spin Scale   =       1.2000000000000000 [-]
	 SCS Same-Spin Energy      =      -0.1797422638103736 [Eh]
	 SCS Opposite-Spin Energy  =      -2.0200383229002301 [Eh]
	 SCS Correlation Energy    =      -2.1997805867106037 [Eh]
	 SCS Total Energy          =    -479.7444920057454851 [Eh]
	-----------------------------------------------------------

  Dipole Moment: [D]
     X:     0.5017      Y:     1.8384      Z:     0.7932     Total:     2.0641

*** Psi4 exiting successfully. Buy a developer a beer!
