                               Psi4 1.4a2.dev612

  ==> Input File <==

--------------------------------------------------------------------------
#psi4
#
memory 32 gb

molecule  {
0 1
  N       -1.7531090     0.6487580     0.1985890
  C       -0.8584400    -0.3593730    -0.1157050
  C        0.5958890    -0.1944310    -0.0686340
  C       -1.6095070    -1.4830350    -0.4543950
  C       -3.0364380     0.1798280     0.0590890
  C       -2.9750140    -1.1422740    -0.3482900
  C       -1.4212420     1.9838780     0.6691930
  C        1.2419450     0.8845030    -0.6969540
  C        1.3787110    -1.1624060     0.5835710
  C        2.6315710     1.0013490    -0.6546280
  C        2.7689430    -1.0546610     0.6054980
  C        3.3999180     0.0321080    -0.0053240
  H       -1.1915255    -2.4912939    -0.5834491
  H       -3.8823240     0.8199580     0.2740310
  H       -3.8253090    -1.7817070    -0.5476340
  H       -2.2212640     2.3282100     1.3272780
  H       -0.4870200     1.9493020     1.2305480
  H       -1.3139190     2.6883760    -0.1607770
  H        0.6536140     1.6152250    -1.2478990
  H        0.8812590    -1.9928010     1.0799670
  H        3.1173860     1.8412050    -1.1464900
  H        3.3610660    -1.8124130     1.1137600
  H        4.4833320     0.1209150     0.0205430
units angstrom
no_reorient  #important for SAPT in psi4, default
symmetry c1  #important for SAPT in psi4, default
}

set PROPERTIES_ORIGIN ["COM"]
properties('MP2/aug-cc-pvtz', properties = ['dipole'])
--------------------------------------------------------------------------

    Molecular point group: c1
  Charge       = 0
  Multiplicity = 1
  Basis Set: AUG-CC-PVTZ
    Blend: AUG-CC-PVTZ
  Basis Set: (AUG-CC-PVTZ AUX)
    Blend: AUG-CC-PVTZ-JKFIT

    Orbital Energies [Eh]
    ---------------------

    Doubly Occupied:

       1A    -15.607950     2A    -11.270891     3A    -11.256989
       4A    -11.250455     5A    -11.248749     6A    -11.240816
       7A    -11.239701     8A    -11.239376     9A    -11.238022
      10A    -11.237326    11A    -11.209137    12A    -11.207940
      13A     -1.299190    14A     -1.155213    15A     -1.073444
      16A     -1.044120    17A     -1.016336    18A     -0.956047
      19A     -0.933210    20A     -0.833408    21A     -0.830859
      22A     -0.769957    23A     -0.742940    24A     -0.711719
      25A     -0.677909    26A     -0.639635    27A     -0.632591
      28A     -0.622696    29A     -0.596544    30A     -0.587384
      31A     -0.569492    32A     -0.568319    33A     -0.537381
      34A     -0.528089    35A     -0.522223    36A     -0.502457
      37A     -0.495061    38A     -0.491391    39A     -0.354186
      40A     -0.340237    41A     -0.335352    42A     -0.275117

  @DF-RHF Final Energy:  -477.54383877874574

   => Energetics <=

    Nuclear Repulsion Energy =            638.9978254185243713
    One-Electron Energy =               -1913.3036056128821656
    Two-Electron Energy =                 796.7619414156120001
    Total Energy =                       -477.5438387787457941
  Basis Set: (AUG-CC-PVTZ AUX)
    Blend: AUG-CC-PVTZ-RI
    Molecular point group: c1

    Geometry (in Angstrom), charge = 0, multiplicity = 1:

       Center              X                  Y                   Z               Mass
    ------------   -----------------  -----------------  -----------------  -----------------
         N           -1.755776842499     0.670267318657     0.204748384987    14.003074004430
         C           -0.861107842499    -0.337863681343    -0.109545615013    12.000000000000
         C            0.593221157501    -0.172921681343    -0.062474615013    12.000000000000
         C           -1.612174842499    -1.461525681343    -0.448235615013    12.000000000000
         C           -3.039105842499     0.201337318657     0.065248384987    12.000000000000
         C           -2.977681842499    -1.120764681343    -0.342130615013    12.000000000000
         C           -1.423909842499     2.005387318657     0.675352384987    12.000000000000
         C            1.239277157501     0.906012318657    -0.690794615013    12.000000000000
         C            1.376043157501    -1.140896681343     0.589730384987    12.000000000000
         C            2.628903157501     1.022858318657    -0.648468615013    12.000000000000
         C            2.766275157501    -1.033151681343     0.611657384987    12.000000000000
         C            3.397250157501     0.053617318657     0.000835384987    12.000000000000
         H           -1.194193342499    -2.469784581343    -0.577289715013     1.007825032230
         H           -3.884991842499     0.841467318657     0.280190384987     1.007825032230
         H           -3.827976842499    -1.760197681343    -0.541474615013     1.007825032230
         H           -2.223931842499     2.349719318657     1.333437384987     1.007825032230
         H           -0.489687842499     1.970811318657     1.236707384987     1.007825032230
         H           -1.316586842499     2.709885318657    -0.154617615013     1.007825032230
         H            0.650946157501     1.636734318657    -1.241739615013     1.007825032230
         H            0.878591157501    -1.971291681343     1.086126384987     1.007825032230
         H            3.114718157501     1.862714318657    -1.140330615013     1.007825032230
         H            3.358398157501    -1.790903681343     1.119919384987     1.007825032230
         H            4.480664157501     0.142424318657     0.026702384987     1.007825032230

  Basis Set: AUG-CC-PVTZ
    Blend: AUG-CC-PVTZ
  Basis Set: (AUG-CC-PVTZ AUX)
    Blend: AUG-CC-PVTZ-JKFIT
	 Reference Energy          =    -477.5438387787457373 [Eh]
	 Singles Energy            =      -0.0000000000000000 [Eh]
	 Same-Spin Energy          =      -0.5392731630029157 [Eh]
	 Opposite-Spin Energy      =      -1.6835273562772088 [Eh]
	 Correlation Energy        =      -2.2228005192801246 [Eh]
	 Total Energy              =    -479.7666392980258365 [Eh]

	 ================> DF-SCS-MP2 Energies <==================
	-----------------------------------------------------------
	 SCS Same-Spin Scale       =       0.3333333333333333 [-]
	 SCS Opposite-Spin Scale   =       1.2000000000000000 [-]
	 SCS Same-Spin Energy      =      -0.1797577210009719 [Eh]
	 SCS Opposite-Spin Energy  =      -2.0202328275326504 [Eh]
	 SCS Correlation Energy    =      -2.1999905485336222 [Eh]
	 SCS Total Energy          =    -479.7438293272793430 [Eh]
	-----------------------------------------------------------

  Dipole Moment: [D]
     X:     0.4594      Y:     1.8429      Z:     0.8267     Total:     2.0714

*** Psi4 exiting successfully. Buy a developer a beer!
