                               Psi4 1.4a2.dev612

  ==> Input File <==

--------------------------------------------------------------------------
#psi4
#
memory 32 gb

molecule  {
0 1
  N       -1.7531090     0.6487580     0.1985890
  C       -0.8584400    -0.3593730    -0.1157050
  C        0.5958890    -0.1944310    -0.0686340
  C       -1.6106268    -1.3952418    -0.7412592
  C       -3.0364380     0.1798280     0.0590890
  C       -2.9750140    -1.1422740    -0.3482900
  C       -1.4212420     1.9838780     0.6691930
  C        1.2419450     0.8845030    -0.6969540
  C        1.3787110    -1.1624060     0.5835710
  C        2.6315710     1.0013490    -0.6546280
  C        2.7689430    -1.0546610     0.6054980
  C        3.3999180     0.0321080    -0.0053240
  H       -1.1930810    -2.4304870    -0.7739750
  H       -3.8823240     0.8199580     0.2740310
  H       -3.8253090    -1.7817070    -0.5476340
  H       -2.2212640     2.3282100     1.3272780
  H       -0.4870200     1.9493020     1.2305480
  H       -1.3139190     2.6883760    -0.1607770
  H        0.6536140     1.6152250    -1.2478990
  H        0.8812590    -1.9928010     1.0799670
  H        3.1173860     1.8412050    -1.1464900
  H        3.3610660    -1.8124130     1.1137600
  H        4.4833320     0.1209150     0.0205430
units angstrom
no_reorient  #important for SAPT in psi4, default
symmetry c1  #important for SAPT in psi4, default
}

set PROPERTIES_ORIGIN ["COM"]
properties('MP2/aug-cc-pvtz', properties = ['dipole'])
--------------------------------------------------------------------------

    Molecular point group: c1
  Charge       = 0
  Multiplicity = 1
  Basis Set: AUG-CC-PVTZ
    Blend: AUG-CC-PVTZ
  Basis Set: (AUG-CC-PVTZ AUX)
    Blend: AUG-CC-PVTZ-JKFIT

    Orbital Energies [Eh]
    ---------------------

    Doubly Occupied:

       1A    -15.610389     2A    -11.272120     3A    -11.265399
       4A    -11.251228     5A    -11.248122     6A    -11.242543
       7A    -11.241692     8A    -11.241035     9A    -11.240370
      10A    -11.239555    11A    -11.212896    12A    -11.211546
      13A     -1.299575    14A     -1.156945    15A     -1.068749
      16A     -1.045275    17A     -1.018052    18A     -0.955471
      19A     -0.931553    20A     -0.834718    21A     -0.831619
      22A     -0.768628    23A     -0.741633    24A     -0.709060
      25A     -0.678881    26A     -0.641922    27A     -0.631910
      28A     -0.623562    29A     -0.597500    30A     -0.588859
      31A     -0.570220    32A     -0.565220    33A     -0.532327
      34A     -0.527946    35A     -0.511835    36A     -0.503766
      37A     -0.492196    38A     -0.490858    39A     -0.349660
      40A     -0.341564    41A     -0.333755    42A     -0.279162

  @DF-RHF Final Energy:  -477.52137930442757

   => Energetics <=

    Nuclear Repulsion Energy =            637.9391331096335307
    One-Electron Energy =               -1911.1223913157475636
    Two-Electron Energy =                 795.6618789016864639
    Total Energy =                       -477.5213793044275690
  Basis Set: (AUG-CC-PVTZ AUX)
    Blend: AUG-CC-PVTZ-RI
    Molecular point group: c1

    Geometry (in Angstrom), charge = 0, multiplicity = 1:

       Center              X                  Y                   Z               Mass
    ------------   -----------------  -----------------  -----------------  -----------------
         N           -1.755681321759     0.663170704279     0.227884210638    14.003074004430
         C           -0.861012321759    -0.344960295721    -0.086409789362    12.000000000000
         C            0.593316678241    -0.180018295721    -0.039338789362    12.000000000000
         C           -1.613199121759    -1.380829095721    -0.711963989362    12.000000000000
         C           -3.039010321759     0.194240704279     0.088384210638    12.000000000000
         C           -2.977586321759    -1.127861295721    -0.318994789362    12.000000000000
         C           -1.423814321759     1.998290704279     0.698488210638    12.000000000000
         C            1.239372678241     0.898915704279    -0.667658789362    12.000000000000
         C            1.376138678241    -1.147993295721     0.612866210638    12.000000000000
         C            2.628998678241     1.015761704279    -0.625332789362    12.000000000000
         C            2.766370678241    -1.040248295721     0.634793210638    12.000000000000
         C            3.397345678241     0.046520704279     0.023971210638    12.000000000000
         H           -1.195653321759    -2.416074295721    -0.744679789362     1.007825032230
         H           -3.884896321759     0.834370704279     0.303326210638     1.007825032230
         H           -3.827881321759    -1.767294295721    -0.518338789362     1.007825032230
         H           -2.223836321759     2.342622704279     1.356573210638     1.007825032230
         H           -0.489592321759     1.963714704279     1.259843210638     1.007825032230
         H           -1.316491321759     2.702788704279    -0.131481789362     1.007825032230
         H            0.651041678241     1.629637704279    -1.218603789362     1.007825032230
         H            0.878686678241    -1.978388295721     1.109262210638     1.007825032230
         H            3.114813678241     1.855617704279    -1.117194789362     1.007825032230
         H            3.358493678241    -1.798000295721     1.143055210638     1.007825032230
         H            4.480759678241     0.135327704279     0.049838210638     1.007825032230

  Basis Set: AUG-CC-PVTZ
    Blend: AUG-CC-PVTZ
  Basis Set: (AUG-CC-PVTZ AUX)
    Blend: AUG-CC-PVTZ-JKFIT
	 Reference Energy          =    -477.5213793044275690 [Eh]
	 Singles Energy            =      -0.0000000000000000 [Eh]
	 Same-Spin Energy          =      -0.5401898556331948 [Eh]
	 Opposite-Spin Energy      =      -1.6868650615543577 [Eh]
	 Correlation Energy        =      -2.2270549171875524 [Eh]
	 Total Energy              =    -479.7484342216151276 [Eh]

	 ================> DF-SCS-MP2 Energies <==================
	-----------------------------------------------------------
	 SCS Same-Spin Scale       =       0.3333333333333333 [-]
	 SCS Opposite-Spin Scale   =       1.2000000000000000 [-]
	 SCS Same-Spin Energy      =      -0.1800632852110649 [Eh]
	 SCS Opposite-Spin Energy  =      -2.0242380738652290 [Eh]
	 SCS Correlation Energy    =      -2.2043013590762941 [Eh]
	 SCS Total Energy          =    -479.7256806635038515 [Eh]
	-----------------------------------------------------------

  Dipole Moment: [D]
     X:     0.5848      Y:     1.9858      Z:     1.0313     Total:     2.3128

*** Psi4 exiting successfully. Buy a developer a beer!
