                               Psi4 1.4a2.dev612

  ==> Input File <==

--------------------------------------------------------------------------
#psi4
#
memory 32 gb

molecule  {
0 1
  N       -1.7531090     0.6487580     0.1985890
  C       -0.8584400    -0.3593730    -0.1157050
  C        0.5958890    -0.1944310    -0.0686340
  C       -1.6095070    -1.4830350    -0.4543950
  C       -3.0364380     0.1798280     0.0590890
  C       -2.9750140    -1.1422740    -0.3482900
  C       -1.4212420     1.9838780     0.6691930
  C        1.2419450     0.8845030    -0.6969540
  C        1.3787110    -1.1624060     0.5835710
  C        2.6315710     1.0013490    -0.6546280
  C        2.7689430    -1.0546610     0.6054980
  C        3.3999180     0.0321080    -0.0053240
  H       -1.1926921    -2.4456887    -0.7263435
  H       -3.8823240     0.8199580     0.2740310
  H       -3.8253090    -1.7817070    -0.5476340
  H       -2.2212640     2.3282100     1.3272780
  H       -0.4870200     1.9493020     1.2305480
  H       -1.3139190     2.6883760    -0.1607770
  H        0.6536140     1.6152250    -1.2478990
  H        0.8812590    -1.9928010     1.0799670
  H        3.1173860     1.8412050    -1.1464900
  H        3.3610660    -1.8124130     1.1137600
  H        4.4833320     0.1209150     0.0205430
units angstrom
no_reorient  #important for SAPT in psi4, default
symmetry c1  #important for SAPT in psi4, default
}

set PROPERTIES_ORIGIN ["COM"]
properties('MP2/aug-cc-pvtz', properties = ['dipole'])
--------------------------------------------------------------------------

    Molecular point group: c1
  Charge       = 0
  Multiplicity = 1
  Basis Set: AUG-CC-PVTZ
    Blend: AUG-CC-PVTZ
  Basis Set: (AUG-CC-PVTZ AUX)
    Blend: AUG-CC-PVTZ-JKFIT

    Orbital Energies [Eh]
    ---------------------

    Doubly Occupied:

       1A    -15.607621     2A    -11.270691     3A    -11.256486
       4A    -11.250219     5A    -11.248574     6A    -11.240721
       7A    -11.239573     8A    -11.239267     9A    -11.237947
      10A    -11.237096    11A    -11.208414    12A    -11.207074
      13A     -1.298897    14A     -1.155085    15A     -1.073386
      16A     -1.043948    17A     -1.016199    18A     -0.955963
      19A     -0.933375    20A     -0.833321    21A     -0.830651
      22A     -0.770739    23A     -0.743093    24A     -0.712308
      25A     -0.677895    26A     -0.639875    27A     -0.632188
      28A     -0.622543    29A     -0.596726    30A     -0.587212
      31A     -0.569729    32A     -0.568374    33A     -0.537892
      34A     -0.527044    35A     -0.524189    36A     -0.502248
      37A     -0.494903    38A     -0.491704    39A     -0.354000
      40A     -0.340249    41A     -0.335343    42A     -0.275099

  @DF-RHF Final Energy:  -477.54589274518520

   => Energetics <=

    Nuclear Repulsion Energy =            639.0463272212539323
    One-Electron Energy =               -1913.4087168582921095
    Two-Electron Energy =                 796.8164968918529212
    Total Energy =                       -477.5458927451852560
  Basis Set: (AUG-CC-PVTZ AUX)
    Blend: AUG-CC-PVTZ-RI
    Molecular point group: c1

    Geometry (in Angstrom), charge = 0, multiplicity = 1:

       Center              X                  Y                   Z               Mass
    ------------   -----------------  -----------------  -----------------  -----------------
         N           -1.755769358031     0.669974732808     0.205665141834    14.003074004430
         C           -0.861100358031    -0.338156267192    -0.108628858166    12.000000000000
         C            0.593228641969    -0.173214267192    -0.061557858166    12.000000000000
         C           -1.612167358031    -1.461818267192    -0.447318858166    12.000000000000
         C           -3.039098358031     0.201044732808     0.066165141834    12.000000000000
         C           -2.977674358031    -1.121057267192    -0.341213858166    12.000000000000
         C           -1.423902358031     2.005094732808     0.676269141834    12.000000000000
         C            1.239284641969     0.905719732808    -0.689877858166    12.000000000000
         C            1.376050641969    -1.141189267192     0.590647141834    12.000000000000
         C            2.628910641969     1.022565732808    -0.647551858166    12.000000000000
         C            2.766282641969    -1.033444267192     0.612574141834    12.000000000000
         C            3.397257641969     0.053324732808     0.001752141834    12.000000000000
         H           -1.195352458031    -2.424471967192    -0.719267358166     1.007825032230
         H           -3.884984358031     0.841174732808     0.281107141834     1.007825032230
         H           -3.827969358031    -1.760490267192    -0.540557858166     1.007825032230
         H           -2.223924358031     2.349426732808     1.334354141834     1.007825032230
         H           -0.489680358031     1.970518732808     1.237624141834     1.007825032230
         H           -1.316579358031     2.709592732808    -0.153700858166     1.007825032230
         H            0.650953641969     1.636441732808    -1.240822858166     1.007825032230
         H            0.878598641969    -1.971584267192     1.087043141834     1.007825032230
         H            3.114725641969     1.862421732808    -1.139413858166     1.007825032230
         H            3.358405641969    -1.791196267192     1.120836141834     1.007825032230
         H            4.480671641969     0.142131732808     0.027619141834     1.007825032230

  Basis Set: AUG-CC-PVTZ
    Blend: AUG-CC-PVTZ
  Basis Set: (AUG-CC-PVTZ AUX)
    Blend: AUG-CC-PVTZ-JKFIT
	 Reference Energy          =    -477.5458927451851991 [Eh]
	 Singles Energy            =      -0.0000000000000000 [Eh]
	 Same-Spin Energy          =      -0.5391737937520670 [Eh]
	 Opposite-Spin Energy      =      -1.6832379191584894 [Eh]
	 Correlation Energy        =      -2.2224117129105565 [Eh]
	 Total Energy              =    -479.7683044580957699 [Eh]

	 ================> DF-SCS-MP2 Energies <==================
	-----------------------------------------------------------
	 SCS Same-Spin Scale       =       0.3333333333333333 [-]
	 SCS Opposite-Spin Scale   =       1.2000000000000000 [-]
	 SCS Same-Spin Energy      =      -0.1797245979173556 [Eh]
	 SCS Opposite-Spin Energy  =      -2.0198855029901872 [Eh]
	 SCS Correlation Energy    =      -2.1996101009075431 [Eh]
	 SCS Total Energy          =    -479.7455028460927338 [Eh]
	-----------------------------------------------------------

  Dipole Moment: [D]
     X:     0.4688      Y:     1.8485      Z:     0.7126     Total:     2.0358

*** Psi4 exiting successfully. Buy a developer a beer!
