                               Psi4 1.3.2 release

  ==> Input File <==

--------------------------------------------------------------------------
#psi4
#
memory 32 gb

molecule  {
0 1
  C       -1.1499320    -0.2219830     0.0000330
  C       -0.5541220     1.0203030    -0.0000280
  N        0.7974550     0.7643250     0.0000120
  C        0.9604690    -0.5917710     0.0000050
  N       -0.2047340    -1.2229890    -0.0000280
  H        1.5354100     1.4569660     0.0000450
  H       -2.2072180    -0.4498140     0.0000570
  H       -0.9513238     2.0245250     0.2999450
  H        1.9355930    -1.0603130     0.0000020
units angstrom
no_reorient  #important for SAPT in psi4, default
symmetry c1  #important for SAPT in psi4, default
}

set PROPERTIES_ORIGIN ["COM"]
properties('MP2/aug-cc-pvtz', properties = ['dipole'])
--------------------------------------------------------------------------

    Molecular point group: c1
  Charge       = 0
  Multiplicity = 1
  Basis Set: AUG-CC-PVTZ
    Blend: AUG-CC-PVTZ
  Basis Set: (AUG-CC-PVTZ AUX)
    Blend: AUG-CC-PVTZ-JKFIT

    Orbital Energies [Eh]
    ---------------------

    Doubly Occupied:

       1A    -15.626196     2A    -15.549399     3A    -11.301304
       4A    -11.266095     5A    -11.247504     6A     -1.339866
       7A     -1.166635     8A     -1.004730     9A     -0.828859
      10A     -0.798059    11A     -0.752830    12A     -0.608811
      13A     -0.607229    14A     -0.584227    15A     -0.570111
      16A     -0.439639    17A     -0.401568    18A     -0.320333

  @DF-RHF Final Energy:  -224.89064232658660

   => Energetics <=

    Nuclear Repulsion Energy =            162.6865837036575044
    One-Electron Energy =                -626.3276637744680784
    Two-Electron Energy =                 238.7504377442239729
    Total Energy =                       -224.8906423265866010
  Basis Set: (AUG-CC-PVTZ AUX)
    Blend: AUG-CC-PVTZ-RI
    Molecular point group: c1

    Geometry (in Angstrom), charge = 0, multiplicity = 1:

       Center              X                  Y                   Z               Mass
    ------------   -----------------  -----------------  -----------------  -----------------
         C           -1.145402174698    -0.193214608446    -0.004410036184    12.000000000000
         C           -0.549592174698     1.049071391554    -0.004471036184    12.000000000000
         N            0.801984825302     0.793093391554    -0.004431036184    14.003074004430
         C            0.964998825302    -0.563002608446    -0.004438036184    12.000000000000
         N           -0.200204174698    -1.194220608446    -0.004471036184    14.003074004430
         H            1.539939825302     1.485734391554    -0.004398036184     1.007825032230
         H           -2.202688174698    -0.421045608446    -0.004386036184     1.007825032230
         H           -0.946793974698     2.053293391554     0.295501963816     1.007825032230
         H            1.940122825302    -1.031544608446    -0.004441036184     1.007825032230

  Basis Set: AUG-CC-PVTZ
    Blend: AUG-CC-PVTZ
  Basis Set: (AUG-CC-PVTZ AUX)
    Blend: AUG-CC-PVTZ-JKFIT
	 Reference Energy          =    -224.8906423265866010 [Eh]
	 Singles Energy            =      -0.0000000000000000 [Eh]
	 Same-Spin Energy          =      -0.2440525560710855 [Eh]
	 Opposite-Spin Energy      =      -0.7428314115461255 [Eh]
	 Correlation Energy        =      -0.9868839676172111 [Eh]
	 Total Energy              =    -225.8775262942038182 [Eh]

	 ================> DF-SCS-MP2 Energies <==================
	-----------------------------------------------------------
	 SCS Same-Spin Scale       =       0.3333333333333333 [-]
	 SCS Opposite-Spin Scale   =       1.2000000000000000 [-]
	 SCS Same-Spin Energy      =      -0.0813508520236952 [Eh]
	 SCS Opposite-Spin Energy  =      -0.8913976938553506 [Eh]
	 SCS Correlation Energy    =      -0.9727485458790458 [Eh]
	 SCS Total Energy          =    -225.8633908724656578 [Eh]
	-----------------------------------------------------------

  Dipole Moment: [D]
     X:     1.8009      Y:     3.3190      Z:     0.2728     Total:     3.7860

*** Psi4 exiting successfully. Buy a developer a beer!
