                               Psi4 1.3.2 release

  ==> Input File <==

--------------------------------------------------------------------------
#psi4
#
memory 32 gb

molecule  {
0 1
  C       -1.1499320    -0.2219830     0.0000330
  C       -0.5541220     1.0203030    -0.0000280
  N        0.7974550     0.7643250     0.0000120
  C        0.9604690    -0.5917710     0.0000050
  N       -0.2047340    -1.2229890    -0.0000280
  H        1.5354100     1.4569660     0.0000450
  H       -2.2072180    -0.4498140     0.0000570
  H       -0.9513215     2.0245150     0.0499450
  H        1.9355930    -1.0603130     0.0000020
units angstrom
no_reorient  #important for SAPT in psi4, default
symmetry c1  #important for SAPT in psi4, default
}

set PROPERTIES_ORIGIN ["COM"]
properties('MP2/aug-cc-pvtz', properties = ['dipole'])
--------------------------------------------------------------------------

    Molecular point group: c1
  Charge       = 0
  Multiplicity = 1
  Basis Set: AUG-CC-PVTZ
    Blend: AUG-CC-PVTZ
  Basis Set: (AUG-CC-PVTZ AUX)
    Blend: AUG-CC-PVTZ-JKFIT

    Orbital Energies [Eh]
    ---------------------

    Doubly Occupied:

       1A    -15.626237     2A    -15.548645     3A    -11.299963
       4A    -11.263629     5A    -11.245958     6A     -1.339358
       7A     -1.166110     8A     -1.005487     9A     -0.828777
      10A     -0.799032    11A     -0.757298    12A     -0.608286
      13A     -0.603584    14A     -0.597343    15A     -0.569093
      16A     -0.439182    17A     -0.401130    18A     -0.319844

  @DF-RHF Final Energy:  -224.89573415732795

   => Energetics <=

    Nuclear Repulsion Energy =            162.8297888509628706
    One-Electron Energy =                -626.6131337108538446
    Two-Electron Energy =                 238.8876107025630233
    Total Energy =                       -224.8957341573279507
  Basis Set: (AUG-CC-PVTZ AUX)
    Blend: AUG-CC-PVTZ-RI
    Molecular point group: c1

    Geometry (in Angstrom), charge = 0, multiplicity = 1:

       Center              X                  Y                   Z               Mass
    ------------   -----------------  -----------------  -----------------  -----------------
         C           -1.145402208767    -0.193214460318    -0.000706836476    12.000000000000
         C           -0.549592208767     1.049071539682    -0.000767836476    12.000000000000
         N            0.801984791233     0.793093539682    -0.000727836476    14.003074004430
         C            0.964998791233    -0.563002460318    -0.000734836476    12.000000000000
         N           -0.200204208767    -1.194220460318    -0.000767836476    14.003074004430
         H            1.539939791233     1.485734539682    -0.000694836476     1.007825032230
         H           -2.202688208767    -0.421045460318    -0.000682836476     1.007825032230
         H           -0.946791708767     2.053283539682     0.049205163524     1.007825032230
         H            1.940122791233    -1.031544460318    -0.000737836476     1.007825032230

  Basis Set: AUG-CC-PVTZ
    Blend: AUG-CC-PVTZ
  Basis Set: (AUG-CC-PVTZ AUX)
    Blend: AUG-CC-PVTZ-JKFIT
	 Reference Energy          =    -224.8957341573279507 [Eh]
	 Singles Energy            =      -0.0000000000000000 [Eh]
	 Same-Spin Energy          =      -0.2438001805365448 [Eh]
	 Opposite-Spin Energy      =      -0.7422242799703898 [Eh]
	 Correlation Energy        =      -0.9860244605069345 [Eh]
	 Total Energy              =    -225.8817586178348904 [Eh]

	 ================> DF-SCS-MP2 Energies <==================
	-----------------------------------------------------------
	 SCS Same-Spin Scale       =       0.3333333333333333 [-]
	 SCS Opposite-Spin Scale   =       1.2000000000000000 [-]
	 SCS Same-Spin Energy      =      -0.0812667268455149 [Eh]
	 SCS Opposite-Spin Energy  =      -0.8906691359644677 [Eh]
	 SCS Correlation Energy    =      -0.9719358628099827 [Eh]
	 SCS Total Energy          =    -225.8676700201379219 [Eh]
	-----------------------------------------------------------

  Dipole Moment: [D]
     X:     1.7779      Y:     3.4012      Z:     0.0468     Total:     3.8381

*** Psi4 exiting successfully. Buy a developer a beer!
