                               Psi4 1.3.2 release

  ==> Input File <==

--------------------------------------------------------------------------
#psi4
#
memory 32 gb

molecule  {
0 1
  C       -1.1499320    -0.2219830     0.0000330
  C       -0.5541220     1.0203030    -0.0000280
  N        0.7974550     0.7643250     0.0000120
  C        0.9604690    -0.5917710     0.0000050
  N       -0.2047340    -1.2229890    -0.0000280
  H        1.5354100     1.4569660     0.0000450
  H       -2.2072180    -0.4498140     0.0000570
  H       -0.9513210     2.0245130    -0.0000550
  H        1.9355898    -1.0603164     0.2500020
units angstrom
no_reorient  #important for SAPT in psi4, default
symmetry c1  #important for SAPT in psi4, default
}

set PROPERTIES_ORIGIN ["COM"]
properties('MP2/aug-cc-pvtz', properties = ['dipole'])
--------------------------------------------------------------------------

    Molecular point group: c1
  Charge       = 0
  Multiplicity = 1
  Basis Set: AUG-CC-PVTZ
    Blend: AUG-CC-PVTZ
  Basis Set: (AUG-CC-PVTZ AUX)
    Blend: AUG-CC-PVTZ-JKFIT

    Orbital Energies [Eh]
    ---------------------

    Doubly Occupied:

       1A    -15.626383     2A    -15.549390     3A    -11.301882
       4A    -11.264470     5A    -11.246487     6A     -1.339634
       7A     -1.166507     8A     -1.004826     9A     -0.827936
      10A     -0.798878    11A     -0.753342    12A     -0.609698
      13A     -0.605466    14A     -0.593465    15A     -0.564790
      16A     -0.439686    17A     -0.401318    18A     -0.320031

  @DF-RHF Final Energy:  -224.89194294032032

   => Energetics <=

    Nuclear Repulsion Energy =            162.7282595608423890
    One-Electron Energy =                -626.4120254551201015
    Two-Electron Energy =                 238.7918229539573929
    Total Energy =                       -224.8919429403203196
  Basis Set: (AUG-CC-PVTZ AUX)
    Blend: AUG-CC-PVTZ-RI
    Molecular point group: c1

    Geometry (in Angstrom), charge = 0, multiplicity = 1:

       Center              X                  Y                   Z               Mass
    ------------   -----------------  -----------------  -----------------  -----------------
         C           -1.145402168773    -0.193214380329    -0.003669396242    12.000000000000
         C           -0.549592168773     1.049071619671    -0.003730396242    12.000000000000
         N            0.801984831227     0.793093619671    -0.003690396242    14.003074004430
         C            0.964998831227    -0.563002380329    -0.003697396242    12.000000000000
         N           -0.200204168773    -1.194220380329    -0.003730396242    14.003074004430
         H            1.539939831227     1.485734619671    -0.003657396242     1.007825032230
         H           -2.202688168773    -0.421045380329    -0.003645396242     1.007825032230
         H           -0.946791168773     2.053281619671    -0.003757396242     1.007825032230
         H            1.940119631227    -1.031547780329     0.246299603758     1.007825032230

  Basis Set: AUG-CC-PVTZ
    Blend: AUG-CC-PVTZ
  Basis Set: (AUG-CC-PVTZ AUX)
    Blend: AUG-CC-PVTZ-JKFIT
	 Reference Energy          =    -224.8919429403203196 [Eh]
	 Singles Energy            =      -0.0000000000000000 [Eh]
	 Same-Spin Energy          =      -0.2440926579865514 [Eh]
	 Opposite-Spin Energy      =      -0.7428161058601144 [Eh]
	 Correlation Energy        =      -0.9869087638466658 [Eh]
	 Total Energy              =    -225.8788517041669763 [Eh]

	 ================> DF-SCS-MP2 Energies <==================
	-----------------------------------------------------------
	 SCS Same-Spin Scale       =       0.3333333333333333 [-]
	 SCS Opposite-Spin Scale   =       1.2000000000000000 [-]
	 SCS Same-Spin Energy      =      -0.0813642193288505 [Eh]
	 SCS Opposite-Spin Energy  =      -0.8913793270321372 [Eh]
	 SCS Correlation Energy    =      -0.9727435463609877 [Eh]
	 SCS Total Energy          =    -225.8646864866813075 [Eh]
	-----------------------------------------------------------

  Dipole Moment: [D]
     X:     1.7154      Y:     3.4264      Z:     0.2001     Total:     3.8370

*** Psi4 exiting successfully. Buy a developer a beer!
