                               Psi4 1.3.2 release

  ==> Input File <==

--------------------------------------------------------------------------
#psi4
#
memory 32 gb

molecule  {
0 1
  C       -1.1499320    -0.2219830     0.0000330
  C       -0.5541220     1.0203030    -0.0000280
  N        0.7974550     0.7643250     0.0000120
  C        0.9604690    -0.5917710     0.0000050
  N       -0.2047340    -1.2229890    -0.0000280
  H        1.5354100     1.4569660     0.0000450
  H       -2.2072248    -0.4498151    -0.1499430
  H       -0.9513210     2.0245130    -0.0000550
  H        1.9355930    -1.0603130     0.0000020
units angstrom
no_reorient  #important for SAPT in psi4, default
symmetry c1  #important for SAPT in psi4, default
}

set PROPERTIES_ORIGIN ["COM"]
properties('MP2/aug-cc-pvtz', properties = ['dipole'])
--------------------------------------------------------------------------

    Molecular point group: c1
  Charge       = 0
  Multiplicity = 1
  Basis Set: AUG-CC-PVTZ
    Blend: AUG-CC-PVTZ
  Basis Set: (AUG-CC-PVTZ AUX)
    Blend: AUG-CC-PVTZ-JKFIT

    Orbital Energies [Eh]
    ---------------------

    Doubly Occupied:

       1A    -15.626457     2A    -15.548723     3A    -11.300066
       4A    -11.263903     5A    -11.246758     6A     -1.339538
       7A     -1.166205     8A     -1.005439     9A     -0.828738
      10A     -0.798117    11A     -0.757268    12A     -0.608220
      13A     -0.603459    14A     -0.598349    15A     -0.566293
      16A     -0.439272    17A     -0.401010    18A     -0.319858

  @DF-RHF Final Energy:  -224.89448847884631

   => Energetics <=

    Nuclear Repulsion Energy =            162.7959565236189974
    One-Electron Energy =                -626.5455419558727499
    Two-Electron Energy =                 238.8550969534074397
    Total Energy =                       -224.8944884788463128
  Basis Set: (AUG-CC-PVTZ AUX)
    Blend: AUG-CC-PVTZ-RI
    Molecular point group: c1

    Geometry (in Angstrom), charge = 0, multiplicity = 1:

       Center              X                  Y                   Z               Mass
    ------------   -----------------  -----------------  -----------------  -----------------
         C           -1.145402115447    -0.193214414399     0.002255723290    12.000000000000
         C           -0.549592115447     1.049071585601     0.002194723290    12.000000000000
         N            0.801984884553     0.793093585601     0.002234723290    14.003074004430
         C            0.964998884553    -0.563002414399     0.002227723290    12.000000000000
         N           -0.200204115447    -1.194220414399     0.002194723290    14.003074004430
         H            1.539939884553     1.485734585601     0.002267723290     1.007825032230
         H           -2.202694915447    -0.421046514399    -0.147720276710     1.007825032230
         H           -0.946791115447     2.053281585601     0.002167723290     1.007825032230
         H            1.940122884553    -1.031544414399     0.002224723290     1.007825032230

  Basis Set: AUG-CC-PVTZ
    Blend: AUG-CC-PVTZ
  Basis Set: (AUG-CC-PVTZ AUX)
    Blend: AUG-CC-PVTZ-JKFIT
	 Reference Energy          =    -224.8944884788463128 [Eh]
	 Singles Energy            =      -0.0000000000000000 [Eh]
	 Same-Spin Energy          =      -0.2438666499696320 [Eh]
	 Opposite-Spin Energy      =      -0.7423819307306767 [Eh]
	 Correlation Energy        =      -0.9862485807003087 [Eh]
	 Total Energy              =    -225.8807370595466182 [Eh]

	 ================> DF-SCS-MP2 Energies <==================
	-----------------------------------------------------------
	 SCS Same-Spin Scale       =       0.3333333333333333 [-]
	 SCS Opposite-Spin Scale   =       1.2000000000000000 [-]
	 SCS Same-Spin Energy      =      -0.0812888833232107 [Eh]
	 SCS Opposite-Spin Energy  =      -0.8908583168768121 [Eh]
	 SCS Correlation Energy    =      -0.9721472002000227 [Eh]
	 SCS Total Energy          =    -225.8666356790463396 [Eh]
	-----------------------------------------------------------

  Dipole Moment: [D]
     X:     1.7965      Y:     3.4071      Z:    -0.1143     Total:     3.8534

*** Psi4 exiting successfully. Buy a developer a beer!
