                               Psi4 1.3.2 release

  ==> Input File <==

--------------------------------------------------------------------------
#psi4
#
memory 32 gb

molecule  {
0 1
  C       -1.1499320    -0.2219830     0.0000330
  C       -0.5541220     1.0203030    -0.0000280
  N        0.7974550     0.7643250     0.0000120
  C        0.9604690    -0.5917710     0.0000050
  N       -0.2047340    -1.2229890    -0.0000280
  H        1.5354034     1.4569639     0.2000450
  H       -2.2072180    -0.4498140     0.0000570
  H       -0.9513210     2.0245130    -0.0000550
  H        1.9355930    -1.0603130     0.0000020
units angstrom
no_reorient  #important for SAPT in psi4, default
symmetry c1  #important for SAPT in psi4, default
}

set PROPERTIES_ORIGIN ["COM"]
properties('MP2/aug-cc-pvtz', properties = ['dipole'])
--------------------------------------------------------------------------

    Molecular point group: c1
  Charge       = 0
  Multiplicity = 1
  Basis Set: AUG-CC-PVTZ
    Blend: AUG-CC-PVTZ
  Basis Set: (AUG-CC-PVTZ AUX)
    Blend: AUG-CC-PVTZ-JKFIT

    Orbital Energies [Eh]
    ---------------------

    Doubly Occupied:

       1A    -15.626927     2A    -15.549025     3A    -11.299967
       4A    -11.263332     5A    -11.246232     6A     -1.338690
       7A     -1.164510     8A     -1.005241     9A     -0.823813
      10A     -0.798922    11A     -0.755934    12A     -0.612404
      13A     -0.603250    14A     -0.591250    15A     -0.569176
      16A     -0.439381    17A     -0.401462    18A     -0.320001

  @DF-RHF Final Energy:  -224.89396403744314

   => Energetics <=

    Nuclear Repulsion Energy =            162.7459307240199280
    One-Electron Energy =                -626.4607525451693846
    Two-Electron Energy =                 238.8208577837063444
    Total Energy =                       -224.8939640374431406
  Basis Set: (AUG-CC-PVTZ AUX)
    Blend: AUG-CC-PVTZ-RI
    Molecular point group: c1

    Geometry (in Angstrom), charge = 0, multiplicity = 1:

       Center              X                  Y                   Z               Mass
    ------------   -----------------  -----------------  -----------------  -----------------
         C           -1.145402118409    -0.193214399586    -0.002928756300    12.000000000000
         C           -0.549592118409     1.049071600414    -0.002989756300    12.000000000000
         N            0.801984881591     0.793093600414    -0.002949756300    14.003074004430
         C            0.964998881591    -0.563002399586    -0.002956756300    12.000000000000
         N           -0.200204118409    -1.194220399586    -0.002989756300    14.003074004430
         H            1.539933281591     1.485732500414     0.197083243700     1.007825032230
         H           -2.202688118409    -0.421045399586    -0.002904756300     1.007825032230
         H           -0.946791118409     2.053281600414    -0.003016756300     1.007825032230
         H            1.940122881591    -1.031544399586    -0.002959756300     1.007825032230

  Basis Set: AUG-CC-PVTZ
    Blend: AUG-CC-PVTZ
  Basis Set: (AUG-CC-PVTZ AUX)
    Blend: AUG-CC-PVTZ-JKFIT
	 Reference Energy          =    -224.8939640374431406 [Eh]
	 Singles Energy            =      -0.0000000000000000 [Eh]
	 Same-Spin Energy          =      -0.2438937334029624 [Eh]
	 Opposite-Spin Energy      =      -0.7425233394809521 [Eh]
	 Correlation Energy        =      -0.9864170728839144 [Eh]
	 Total Energy              =    -225.8803811103270505 [Eh]

	 ================> DF-SCS-MP2 Energies <==================
	-----------------------------------------------------------
	 SCS Same-Spin Scale       =       0.3333333333333333 [-]
	 SCS Opposite-Spin Scale   =       1.2000000000000000 [-]
	 SCS Same-Spin Energy      =      -0.0812979111343208 [Eh]
	 SCS Opposite-Spin Energy  =      -0.8910280073771425 [Eh]
	 SCS Correlation Energy    =      -0.9723259185114633 [Eh]
	 SCS Total Energy          =    -225.8662899559546133 [Eh]
	-----------------------------------------------------------

  Dipole Moment: [D]
     X:     1.7560      Y:     3.3799      Z:     0.2982     Total:     3.8205

*** Psi4 exiting successfully. Buy a developer a beer!
