                               Psi4 1.3.2 release

  ==> Input File <==

--------------------------------------------------------------------------
#psi4
#
memory 32 gb

molecule  {
0 1
  C       -1.1499320    -0.2219830     0.0000330
  C       -0.5541220     1.0203030    -0.0000280
  N        0.7974550     0.7643250     0.0000120
  C        0.9604690    -0.5917710     0.0000050
  N       -0.2047340    -1.2229890    -0.0000280
  H        1.5354067     1.4569650     0.1000450
  H       -2.2072180    -0.4498140     0.0000570
  H       -0.9513210     2.0245130    -0.0000550
  H        1.9355930    -1.0603130     0.0000020
units angstrom
no_reorient  #important for SAPT in psi4, default
symmetry c1  #important for SAPT in psi4, default
}

set PROPERTIES_ORIGIN ["COM"]
properties('MP2/aug-cc-pvtz', properties = ['dipole'])
--------------------------------------------------------------------------

    Molecular point group: c1
  Charge       = 0
  Multiplicity = 1
  Basis Set: AUG-CC-PVTZ
    Blend: AUG-CC-PVTZ
  Basis Set: (AUG-CC-PVTZ AUX)
    Blend: AUG-CC-PVTZ-JKFIT

    Orbital Energies [Eh]
    ---------------------

    Doubly Occupied:

       1A    -15.626413     2A    -15.548726     3A    -11.299935
       4A    -11.263499     5A    -11.245994     6A     -1.339175
       7A     -1.165686     8A     -1.005441     9A     -0.827489
      10A     -0.799032    11A     -0.757071    12A     -0.609715
      13A     -0.603292    14A     -0.595820    15A     -0.569094
      16A     -0.439223    17A     -0.401205    18A     -0.319873

  @DF-RHF Final Energy:  -224.89543207180785

   => Energetics <=

    Nuclear Repulsion Energy =            162.8116367339953001
    One-Electron Energy =                -626.5807710109467052
    Two-Electron Energy =                 238.8737022051435304
    Total Energy =                       -224.8954320718078463
  Basis Set: (AUG-CC-PVTZ AUX)
    Blend: AUG-CC-PVTZ-RI
    Molecular point group: c1

    Geometry (in Angstrom), charge = 0, multiplicity = 1:

       Center              X                  Y                   Z               Mass
    ------------   -----------------  -----------------  -----------------  -----------------
         C           -1.145402167292    -0.193214415880    -0.001447476417    12.000000000000
         C           -0.549592167292     1.049071584120    -0.001508476417    12.000000000000
         N            0.801984832708     0.793093584120    -0.001468476417    14.003074004430
         C            0.964998832708    -0.563002415880    -0.001475476417    12.000000000000
         N           -0.200204167292    -1.194220415880    -0.001508476417    14.003074004430
         H            1.539936532708     1.485733584120     0.098564523583     1.007825032230
         H           -2.202688167292    -0.421045415880    -0.001423476417     1.007825032230
         H           -0.946791167292     2.053281584120    -0.001535476417     1.007825032230
         H            1.940122832708    -1.031544415880    -0.001478476417     1.007825032230

  Basis Set: AUG-CC-PVTZ
    Blend: AUG-CC-PVTZ
  Basis Set: (AUG-CC-PVTZ AUX)
    Blend: AUG-CC-PVTZ-JKFIT
	 Reference Energy          =    -224.8954320718078463 [Eh]
	 Singles Energy            =      -0.0000000000000000 [Eh]
	 Same-Spin Energy          =      -0.2438178846626891 [Eh]
	 Opposite-Spin Energy      =      -0.7422854883896977 [Eh]
	 Correlation Energy        =      -0.9861033730523867 [Eh]
	 Total Energy              =    -225.8815354448602193 [Eh]

	 ================> DF-SCS-MP2 Energies <==================
	-----------------------------------------------------------
	 SCS Same-Spin Scale       =       0.3333333333333333 [-]
	 SCS Opposite-Spin Scale   =       1.2000000000000000 [-]
	 SCS Same-Spin Energy      =      -0.0812726282208964 [Eh]
	 SCS Opposite-Spin Energy  =      -0.8907425860676371 [Eh]
	 SCS Correlation Energy    =      -0.9720152142885334 [Eh]
	 SCS Total Energy          =    -225.8674472860963931 [Eh]
	-----------------------------------------------------------

  Dipole Moment: [D]
     X:     1.7719      Y:     3.3976      Z:     0.1499     Total:     3.8348

*** Psi4 exiting successfully. Buy a developer a beer!
