                               Psi4 1.3.2 release

  ==> Input File <==

--------------------------------------------------------------------------
#psi4
#
memory 32 gb

molecule  {
0 1
  C       -1.1499320    -0.2219830     0.0000330
  C       -0.5541220     1.0203030    -0.0000280
  N        0.7974550     0.7643250     0.0000120
  C        0.9604690    -0.5917710     0.0000050
  N       -0.2047340    -1.2229890    -0.0000280
  H        1.5354100     1.4569660     0.0000450
  H       -2.2072180    -0.4498140     0.0000570
  H       -0.9513219     2.0245170     0.0999450
  H        1.9355930    -1.0603130     0.0000020
units angstrom
no_reorient  #important for SAPT in psi4, default
symmetry c1  #important for SAPT in psi4, default
}

set PROPERTIES_ORIGIN ["COM"]
properties('MP2/aug-cc-pvtz', properties = ['dipole'])
--------------------------------------------------------------------------

    Molecular point group: c1
  Charge       = 0
  Multiplicity = 1
  Basis Set: AUG-CC-PVTZ
    Blend: AUG-CC-PVTZ
  Basis Set: (AUG-CC-PVTZ AUX)
    Blend: AUG-CC-PVTZ-JKFIT

    Orbital Energies [Eh]
    ---------------------

    Doubly Occupied:

       1A    -15.626230     2A    -15.548711     3A    -11.300082
       4A    -11.263845     5A    -11.246094     6A     -1.339402
       7A     -1.166155     8A     -1.005413     9A     -0.828779
      10A     -0.798923    11A     -0.756891    12A     -0.608332
      13A     -0.604418    14A     -0.595689    15A     -0.569185
      16A     -0.439223    17A     -0.401167    18A     -0.319885

  @DF-RHF Final Energy:  -224.89535537844480

   => Energetics <=

    Nuclear Repulsion Energy =            162.8170239508960719
    One-Electron Energy =                -626.5879124783136831
    Two-Electron Energy =                 238.8755331489727780
    Total Energy =                       -224.8953553784448047
  Basis Set: (AUG-CC-PVTZ AUX)
    Blend: AUG-CC-PVTZ-RI
    Molecular point group: c1

    Geometry (in Angstrom), charge = 0, multiplicity = 1:

       Center              X                  Y                   Z               Mass
    ------------   -----------------  -----------------  -----------------  -----------------
         C           -1.145402202842    -0.193214489944    -0.001447476417    12.000000000000
         C           -0.549592202842     1.049071510056    -0.001508476417    12.000000000000
         N            0.801984797158     0.793093510056    -0.001468476417    14.003074004430
         C            0.964998797158    -0.563002489944    -0.001475476417    12.000000000000
         N           -0.200204202842    -1.194220489944    -0.001508476417    14.003074004430
         H            1.539939797158     1.485734510056    -0.001435476417     1.007825032230
         H           -2.202688202842    -0.421045489944    -0.001423476417     1.007825032230
         H           -0.946792102842     2.053285510056     0.098464523583     1.007825032230
         H            1.940122797158    -1.031544489944    -0.001478476417     1.007825032230

  Basis Set: AUG-CC-PVTZ
    Blend: AUG-CC-PVTZ
  Basis Set: (AUG-CC-PVTZ AUX)
    Blend: AUG-CC-PVTZ-JKFIT
	 Reference Energy          =    -224.8953553784448047 [Eh]
	 Singles Energy            =      -0.0000000000000000 [Eh]
	 Same-Spin Energy          =      -0.2438225602259460 [Eh]
	 Opposite-Spin Energy      =      -0.7422699406449831 [Eh]
	 Correlation Energy        =      -0.9860925008709291 [Eh]
	 Total Energy              =    -225.8814478793157434 [Eh]

	 ================> DF-SCS-MP2 Energies <==================
	-----------------------------------------------------------
	 SCS Same-Spin Scale       =       0.3333333333333333 [-]
	 SCS Opposite-Spin Scale   =       1.2000000000000000 [-]
	 SCS Same-Spin Energy      =      -0.0812741867419820 [Eh]
	 SCS Opposite-Spin Energy  =      -0.8907239287739797 [Eh]
	 SCS Correlation Energy    =      -0.9719981155159616 [Eh]
	 SCS Total Energy          =    -225.8673534939607634 [Eh]
	-----------------------------------------------------------

  Dipole Moment: [D]
     X:     1.7799      Y:     3.3939      Z:     0.0932     Total:     3.8334

*** Psi4 exiting successfully. Buy a developer a beer!
