                               Psi4 1.3.2 release

  ==> Input File <==

--------------------------------------------------------------------------
#psi4
#
memory 32 gb

molecule  {
0 1
  C       -1.1499320    -0.2219830     0.0000330
  C       -0.5541220     1.0203030    -0.0000280
  N        0.7974550     0.7643250     0.0000120
  C        0.9604690    -0.5917710     0.0000050
  N       -0.2047340    -1.2229890    -0.0000280
  H        1.5354100     1.4569660     0.0000450
  H       -2.2072180    -0.4498140     0.0000570
  H       -0.9513234     2.0245230     0.2499450
  H        1.9355930    -1.0603130     0.0000020
units angstrom
no_reorient  #important for SAPT in psi4, default
symmetry c1  #important for SAPT in psi4, default
}

set PROPERTIES_ORIGIN ["COM"]
properties('MP2/aug-cc-pvtz', properties = ['dipole'])
--------------------------------------------------------------------------

    Molecular point group: c1
  Charge       = 0
  Multiplicity = 1
  Basis Set: AUG-CC-PVTZ
    Blend: AUG-CC-PVTZ
  Basis Set: (AUG-CC-PVTZ AUX)
    Blend: AUG-CC-PVTZ-JKFIT

    Orbital Energies [Eh]
    ---------------------

    Doubly Occupied:

       1A    -15.626200     2A    -15.549164     3A    -11.300891
       4A    -11.265331     5A    -11.247027     6A     -1.339706
       7A     -1.166469     8A     -1.004944     9A     -0.828821
      10A     -0.798302    11A     -0.754167    12A     -0.608649
      13A     -0.606716    14A     -0.587689    15A     -0.569807
      16A     -0.439501    17A     -0.401430    18A     -0.320179

  @DF-RHF Final Energy:  -224.89238882883865

   => Energetics <=

    Nuclear Repulsion Energy =            162.7302908693536381
    One-Electron Energy =                -626.4153719881317102
    Two-Electron Energy =                 238.7926922899393958
    Total Energy =                       -224.8923888288386479
  Basis Set: (AUG-CC-PVTZ AUX)
    Blend: AUG-CC-PVTZ-RI
    Molecular point group: c1

    Geometry (in Angstrom), charge = 0, multiplicity = 1:

       Center              X                  Y                   Z               Mass
    ------------   -----------------  -----------------  -----------------  -----------------
         C           -1.145402180623    -0.193214578821    -0.003669396242    12.000000000000
         C           -0.549592180623     1.049071421179    -0.003730396242    12.000000000000
         N            0.801984819377     0.793093421179    -0.003690396242    14.003074004430
         C            0.964998819377    -0.563002578821    -0.003697396242    12.000000000000
         N           -0.200204180623    -1.194220578821    -0.003730396242    14.003074004430
         H            1.539939819377     1.485734421179    -0.003657396242     1.007825032230
         H           -2.202688180623    -0.421045578821    -0.003645396242     1.007825032230
         H           -0.946793580623     2.053291421179     0.246242603758     1.007825032230
         H            1.940122819377    -1.031544578821    -0.003700396242     1.007825032230

  Basis Set: AUG-CC-PVTZ
    Blend: AUG-CC-PVTZ
  Basis Set: (AUG-CC-PVTZ AUX)
    Blend: AUG-CC-PVTZ-JKFIT
	 Reference Energy          =    -224.8923888288386479 [Eh]
	 Singles Energy            =      -0.0000000000000000 [Eh]
	 Same-Spin Energy          =      -0.2439752677630797 [Eh]
	 Opposite-Spin Energy      =      -0.7426287577445256 [Eh]
	 Correlation Energy        =      -0.9866040255076053 [Eh]
	 Total Energy              =    -225.8789928543462509 [Eh]

	 ================> DF-SCS-MP2 Energies <==================
	-----------------------------------------------------------
	 SCS Same-Spin Scale       =       0.3333333333333333 [-]
	 SCS Opposite-Spin Scale   =       1.2000000000000000 [-]
	 SCS Same-Spin Energy      =      -0.0813250892543599 [Eh]
	 SCS Opposite-Spin Energy  =      -0.8911545092934308 [Eh]
	 SCS Correlation Energy    =      -0.9724795985477906 [Eh]
	 SCS Total Energy          =    -225.8648684273864262 [Eh]
	-----------------------------------------------------------

  Dipole Moment: [D]
     X:     1.7937      Y:     3.3441      Z:     0.2293     Total:     3.8017

*** Psi4 exiting successfully. Buy a developer a beer!
