                               Psi4 1.3.2 release

  ==> Input File <==

--------------------------------------------------------------------------
#psi4
#
memory 32 gb

molecule  {
0 1
  C       -1.1499320    -0.2219830     0.0000330
  C       -0.5541220     1.0203030    -0.0000280
  N        0.7974550     0.7643250     0.0000120
  C        0.9604690    -0.5917710     0.0000050
  N       -0.2047340    -1.2229890    -0.0000280
  H        1.5354100     1.4569660     0.0000450
  H       -2.2072225    -0.4498147    -0.0999430
  H       -0.9513210     2.0245130    -0.0000550
  H        1.9355930    -1.0603130     0.0000020
units angstrom
no_reorient  #important for SAPT in psi4, default
symmetry c1  #important for SAPT in psi4, default
}

set PROPERTIES_ORIGIN ["COM"]
properties('MP2/aug-cc-pvtz', properties = ['dipole'])
--------------------------------------------------------------------------

    Molecular point group: c1
  Charge       = 0
  Multiplicity = 1
  Basis Set: AUG-CC-PVTZ
    Blend: AUG-CC-PVTZ
  Basis Set: (AUG-CC-PVTZ AUX)
    Blend: AUG-CC-PVTZ-JKFIT

    Orbital Energies [Eh]
    ---------------------

    Doubly Occupied:

       1A    -15.626336     2A    -15.548668     3A    -11.299987
       4A    -11.263711     5A    -11.246290     6A     -1.339430
       7A     -1.166144     8A     -1.005478     9A     -0.828757
      10A     -0.798640    11A     -0.757361    12A     -0.608248
      13A     -0.603309    14A     -0.598168    15A     -0.567821
      16A     -0.439215    17A     -0.401069    18A     -0.319842

  @DF-RHF Final Energy:  -224.89526157384509

   => Energetics <=

    Nuclear Repulsion Energy =            162.8170205438261462
    One-Electron Energy =                -626.5876158300204679
    Two-Electron Energy =                 238.8753337123492031
    Total Energy =                       -224.8952615738450902
  Basis Set: (AUG-CC-PVTZ AUX)
    Blend: AUG-CC-PVTZ-RI
    Molecular point group: c1

    Geometry (in Angstrom), charge = 0, multiplicity = 1:

       Center              X                  Y                   Z               Mass
    ------------   -----------------  -----------------  -----------------  -----------------
         C           -1.145402149516    -0.193214420324     0.001515083349    12.000000000000
         C           -0.549592149516     1.049071579676     0.001454083349    12.000000000000
         N            0.801984850484     0.793093579676     0.001494083349    14.003074004430
         C            0.964998850484    -0.563002420324     0.001487083349    12.000000000000
         N           -0.200204149516    -1.194220420324     0.001454083349    14.003074004430
         H            1.539939850484     1.485734579676     0.001527083349     1.007825032230
         H           -2.202692649516    -0.421046120324    -0.098460916651     1.007825032230
         H           -0.946791149516     2.053281579676     0.001427083349     1.007825032230
         H            1.940122850484    -1.031544420324     0.001484083349     1.007825032230

  Basis Set: AUG-CC-PVTZ
    Blend: AUG-CC-PVTZ
  Basis Set: (AUG-CC-PVTZ AUX)
    Blend: AUG-CC-PVTZ-JKFIT
	 Reference Energy          =    -224.8952615738450902 [Eh]
	 Singles Energy            =      -0.0000000000000000 [Eh]
	 Same-Spin Energy          =      -0.2438257105433573 [Eh]
	 Opposite-Spin Energy      =      -0.7422847138865069 [Eh]
	 Correlation Energy        =      -0.9861104244298642 [Eh]
	 Total Energy              =    -225.8813719982749433 [Eh]

	 ================> DF-SCS-MP2 Energies <==================
	-----------------------------------------------------------
	 SCS Same-Spin Scale       =       0.3333333333333333 [-]
	 SCS Opposite-Spin Scale   =       1.2000000000000000 [-]
	 SCS Same-Spin Energy      =      -0.0812752368477858 [Eh]
	 SCS Opposite-Spin Energy  =      -0.8907416566638082 [Eh]
	 SCS Correlation Energy    =      -0.9720168935115940 [Eh]
	 SCS Total Energy          =    -225.8672784673566980 [Eh]
	-----------------------------------------------------------

  Dipole Moment: [D]
     X:     1.7859      Y:     3.4052      Z:    -0.0764     Total:     3.8459

*** Psi4 exiting successfully. Buy a developer a beer!
