                               Psi4 1.3.2 release

  ==> Input File <==

--------------------------------------------------------------------------
#psi4
#
memory 32 gb

molecule  {
0 1
  C       -1.1499320    -0.2219830     0.0000330
  C       -0.5541220     1.0203030    -0.0000280
  N        0.7974550     0.7643250     0.0000120
  C        0.9604690    -0.5917710     0.0000050
  N       -0.2047340    -1.2229890    -0.0000280
  H        1.5354100     1.4569660     0.0000450
  H       -2.2072293    -0.4498158    -0.2499430
  H       -0.9513210     2.0245130    -0.0000550
  H        1.9355930    -1.0603130     0.0000020
units angstrom
no_reorient  #important for SAPT in psi4, default
symmetry c1  #important for SAPT in psi4, default
}

set PROPERTIES_ORIGIN ["COM"]
properties('MP2/aug-cc-pvtz', properties = ['dipole'])
--------------------------------------------------------------------------

    Molecular point group: c1
  Charge       = 0
  Multiplicity = 1
  Basis Set: AUG-CC-PVTZ
    Blend: AUG-CC-PVTZ
  Basis Set: (AUG-CC-PVTZ AUX)
    Blend: AUG-CC-PVTZ-JKFIT

    Orbital Energies [Eh]
    ---------------------

    Doubly Occupied:

       1A    -15.626839     2A    -15.548906     3A    -11.300317
       4A    -11.264510     5A    -11.248233     6A     -1.339879
       7A     -1.166402     8A     -1.005335     9A     -0.828721
      10A     -0.796554    11A     -0.756963    12A     -0.608136
      13A     -0.603920    14A     -0.598856    15A     -0.561543
      16A     -0.439449    17A     -0.400830    18A     -0.319915

  @DF-RHF Final Energy:  -224.89182503071339

   => Energetics <=

    Nuclear Repulsion Energy =            162.7302672103838859
    One-Electron Energy =                -626.4135650233032493
    Two-Electron Energy =                 238.7914727822059717
    Total Energy =                       -224.8918250307133917
  Basis Set: (AUG-CC-PVTZ AUX)
    Blend: AUG-CC-PVTZ-RI
    Molecular point group: c1

    Geometry (in Angstrom), charge = 0, multiplicity = 1:

       Center              X                  Y                   Z               Mass
    ------------   -----------------  -----------------  -----------------  -----------------
         C           -1.145402048789    -0.193214404030     0.003737003173    12.000000000000
         C           -0.549592048789     1.049071595970     0.003676003173    12.000000000000
         N            0.801984951211     0.793093595970     0.003716003173    14.003074004430
         C            0.964998951211    -0.563002404030     0.003709003173    12.000000000000
         N           -0.200204048789    -1.194220404030     0.003676003173    14.003074004430
         H            1.539939951211     1.485734595970     0.003749003173     1.007825032230
         H           -2.202699348789    -0.421047204030    -0.246238996827     1.007825032230
         H           -0.946791048789     2.053281595970     0.003649003173     1.007825032230
         H            1.940122951211    -1.031544404030     0.003706003173     1.007825032230

  Basis Set: AUG-CC-PVTZ
    Blend: AUG-CC-PVTZ
  Basis Set: (AUG-CC-PVTZ AUX)
    Blend: AUG-CC-PVTZ-JKFIT
	 Reference Energy          =    -224.8918250307133917 [Eh]
	 Singles Energy            =      -0.0000000000000000 [Eh]
	 Same-Spin Energy          =      -0.2439950973523145 [Eh]
	 Opposite-Spin Energy      =      -0.7427086967737113 [Eh]
	 Correlation Energy        =      -0.9867037941260258 [Eh]
	 Total Energy              =    -225.8785288248394068 [Eh]

	 ================> DF-SCS-MP2 Energies <==================
	-----------------------------------------------------------
	 SCS Same-Spin Scale       =       0.3333333333333333 [-]
	 SCS Opposite-Spin Scale   =       1.2000000000000000 [-]
	 SCS Same-Spin Energy      =      -0.0813316991174381 [Eh]
	 SCS Opposite-Spin Energy  =      -0.8912504361284536 [Eh]
	 SCS Correlation Energy    =      -0.9725821352458917 [Eh]
	 SCS Total Energy          =    -225.8644071659592782 [Eh]
	-----------------------------------------------------------

  Dipole Moment: [D]
     X:     1.8301      Y:     3.4130      Z:    -0.1885     Total:     3.8773

*** Psi4 exiting successfully. Buy a developer a beer!
