                               Psi4 1.3.2 release

  ==> Input File <==

--------------------------------------------------------------------------
#psi4
#
memory 32 gb

molecule  {
0 1
  C       -1.1499320    -0.2219830     0.0000330
  C       -0.5541220     1.0203030    -0.0000280
  N        0.7974550     0.7643250     0.0000120
  C        0.9604690    -0.5917710     0.0000050
  N       -0.2047340    -1.2229890    -0.0000280
  H        1.5354100     1.4569660     0.0000450
  H       -2.2072315    -0.4498161    -0.2999430
  H       -0.9513210     2.0245130    -0.0000550
  H        1.9355930    -1.0603130     0.0000020
units angstrom
no_reorient  #important for SAPT in psi4, default
symmetry c1  #important for SAPT in psi4, default
}

set PROPERTIES_ORIGIN ["COM"]
properties('MP2/aug-cc-pvtz', properties = ['dipole'])
--------------------------------------------------------------------------

    Molecular point group: c1
  Charge       = 0
  Multiplicity = 1
  Basis Set: AUG-CC-PVTZ
    Blend: AUG-CC-PVTZ
  Basis Set: (AUG-CC-PVTZ AUX)
    Blend: AUG-CC-PVTZ-JKFIT

    Orbital Energies [Eh]
    ---------------------

    Doubly Occupied:

       1A    -15.627098     2A    -15.549036     3A    -11.300490
       4A    -11.264922     5A    -11.249225     6A     -1.340112
       7A     -1.166539     8A     -1.005279     9A     -0.828741
      10A     -0.795574    11A     -0.756749    12A     -0.608085
      13A     -0.604223    14A     -0.599159    15A     -0.558381
      16A     -0.439564    17A     -0.400713    18A     -0.319958

  @DF-RHF Final Energy:  -224.88984607905340

   => Energetics <=

    Nuclear Repulsion Energy =            162.6865428882613855
    One-Electron Energy =                -626.3250814471126660
    Two-Electron Energy =                 238.7486924797978816
    Total Energy =                       -224.8898460790533989
  Basis Set: (AUG-CC-PVTZ AUX)
    Blend: AUG-CC-PVTZ-RI
    Molecular point group: c1

    Geometry (in Angstrom), charge = 0, multiplicity = 1:

       Center              X                  Y                   Z               Mass
    ------------   -----------------  -----------------  -----------------  -----------------
         C           -1.145402016201    -0.193214399586     0.004477643115    12.000000000000
         C           -0.549592016201     1.049071600414     0.004416643115    12.000000000000
         N            0.801984983799     0.793093600414     0.004456643115    14.003074004430
         C            0.964998983799    -0.563002399586     0.004449643115    12.000000000000
         N           -0.200204016201    -1.194220399586     0.004416643115    14.003074004430
         H            1.539939983799     1.485734600414     0.004489643115     1.007825032230
         H           -2.202701516201    -0.421047499586    -0.295498356885     1.007825032230
         H           -0.946791016201     2.053281600414     0.004389643115     1.007825032230
         H            1.940122983799    -1.031544399586     0.004446643115     1.007825032230

  Basis Set: AUG-CC-PVTZ
    Blend: AUG-CC-PVTZ
  Basis Set: (AUG-CC-PVTZ AUX)
    Blend: AUG-CC-PVTZ-JKFIT
	 Reference Energy          =    -224.8898460790533989 [Eh]
	 Singles Energy            =      -0.0000000000000000 [Eh]
	 Same-Spin Energy          =      -0.2440811658416349 [Eh]
	 Opposite-Spin Energy      =      -0.7429415502995860 [Eh]
	 Correlation Energy        =      -0.9870227161412208 [Eh]
	 Total Energy              =    -225.8768687951946106 [Eh]

	 ================> DF-SCS-MP2 Energies <==================
	-----------------------------------------------------------
	 SCS Same-Spin Scale       =       0.3333333333333333 [-]
	 SCS Opposite-Spin Scale   =       1.2000000000000000 [-]
	 SCS Same-Spin Energy      =      -0.0813603886138783 [Eh]
	 SCS Opposite-Spin Energy  =      -0.8915298603595031 [Eh]
	 SCS Correlation Energy    =      -0.9728902489733814 [Eh]
	 SCS Total Energy          =    -225.8627363280267843 [Eh]
	-----------------------------------------------------------

  Dipole Moment: [D]
     X:     1.8527      Y:     3.4169      Z:    -0.2247     Total:     3.8934

*** Psi4 exiting successfully. Buy a developer a beer!
