                               Psi4 1.3.2 release

  ==> Input File <==

--------------------------------------------------------------------------
#psi4
#
memory 32 gb

molecule  {
0 1
  C       -1.1499320    -0.2219830     0.0000330
  C       -0.5541220     1.0203030    -0.0000280
  N        0.7974550     0.7643250     0.0000120
  C        0.9604690    -0.5917710     0.0000050
  N       -0.2047340    -1.2229890    -0.0000280
  H        1.5354100     1.4569660     0.0000450
  H       -2.2072180    -0.4498140     0.0000570
  H       -0.9513224     2.0245190     0.1499450
  H        1.9355930    -1.0603130     0.0000020
units angstrom
no_reorient  #important for SAPT in psi4, default
symmetry c1  #important for SAPT in psi4, default
}

set PROPERTIES_ORIGIN ["COM"]
properties('MP2/aug-cc-pvtz', properties = ['dipole'])
--------------------------------------------------------------------------

    Molecular point group: c1
  Charge       = 0
  Multiplicity = 1
  Basis Set: AUG-CC-PVTZ
    Blend: AUG-CC-PVTZ
  Basis Set: (AUG-CC-PVTZ AUX)
    Blend: AUG-CC-PVTZ-JKFIT

    Orbital Energies [Eh]
    ---------------------

    Doubly Occupied:

       1A    -15.626220     2A    -15.548820     3A    -11.300277
       4A    -11.264202     5A    -11.246319     6A     -1.339474
       7A     -1.166230     8A     -1.005293     9A     -0.828785
      10A     -0.798754    11A     -0.756223    12A     -0.608409
      13A     -0.605293    14A     -0.593450    15A     -0.569337
      16A     -0.439291    17A     -0.401230    18A     -0.319955

  @DF-RHF Final Energy:  -224.89469751095774

   => Energetics <=

    Nuclear Repulsion Energy =            162.7959634670312994
    One-Electron Energy =                -626.5462030462359735
    Two-Electron Energy =                 238.8555420682469332
    Total Energy =                       -224.8946975109577409
  Basis Set: (AUG-CC-PVTZ AUX)
    Blend: AUG-CC-PVTZ-RI
    Molecular point group: c1

    Geometry (in Angstrom), charge = 0, multiplicity = 1:

       Center              X                  Y                   Z               Mass
    ------------   -----------------  -----------------  -----------------  -----------------
         C           -1.145402195436    -0.193214519570    -0.002188116359    12.000000000000
         C           -0.549592195436     1.049071480430    -0.002249116359    12.000000000000
         N            0.801984804564     0.793093480430    -0.002209116359    14.003074004430
         C            0.964998804564    -0.563002519570    -0.002216116359    12.000000000000
         N           -0.200204195436    -1.194220519570    -0.002249116359    14.003074004430
         H            1.539939804564     1.485734480430    -0.002176116359     1.007825032230
         H           -2.202688195436    -0.421045519570    -0.002164116359     1.007825032230
         H           -0.946792595436     2.053287480430     0.147723883641     1.007825032230
         H            1.940122804564    -1.031544519570    -0.002219116359     1.007825032230

  Basis Set: AUG-CC-PVTZ
    Blend: AUG-CC-PVTZ
  Basis Set: (AUG-CC-PVTZ AUX)
    Blend: AUG-CC-PVTZ-JKFIT
	 Reference Energy          =    -224.8946975109577409 [Eh]
	 Singles Energy            =      -0.0000000000000000 [Eh]
	 Same-Spin Energy          =      -0.2438595459527079 [Eh]
	 Opposite-Spin Energy      =      -0.7423501952684278 [Eh]
	 Correlation Energy        =      -0.9862097412211357 [Eh]
	 Total Energy              =    -225.8809072521788721 [Eh]

	 ================> DF-SCS-MP2 Energies <==================
	-----------------------------------------------------------
	 SCS Same-Spin Scale       =       0.3333333333333333 [-]
	 SCS Opposite-Spin Scale   =       1.2000000000000000 [-]
	 SCS Same-Spin Energy      =      -0.0812865153175693 [Eh]
	 SCS Opposite-Spin Energy  =      -0.8908202343221133 [Eh]
	 SCS Correlation Energy    =      -0.9721067496396827 [Eh]
	 SCS Total Energy          =    -225.8668042605974335 [Eh]
	-----------------------------------------------------------

  Dipole Moment: [D]
     X:     1.7832      Y:     3.3818      Z:     0.1393     Total:     3.8257

*** Psi4 exiting successfully. Buy a developer a beer!
