                               Psi4 1.3.2 release

  ==> Input File <==

--------------------------------------------------------------------------
#psi4
#
memory 32 gb

molecule  {
0 1
  C       -1.1499320    -0.2219830     0.0000330
  C       -0.5541220     1.0203030    -0.0000280
  N        0.7974550     0.7643250     0.0000120
  C        0.9604690    -0.5917710     0.0000050
  N       -0.2047340    -1.2229890    -0.0000280
  H        1.5354084     1.4569655     0.0500450
  H       -2.2072180    -0.4498140     0.0000570
  H       -0.9513210     2.0245130    -0.0000550
  H        1.9355930    -1.0603130     0.0000020
units angstrom
no_reorient  #important for SAPT in psi4, default
symmetry c1  #important for SAPT in psi4, default
}

set PROPERTIES_ORIGIN ["COM"]
properties('MP2/aug-cc-pvtz', properties = ['dipole'])
--------------------------------------------------------------------------

    Molecular point group: c1
  Charge       = 0
  Multiplicity = 1
  Basis Set: AUG-CC-PVTZ
    Blend: AUG-CC-PVTZ
  Basis Set: (AUG-CC-PVTZ AUX)
    Blend: AUG-CC-PVTZ-JKFIT

    Orbital Energies [Eh]
    ---------------------

    Doubly Occupied:

       1A    -15.626282     2A    -15.548649     3A    -11.299927
       4A    -11.263543     5A    -11.245933     6A     -1.339301
       7A     -1.165992     8A     -1.005494     9A     -0.828452
      10A     -0.799060    11A     -0.757344    12A     -0.608681
      13A     -0.603234    14A     -0.597395    15A     -0.569070
      16A     -0.439182    17A     -0.401139    18A     -0.319841

  @DF-RHF Final Energy:  -224.89575432930894

   => Energetics <=

    Nuclear Repulsion Energy =            162.8284341421778265
    One-Electron Energy =                -626.6113371877052032
    Two-Electron Energy =                 238.8871487162184621
    Total Energy =                       -224.8957543293089429
  Basis Set: (AUG-CC-PVTZ AUX)
    Blend: AUG-CC-PVTZ-RI
    Molecular point group: c1

    Geometry (in Angstrom), charge = 0, multiplicity = 1:

       Center              X                  Y                   Z               Mass
    ------------   -----------------  -----------------  -----------------  -----------------
         C           -1.145402192473    -0.193214423286    -0.000706836476    12.000000000000
         C           -0.549592192473     1.049071576714    -0.000767836476    12.000000000000
         N            0.801984807527     0.793093576714    -0.000727836476    14.003074004430
         C            0.964998807527    -0.563002423286    -0.000734836476    12.000000000000
         N           -0.200204192473    -1.194220423286    -0.000767836476    14.003074004430
         H            1.539938207527     1.485734076714     0.049305163524     1.007825032230
         H           -2.202688192473    -0.421045423286    -0.000682836476     1.007825032230
         H           -0.946791192473     2.053281576714    -0.000794836476     1.007825032230
         H            1.940122807527    -1.031544423286    -0.000737836476     1.007825032230

  Basis Set: AUG-CC-PVTZ
    Blend: AUG-CC-PVTZ
  Basis Set: (AUG-CC-PVTZ AUX)
    Blend: AUG-CC-PVTZ-JKFIT
	 Reference Energy          =    -224.8957543293089429 [Eh]
	 Singles Energy            =      -0.0000000000000000 [Eh]
	 Same-Spin Energy          =      -0.2437989818921422 [Eh]
	 Opposite-Spin Energy      =      -0.7422283662447332 [Eh]
	 Correlation Energy        =      -0.9860273481368754 [Eh]
	 Total Energy              =    -225.8817816774458151 [Eh]

	 ================> DF-SCS-MP2 Energies <==================
	-----------------------------------------------------------
	 SCS Same-Spin Scale       =       0.3333333333333333 [-]
	 SCS Opposite-Spin Scale   =       1.2000000000000000 [-]
	 SCS Same-Spin Energy      =      -0.0812663272973807 [Eh]
	 SCS Opposite-Spin Energy  =      -0.8906740394936798 [Eh]
	 SCS Correlation Energy    =      -0.9719403667910606 [Eh]
	 SCS Total Energy          =    -225.8676946961000169 [Eh]
	-----------------------------------------------------------

  Dipole Moment: [D]
     X:     1.7759      Y:     3.4021      Z:     0.0751     Total:     3.8385

*** Psi4 exiting successfully. Buy a developer a beer!
