                               Psi4 1.3.2 release

  ==> Input File <==

--------------------------------------------------------------------------
#psi4
#
memory 32 gb

molecule  {
0 1
  C       -1.1499320    -0.2219830     0.0000330
  C       -0.5541220     1.0203030    -0.0000280
  N        0.7974550     0.7643250     0.0000120
  C        0.9604690    -0.5917710     0.0000050
  N       -0.2047340    -1.2229890    -0.0000280
  H        1.5354100     1.4569660     0.0000450
  H       -2.2072203    -0.4498144    -0.0499430
  H       -0.9513210     2.0245130    -0.0000550
  H        1.9355930    -1.0603130     0.0000020
units angstrom
no_reorient  #important for SAPT in psi4, default
symmetry c1  #important for SAPT in psi4, default
}

set PROPERTIES_ORIGIN ["COM"]
properties('MP2/aug-cc-pvtz', properties = ['dipole'])
--------------------------------------------------------------------------

    Molecular point group: c1
  Charge       = 0
  Multiplicity = 1
  Basis Set: AUG-CC-PVTZ
    Blend: AUG-CC-PVTZ
  Basis Set: (AUG-CC-PVTZ AUX)
    Blend: AUG-CC-PVTZ-JKFIT

    Orbital Energies [Eh]
    ---------------------

    Doubly Occupied:

       1A    -15.626263     2A    -15.548634     3A    -11.299940
       4A    -11.263596     5A    -11.246007     6A     -1.339366
       7A     -1.166108     8A     -1.005503     9A     -0.828772
      10A     -0.798961    11A     -0.757416    12A     -0.608265
      13A     -0.603218    14A     -0.598053    15A     -0.568750
      16A     -0.439180    17A     -0.401105    18A     -0.319833

  @DF-RHF Final Energy:  -224.89571055538789

   => Energetics <=

    Nuclear Repulsion Energy =            162.8297872228729943
    One-Electron Energy =                -626.6130576596804076
    Two-Electron Energy =                 238.8875598814195200
    Total Energy =                       -224.8957105553878932
  Basis Set: (AUG-CC-PVTZ AUX)
    Blend: AUG-CC-PVTZ-RI
    Molecular point group: c1

    Geometry (in Angstrom), charge = 0, multiplicity = 1:

       Center              X                  Y                   Z               Mass
    ------------   -----------------  -----------------  -----------------  -----------------
         C           -1.145402182104    -0.193214424768     0.000774443407    12.000000000000
         C           -0.549592182104     1.049071575232     0.000713443407    12.000000000000
         N            0.801984817896     0.793093575232     0.000753443407    14.003074004430
         C            0.964998817896    -0.563002424768     0.000746443407    12.000000000000
         N           -0.200204182104    -1.194220424768     0.000713443407    14.003074004430
         H            1.539939817896     1.485734575232     0.000786443407     1.007825032230
         H           -2.202690482104    -0.421045824768    -0.049201556593     1.007825032230
         H           -0.946791182104     2.053281575232     0.000686443407     1.007825032230
         H            1.940122817896    -1.031544424768     0.000743443407     1.007825032230

  Basis Set: AUG-CC-PVTZ
    Blend: AUG-CC-PVTZ
  Basis Set: (AUG-CC-PVTZ AUX)
    Blend: AUG-CC-PVTZ-JKFIT
	 Reference Energy          =    -224.8957105553878932 [Eh]
	 Singles Energy            =      -0.0000000000000000 [Eh]
	 Same-Spin Energy          =      -0.2438009690838448 [Eh]
	 Opposite-Spin Energy      =      -0.7422281057119893 [Eh]
	 Correlation Energy        =      -0.9860290747958340 [Eh]
	 Total Energy              =    -225.8817396301837164 [Eh]

	 ================> DF-SCS-MP2 Energies <==================
	-----------------------------------------------------------
	 SCS Same-Spin Scale       =       0.3333333333333333 [-]
	 SCS Opposite-Spin Scale   =       1.2000000000000000 [-]
	 SCS Same-Spin Energy      =      -0.0812669896946149 [Eh]
	 SCS Opposite-Spin Energy  =      -0.8906737268543871 [Eh]
	 SCS Correlation Energy    =      -0.9719407165490019 [Eh]
	 SCS Total Energy          =    -225.8676512719368930 [Eh]
	-----------------------------------------------------------

  Dipole Moment: [D]
     X:     1.7794      Y:     3.4040      Z:    -0.0382     Total:     3.8413

*** Psi4 exiting successfully. Buy a developer a beer!
