                               Psi4 1.3.2 release

  ==> Input File <==

--------------------------------------------------------------------------
#psi4
#
memory 32 gb

molecule  {
0 1
  C       -1.1499320    -0.2219830     0.0000330
  C       -0.5541220     1.0203030    -0.0000280
  N        0.7974550     0.7643250     0.0000120
  C        0.9604690    -0.5917710     0.0000050
  N       -0.2047340    -1.2229890    -0.0000280
  H        1.5354100     1.4569660     0.0000450
  H       -2.2072180    -0.4498140     0.0000570
  H       -0.9513229     2.0245210     0.1999450
  H        1.9355930    -1.0603130     0.0000020
units angstrom
no_reorient  #important for SAPT in psi4, default
symmetry c1  #important for SAPT in psi4, default
}

set PROPERTIES_ORIGIN ["COM"]
properties('MP2/aug-cc-pvtz', properties = ['dipole'])
--------------------------------------------------------------------------

    Molecular point group: c1
  Charge       = 0
  Multiplicity = 1
  Basis Set: AUG-CC-PVTZ
    Blend: AUG-CC-PVTZ
  Basis Set: (AUG-CC-PVTZ AUX)
    Blend: AUG-CC-PVTZ-JKFIT

    Orbital Energies [Eh]
    ---------------------

    Doubly Occupied:

       1A    -15.626209     2A    -15.548971     3A    -11.300548
       4A    -11.264699     5A    -11.246631     6A     -1.339575
       7A     -1.166334     8A     -1.005135     9A     -0.828798
      10A     -0.798540    11A     -0.755307    12A     -0.608515
      13A     -0.606071    14A     -0.590768    15A     -0.569546
      16A     -0.439384    17A     -0.401318    18A     -0.320053

  @DF-RHF Final Energy:  -224.89372389186832

   => Energetics <=

    Nuclear Repulsion Energy =            162.7669156363393199
    One-Electron Energy =                -626.4884775529110357
    Two-Electron Energy =                 238.8278380247033965
    Total Energy =                       -224.8937238918683192
  Basis Set: (AUG-CC-PVTZ AUX)
    Blend: AUG-CC-PVTZ-RI
    Molecular point group: c1

    Geometry (in Angstrom), charge = 0, multiplicity = 1:

       Center              X                  Y                   Z               Mass
    ------------   -----------------  -----------------  -----------------  -----------------
         C           -1.145402188029    -0.193214549195    -0.002928756300    12.000000000000
         C           -0.549592188029     1.049071450805    -0.002989756300    12.000000000000
         N            0.801984811971     0.793093450805    -0.002949756300    14.003074004430
         C            0.964998811971    -0.563002549195    -0.002956756300    12.000000000000
         N           -0.200204188029    -1.194220549195    -0.002989756300    14.003074004430
         H            1.539939811971     1.485734450805    -0.002916756300     1.007825032230
         H           -2.202688188029    -0.421045549195    -0.002904756300     1.007825032230
         H           -0.946793088029     2.053289450805     0.196983243700     1.007825032230
         H            1.940122811971    -1.031544549195    -0.002959756300     1.007825032230

  Basis Set: AUG-CC-PVTZ
    Blend: AUG-CC-PVTZ
  Basis Set: (AUG-CC-PVTZ AUX)
    Blend: AUG-CC-PVTZ-JKFIT
	 Reference Energy          =    -224.8937238918683192 [Eh]
	 Singles Energy            =      -0.0000000000000000 [Eh]
	 Same-Spin Energy          =      -0.2439106642703421 [Eh]
	 Opposite-Spin Energy      =      -0.7424688639848243 [Eh]
	 Correlation Energy        =      -0.9863795282551664 [Eh]
	 Total Energy              =    -225.8801034201234756 [Eh]

	 ================> DF-SCS-MP2 Energies <==================
	-----------------------------------------------------------
	 SCS Same-Spin Scale       =       0.3333333333333333 [-]
	 SCS Opposite-Spin Scale   =       1.2000000000000000 [-]
	 SCS Same-Spin Energy      =      -0.0813035547567807 [Eh]
	 SCS Opposite-Spin Energy  =      -0.8909626367817891 [Eh]
	 SCS Correlation Energy    =      -0.9722661915385697 [Eh]
	 SCS Total Energy          =    -225.8659900834068992 [Eh]
	-----------------------------------------------------------

  Dipole Moment: [D]
     X:     1.7878      Y:     3.3651      Z:     0.1847     Total:     3.8150

*** Psi4 exiting successfully. Buy a developer a beer!
