                               Psi4 1.3.2 release

  ==> Input File <==

--------------------------------------------------------------------------
#psi4
#
memory 32 gb

molecule  {
0 1
  C       -1.1499320    -0.2219830     0.0000330
  C       -0.5541220     1.0203030    -0.0000280
  N        0.7974550     0.7643250     0.0000120
  C        0.9604690    -0.5917710     0.0000050
  N       -0.2047340    -1.2229890    -0.0000280
  H        1.5354100     1.4569660     0.0000450
  H       -2.2072270    -0.4498154    -0.1999430
  H       -0.9513210     2.0245130    -0.0000550
  H        1.9355930    -1.0603130     0.0000020
units angstrom
no_reorient  #important for SAPT in psi4, default
symmetry c1  #important for SAPT in psi4, default
}

set PROPERTIES_ORIGIN ["COM"]
properties('MP2/aug-cc-pvtz', properties = ['dipole'])
--------------------------------------------------------------------------

    Molecular point group: c1
  Charge       = 0
  Multiplicity = 1
  Basis Set: AUG-CC-PVTZ
    Blend: AUG-CC-PVTZ
  Basis Set: (AUG-CC-PVTZ AUX)
    Blend: AUG-CC-PVTZ-JKFIT

    Orbital Energies [Eh]
    ---------------------

    Doubly Occupied:

       1A    -15.626625     2A    -15.548803     3A    -11.300176
       4A    -11.264170     5A    -11.247408     6A     -1.339688
       7A     -1.166291     8A     -1.005390     9A     -0.828723
      10A     -0.797413    11A     -0.757136    12A     -0.608182
      13A     -0.603665    14A     -0.598582    15A     -0.564190
      16A     -0.439351    17A     -0.400930    18A     -0.319882

  @DF-RHF Final Energy:  -224.89335711230305

   => Energetics <=

    Nuclear Repulsion Energy =            162.7669028941477052
    One-Electron Energy =                -626.4873126944346495
    Two-Electron Energy =                 238.8270526879838656
    Total Energy =                       -224.8933571123030504
  Basis Set: (AUG-CC-PVTZ AUX)
    Blend: AUG-CC-PVTZ-RI
    Molecular point group: c1

    Geometry (in Angstrom), charge = 0, multiplicity = 1:

       Center              X                  Y                   Z               Mass
    ------------   -----------------  -----------------  -----------------  -----------------
         C           -1.145402082859    -0.193214409955     0.002996363232    12.000000000000
         C           -0.549592082859     1.049071590045     0.002935363232    12.000000000000
         N            0.801984917141     0.793093590045     0.002975363232    14.003074004430
         C            0.964998917141    -0.563002409955     0.002968363232    12.000000000000
         N           -0.200204082859    -1.194220409955     0.002935363232    14.003074004430
         H            1.539939917141     1.485734590045     0.003008363232     1.007825032230
         H           -2.202697082859    -0.421046809955    -0.196979636768     1.007825032230
         H           -0.946791082859     2.053281590045     0.002908363232     1.007825032230
         H            1.940122917141    -1.031544409955     0.002965363232     1.007825032230

  Basis Set: AUG-CC-PVTZ
    Blend: AUG-CC-PVTZ
  Basis Set: (AUG-CC-PVTZ AUX)
    Blend: AUG-CC-PVTZ-JKFIT
	 Reference Energy          =    -224.8933571123030504 [Eh]
	 Singles Energy            =      -0.0000000000000000 [Eh]
	 Same-Spin Energy          =      -0.2439233263116321 [Eh]
	 Opposite-Spin Energy      =      -0.7425225442765584 [Eh]
	 Correlation Energy        =      -0.9864458705881904 [Eh]
	 Total Energy              =    -225.8798029828912490 [Eh]

	 ================> DF-SCS-MP2 Energies <==================
	-----------------------------------------------------------
	 SCS Same-Spin Scale       =       0.3333333333333333 [-]
	 SCS Opposite-Spin Scale   =       1.2000000000000000 [-]
	 SCS Same-Spin Energy      =      -0.0813077754372107 [Eh]
	 SCS Opposite-Spin Energy  =      -0.8910270531318700 [Eh]
	 SCS Correlation Energy    =      -0.9723348285690807 [Eh]
	 SCS Total Energy          =    -225.8656919408721251 [Eh]
	-----------------------------------------------------------

  Dipole Moment: [D]
     X:     1.8113      Y:     3.4098      Z:    -0.1517     Total:     3.8640

*** Psi4 exiting successfully. Buy a developer a beer!
