                               Psi4 1.3.2 release

  ==> Input File <==

--------------------------------------------------------------------------
#psi4
#
memory 32 gb

molecule  {
0 1
  C       -1.1499320    -0.2219830     0.0000330
  C       -0.5541220     1.0203030    -0.0000280
  N        0.7974550     0.7643250     0.0000120
  C        0.9604690    -0.5917710     0.0000050
  N       -0.2047340    -1.2229890    -0.0000280
  H        1.5354100     1.4569660     0.0000450
  H       -2.2072180    -0.4498140     0.0000570
  H       -0.9513210     2.0245130    -0.0000550
  H        1.9355917    -1.0603144     0.1000020
units angstrom
no_reorient  #important for SAPT in psi4, default
symmetry c1  #important for SAPT in psi4, default
}

set PROPERTIES_ORIGIN ["COM"]
properties('MP2/aug-cc-pvtz', properties = ['dipole'])
--------------------------------------------------------------------------

    Molecular point group: c1
  Charge       = 0
  Multiplicity = 1
  Basis Set: AUG-CC-PVTZ
    Blend: AUG-CC-PVTZ
  Basis Set: (AUG-CC-PVTZ AUX)
    Blend: AUG-CC-PVTZ-JKFIT

    Orbital Energies [Eh]
    ---------------------

    Doubly Occupied:

       1A    -15.626260     2A    -15.548748     3A    -11.300242
       4A    -11.263706     5A    -11.246005     6A     -1.339390
       7A     -1.166161     8A     -1.005391     9A     -0.828623
      10A     -0.799031    11A     -0.756758    12A     -0.608541
      13A     -0.603890    14A     -0.596855    15A     -0.568428
      16A     -0.439255    17A     -0.401149    18A     -0.319861

  @DF-RHF Final Energy:  -224.89528144249294

   => Energetics <=

    Nuclear Repulsion Energy =            162.8167026423978712
    One-Electron Energy =                -626.5873786167450135
    Two-Electron Energy =                 238.8753945318541696
    Total Energy =                       -224.8952814424929443
  Basis Set: (AUG-CC-PVTZ AUX)
    Blend: AUG-CC-PVTZ-RI
    Molecular point group: c1

    Geometry (in Angstrom), charge = 0, multiplicity = 1:

       Center              X                  Y                   Z               Mass
    ------------   -----------------  -----------------  -----------------  -----------------
         C           -1.145402196917    -0.193214409955    -0.001447476417    12.000000000000
         C           -0.549592196917     1.049071590045    -0.001508476417    12.000000000000
         N            0.801984803083     0.793093590045    -0.001468476417    14.003074004430
         C            0.964998803083    -0.563002409955    -0.001475476417    12.000000000000
         N           -0.200204196917    -1.194220409955    -0.001508476417    14.003074004430
         H            1.539939803083     1.485734590045    -0.001435476417     1.007825032230
         H           -2.202688196917    -0.421045409955    -0.001423476417     1.007825032230
         H           -0.946791196917     2.053281590045    -0.001535476417     1.007825032230
         H            1.940121503083    -1.031545809955     0.098521523583     1.007825032230

  Basis Set: AUG-CC-PVTZ
    Blend: AUG-CC-PVTZ
  Basis Set: (AUG-CC-PVTZ AUX)
    Blend: AUG-CC-PVTZ-JKFIT
	 Reference Energy          =    -224.8952814424929443 [Eh]
	 Singles Energy            =      -0.0000000000000000 [Eh]
	 Same-Spin Energy          =      -0.2438415151833127 [Eh]
	 Opposite-Spin Energy      =      -0.7423019959594366 [Eh]
	 Correlation Energy        =      -0.9861435111427492 [Eh]
	 Total Energy              =    -225.8814249536357011 [Eh]

	 ================> DF-SCS-MP2 Energies <==================
	-----------------------------------------------------------
	 SCS Same-Spin Scale       =       0.3333333333333333 [-]
	 SCS Opposite-Spin Scale   =       1.2000000000000000 [-]
	 SCS Same-Spin Energy      =      -0.0812805050611042 [Eh]
	 SCS Opposite-Spin Energy  =      -0.8907623951513238 [Eh]
	 SCS Correlation Energy    =      -0.9720429002124280 [Eh]
	 SCS Total Energy          =    -225.8673243427053592 [Eh]
	-----------------------------------------------------------

  Dipole Moment: [D]
     X:     1.7672      Y:     3.4073      Z:     0.0812     Total:     3.8392

*** Psi4 exiting successfully. Buy a developer a beer!
