                               Psi4 1.3.2 release

  ==> Input File <==

--------------------------------------------------------------------------
#psi4
#
memory 32 gb

molecule  {
0 1
  C       -1.1499320    -0.2219830     0.0000330
  C       -0.5541220     1.0203030    -0.0000280
  N        0.7974550     0.7643250     0.0000120
  C        0.9604690    -0.5917710     0.0000050
  N       -0.2047340    -1.2229890    -0.0000280
  H        1.5354100     1.4569660     0.0000450
  H       -2.2072180    -0.4498140     0.0000570
  H       -0.9513210     2.0245130    -0.0000550
  H        1.9355904    -1.0603157     0.2000020
units angstrom
no_reorient  #important for SAPT in psi4, default
symmetry c1  #important for SAPT in psi4, default
}

set PROPERTIES_ORIGIN ["COM"]
properties('MP2/aug-cc-pvtz', properties = ['dipole'])
--------------------------------------------------------------------------

    Molecular point group: c1
  Charge       = 0
  Multiplicity = 1
  Basis Set: AUG-CC-PVTZ
    Blend: AUG-CC-PVTZ
  Basis Set: (AUG-CC-PVTZ AUX)
    Blend: AUG-CC-PVTZ-JKFIT

    Orbital Energies [Eh]
    ---------------------

    Doubly Occupied:

       1A    -15.626328     2A    -15.549117     3A    -11.301185
       4A    -11.264146     5A    -11.246282     6A     -1.339529
       7A     -1.166359     8A     -1.005055     9A     -0.828207
      10A     -0.798933    11A     -0.754777    12A     -0.609260
      13A     -0.604988    14A     -0.594604    15A     -0.566408
      16A     -0.439506    17A     -0.401245    18A     -0.319957

  @DF-RHF Final Energy:  -224.89343435706218

   => Energetics <=

    Nuclear Repulsion Energy =            162.7656168141323576
    One-Electron Energy =                -626.4863293494740901
    Two-Electron Energy =                 238.8272781782795278
    Total Energy =                       -224.8934343570621763
  Basis Set: (AUG-CC-PVTZ AUX)
    Blend: AUG-CC-PVTZ-RI
    Molecular point group: c1

    Geometry (in Angstrom), charge = 0, multiplicity = 1:

       Center              X                  Y                   Z               Mass
    ------------   -----------------  -----------------  -----------------  -----------------
         C           -1.145402177661    -0.193214390698    -0.002928756300    12.000000000000
         C           -0.549592177661     1.049071609302    -0.002989756300    12.000000000000
         N            0.801984822339     0.793093609302    -0.002949756300    14.003074004430
         C            0.964998822339    -0.563002390698    -0.002956756300    12.000000000000
         N           -0.200204177661    -1.194220390698    -0.002989756300    14.003074004430
         H            1.539939822339     1.485734609302    -0.002916756300     1.007825032230
         H           -2.202688177661    -0.421045390698    -0.002904756300     1.007825032230
         H           -0.946791177661     2.053281609302    -0.003016756300     1.007825032230
         H            1.940120222339    -1.031547090698     0.197040243700     1.007825032230

  Basis Set: AUG-CC-PVTZ
    Blend: AUG-CC-PVTZ
  Basis Set: (AUG-CC-PVTZ AUX)
    Blend: AUG-CC-PVTZ-JKFIT
	 Reference Energy          =    -224.8934343570621763 [Eh]
	 Singles Energy            =      -0.0000000000000000 [Eh]
	 Same-Spin Energy          =      -0.2439861637150444 [Eh]
	 Opposite-Spin Energy      =      -0.7425914394538302 [Eh]
	 Correlation Energy        =      -0.9865776031688747 [Eh]
	 Total Energy              =    -225.8800119602310588 [Eh]

	 ================> DF-SCS-MP2 Energies <==================
	-----------------------------------------------------------
	 SCS Same-Spin Scale       =       0.3333333333333333 [-]
	 SCS Opposite-Spin Scale   =       1.2000000000000000 [-]
	 SCS Same-Spin Energy      =      -0.0813287212383481 [Eh]
	 SCS Opposite-Spin Energy  =      -0.8911097273445963 [Eh]
	 SCS Correlation Energy    =      -0.9724384485829444 [Eh]
	 SCS Total Energy          =    -225.8658728056451253 [Eh]
	-----------------------------------------------------------

  Dipole Moment: [D]
     X:     1.7373      Y:     3.4183      Z:     0.1610     Total:     3.8378

*** Psi4 exiting successfully. Buy a developer a beer!
