                               Psi4 1.3.2 release

  ==> Input File <==

--------------------------------------------------------------------------
#psi4
#
memory 32 gb

molecule  {
0 1
  C       -1.1499320    -0.2219830     0.0000330
  C       -0.5541220     1.0203030    -0.0000280
  N        0.7974550     0.7643250     0.0000120
  C        0.9604690    -0.5917710     0.0000050
  N       -0.2047340    -1.2229890    -0.0000280
  H        1.5354051     1.4569645     0.1500450
  H       -2.2072180    -0.4498140     0.0000570
  H       -0.9513210     2.0245130    -0.0000550
  H        1.9355930    -1.0603130     0.0000020
units angstrom
no_reorient  #important for SAPT in psi4, default
symmetry c1  #important for SAPT in psi4, default
}

set PROPERTIES_ORIGIN ["COM"]
properties('MP2/aug-cc-pvtz', properties = ['dipole'])
--------------------------------------------------------------------------

    Molecular point group: c1
  Charge       = 0
  Multiplicity = 1
  Basis Set: AUG-CC-PVTZ
    Blend: AUG-CC-PVTZ
  Basis Set: (AUG-CC-PVTZ AUX)
    Blend: AUG-CC-PVTZ-JKFIT

    Orbital Energies [Eh]
    ---------------------

    Doubly Occupied:

       1A    -15.626628     2A    -15.548852     3A    -11.299948
       4A    -11.263428     5A    -11.246094     6A     -1.338968
       7A     -1.165187     8A     -1.005356     9A     -0.825923
      10A     -0.798986    11A     -0.756606    12A     -0.611034
      13A     -0.603297    14A     -0.593694    15A     -0.569131
      16A     -0.439290    17A     -0.401313    18A     -0.319927

  @DF-RHF Final Energy:  -224.89485406049127

   => Energetics <=

    Nuclear Repulsion Energy =            162.7839746870888575
    One-Electron Energy =                -626.5303312439035608
    Two-Electron Energy =                 238.8515024963234339
    Total Energy =                       -224.8948540604912694
  Basis Set: (AUG-CC-PVTZ AUX)
    Blend: AUG-CC-PVTZ-RI
    Molecular point group: c1

    Geometry (in Angstrom), charge = 0, multiplicity = 1:

       Center              X                  Y                   Z               Mass
    ------------   -----------------  -----------------  -----------------  -----------------
         C           -1.145402143591    -0.193214408474    -0.002188116359    12.000000000000
         C           -0.549592143591     1.049071591526    -0.002249116359    12.000000000000
         N            0.801984856409     0.793093591526    -0.002209116359    14.003074004430
         C            0.964998856409    -0.563002408474    -0.002216116359    12.000000000000
         N           -0.200204143591    -1.194220408474    -0.002249116359    14.003074004430
         H            1.539934956409     1.485733091526     0.147823883641     1.007825032230
         H           -2.202688143591    -0.421045408474    -0.002164116359     1.007825032230
         H           -0.946791143591     2.053281591526    -0.002276116359     1.007825032230
         H            1.940122856409    -1.031544408474    -0.002219116359     1.007825032230

  Basis Set: AUG-CC-PVTZ
    Blend: AUG-CC-PVTZ
  Basis Set: (AUG-CC-PVTZ AUX)
    Blend: AUG-CC-PVTZ-JKFIT
	 Reference Energy          =    -224.8948540604912694 [Eh]
	 Singles Energy            =      -0.0000000000000000 [Eh]
	 Same-Spin Energy          =      -0.2438494551014704 [Eh]
	 Opposite-Spin Energy      =      -0.7423829667059940 [Eh]
	 Correlation Energy        =      -0.9862324218074645 [Eh]
	 Total Energy              =    -225.8810864822987412 [Eh]

	 ================> DF-SCS-MP2 Energies <==================
	-----------------------------------------------------------
	 SCS Same-Spin Scale       =       0.3333333333333333 [-]
	 SCS Opposite-Spin Scale   =       1.2000000000000000 [-]
	 SCS Same-Spin Energy      =      -0.0812831517004901 [Eh]
	 SCS Opposite-Spin Energy  =      -0.8908595600471928 [Eh]
	 SCS Correlation Energy    =      -0.9721427117476830 [Eh]
	 SCS Total Energy          =    -225.8669967722389629 [Eh]
	-----------------------------------------------------------

  Dipole Moment: [D]
     X:     1.7652      Y:     3.3901      Z:     0.2244     Total:     3.8288

*** Psi4 exiting successfully. Buy a developer a beer!
