                               Psi4 1.3.2 release

  ==> Input File <==

--------------------------------------------------------------------------
#psi4
#
memory 32 gb

molecule  {
0 1
  C       -1.1499320    -0.2219830     0.0000330
  C       -0.5541220     1.0203030    -0.0000280
  N        0.7974550     0.7643250     0.0000120
  C        0.9604690    -0.5917710     0.0000050
  N       -0.2047340    -1.2229890    -0.0000280
  H        1.5354100     1.4569660     0.0000450
  H       -2.2072180    -0.4498140     0.0000570
  H       -0.9513210     2.0245130    -0.0000550
  H        1.9355911    -1.0603150     0.1500020
units angstrom
no_reorient  #important for SAPT in psi4, default
symmetry c1  #important for SAPT in psi4, default
}

set PROPERTIES_ORIGIN ["COM"]
properties('MP2/aug-cc-pvtz', properties = ['dipole'])
--------------------------------------------------------------------------

    Molecular point group: c1
  Charge       = 0
  Multiplicity = 1
  Basis Set: AUG-CC-PVTZ
    Blend: AUG-CC-PVTZ
  Basis Set: (AUG-CC-PVTZ AUX)
    Blend: AUG-CC-PVTZ-JKFIT

    Orbital Energies [Eh]
    ---------------------

    Doubly Occupied:

       1A    -15.626287     2A    -15.548902     3A    -11.300637
       4A    -11.263891     5A    -11.246121     6A     -1.339448
       7A     -1.166244     8A     -1.005247     9A     -0.828441
      10A     -0.798987    11A     -0.755923    12A     -0.608860
      13A     -0.604455    14A     -0.595770    15A     -0.567607
      16A     -0.439361    17A     -0.401188    18A     -0.319901

  @DF-RHF Final Energy:  -224.89453271034969

   => Energetics <=

    Nuclear Repulsion Energy =            162.7952349539285137
    One-Electron Energy =                -626.5449944205397514
    Two-Electron Energy =                 238.8552267562615441
    Total Energy =                       -224.8945327103496936
  Basis Set: (AUG-CC-PVTZ AUX)
    Blend: AUG-CC-PVTZ-RI
    Molecular point group: c1

    Geometry (in Angstrom), charge = 0, multiplicity = 1:

       Center              X                  Y                   Z               Mass
    ------------   -----------------  -----------------  -----------------  -----------------
         C           -1.145402188029    -0.193214401067    -0.002188116359    12.000000000000
         C           -0.549592188029     1.049071598933    -0.002249116359    12.000000000000
         N            0.801984811971     0.793093598933    -0.002209116359    14.003074004430
         C            0.964998811971    -0.563002401067    -0.002216116359    12.000000000000
         N           -0.200204188029    -1.194220401067    -0.002249116359    14.003074004430
         H            1.539939811971     1.485734598933    -0.002176116359     1.007825032230
         H           -2.202688188029    -0.421045401067    -0.002164116359     1.007825032230
         H           -0.946791188029     2.053281598933    -0.002276116359     1.007825032230
         H            1.940120911971    -1.031546401067     0.147780883641     1.007825032230

  Basis Set: AUG-CC-PVTZ
    Blend: AUG-CC-PVTZ
  Basis Set: (AUG-CC-PVTZ AUX)
    Blend: AUG-CC-PVTZ-JKFIT
	 Reference Energy          =    -224.8945327103496936 [Eh]
	 Singles Energy            =      -0.0000000000000000 [Eh]
	 Same-Spin Energy          =      -0.2439021383526357 [Eh]
	 Opposite-Spin Energy      =      -0.7424207535521481 [Eh]
	 Correlation Energy        =      -0.9863228919047837 [Eh]
	 Total Energy              =    -225.8808556022544849 [Eh]

	 ================> DF-SCS-MP2 Energies <==================
	-----------------------------------------------------------
	 SCS Same-Spin Scale       =       0.3333333333333333 [-]
	 SCS Opposite-Spin Scale   =       1.2000000000000000 [-]
	 SCS Same-Spin Energy      =      -0.0813007127842119 [Eh]
	 SCS Opposite-Spin Energy  =      -0.8909049042625777 [Eh]
	 SCS Correlation Energy    =      -0.9722056170467896 [Eh]
	 SCS Total Energy          =    -225.8667383273964901 [Eh]
	-----------------------------------------------------------

  Dipole Moment: [D]
     X:     1.7546      Y:     3.4119      Z:     0.1213     Total:     3.8386

*** Psi4 exiting successfully. Buy a developer a beer!
