                               Psi4 1.3.2 release

  ==> Input File <==

--------------------------------------------------------------------------
#psi4
#
memory 32 gb

molecule  {
0 1
  C       -1.1499320    -0.2219830     0.0000330
  C       -0.5541220     1.0203030    -0.0000280
  N        0.7974550     0.7643250     0.0000120
  C        0.9604690    -0.5917710     0.0000050
  N       -0.2047340    -1.2229890    -0.0000280
  H        1.5354018     1.4569634     0.2500450
  H       -2.2072180    -0.4498140     0.0000570
  H       -0.9513210     2.0245130    -0.0000550
  H        1.9355930    -1.0603130     0.0000020
units angstrom
no_reorient  #important for SAPT in psi4, default
symmetry c1  #important for SAPT in psi4, default
}

set PROPERTIES_ORIGIN ["COM"]
properties('MP2/aug-cc-pvtz', properties = ['dipole'])
--------------------------------------------------------------------------

    Molecular point group: c1
  Charge       = 0
  Multiplicity = 1
  Basis Set: AUG-CC-PVTZ
    Blend: AUG-CC-PVTZ
  Basis Set: (AUG-CC-PVTZ AUX)
    Blend: AUG-CC-PVTZ-JKFIT

    Orbital Energies [Eh]
    ---------------------

    Doubly Occupied:

       1A    -15.627304     2A    -15.549242     3A    -11.299993
       4A    -11.263213     5A    -11.246406     6A     -1.338349
       7A     -1.163676     8A     -1.005103     9A     -0.821237
      10A     -0.798843    11A     -0.755035    12A     -0.613700
      13A     -0.603168    14A     -0.588605    15A     -0.569218
      16A     -0.439495    17A     -0.401648    18A     -0.320095

  @DF-RHF Final Energy:  -224.89269280106456

   => Energetics <=

    Nuclear Repulsion Energy =            162.6981400154290327
    One-Electron Energy =                -626.3730096295039402
    Two-Electron Energy =                 238.7821768130103521
    Total Energy =                       -224.8926928010645554
  Basis Set: (AUG-CC-PVTZ AUX)
    Blend: AUG-CC-PVTZ-RI
    Molecular point group: c1

    Geometry (in Angstrom), charge = 0, multiplicity = 1:

       Center              X                  Y                   Z               Mass
    ------------   -----------------  -----------------  -----------------  -----------------
         C           -1.145402094709    -0.193214392180    -0.003669396242    12.000000000000
         C           -0.549592094709     1.049071607820    -0.003730396242    12.000000000000
         N            0.801984905291     0.793093607820    -0.003690396242    14.003074004430
         C            0.964998905291    -0.563002392180    -0.003697396242    12.000000000000
         N           -0.200204094709    -1.194220392180    -0.003730396242    14.003074004430
         H            1.539931705291     1.485732007820     0.246342603758     1.007825032230
         H           -2.202688094709    -0.421045392180    -0.003645396242     1.007825032230
         H           -0.946791094709     2.053281607820    -0.003757396242     1.007825032230
         H            1.940122905291    -1.031544392180    -0.003700396242     1.007825032230

  Basis Set: AUG-CC-PVTZ
    Blend: AUG-CC-PVTZ
  Basis Set: (AUG-CC-PVTZ AUX)
    Blend: AUG-CC-PVTZ-JKFIT
	 Reference Energy          =    -224.8926928010645554 [Eh]
	 Singles Energy            =      -0.0000000000000000 [Eh]
	 Same-Spin Energy          =      -0.2439506998712279 [Eh]
	 Opposite-Spin Energy      =      -0.7427088795197303 [Eh]
	 Correlation Energy        =      -0.9866595793909583 [Eh]
	 Total Energy              =    -225.8793523804555150 [Eh]

	 ================> DF-SCS-MP2 Energies <==================
	-----------------------------------------------------------
	 SCS Same-Spin Scale       =       0.3333333333333333 [-]
	 SCS Opposite-Spin Scale   =       1.2000000000000000 [-]
	 SCS Same-Spin Energy      =      -0.0813168999570760 [Eh]
	 SCS Opposite-Spin Energy  =      -0.8912506554236763 [Eh]
	 SCS Correlation Energy    =      -0.9725675553807522 [Eh]
	 SCS Total Energy          =    -225.8652603564453045 [Eh]
	-----------------------------------------------------------

  Dipole Moment: [D]
     X:     1.7445      Y:     3.3670      Z:     0.3714     Total:     3.8102

*** Psi4 exiting successfully. Buy a developer a beer!
