                               Psi4 1.3.2 release

  ==> Input File <==

--------------------------------------------------------------------------
#psi4
#
memory 32 gb

molecule  {
0 1
  C       -1.1499320    -0.2219830     0.0000330
  C       -0.5541220     1.0203030    -0.0000280
  N        0.7974550     0.7643250     0.0000120
  C        0.9604690    -0.5917710     0.0000050
  N       -0.2047340    -1.2229890    -0.0000280
  H        1.5354100     1.4569660     0.0000450
  H       -2.2072180    -0.4498140     0.0000570
  H       -0.9513210     2.0245130    -0.0000550
  H        1.9355924    -1.0603137     0.0500020
units angstrom
no_reorient  #important for SAPT in psi4, default
symmetry c1  #important for SAPT in psi4, default
}

set PROPERTIES_ORIGIN ["COM"]
properties('MP2/aug-cc-pvtz', properties = ['dipole'])
--------------------------------------------------------------------------

    Molecular point group: c1
  Charge       = 0
  Multiplicity = 1
  Basis Set: AUG-CC-PVTZ
    Blend: AUG-CC-PVTZ
  Basis Set: (AUG-CC-PVTZ AUX)
    Blend: AUG-CC-PVTZ-JKFIT

    Orbital Energies [Eh]
    ---------------------

    Doubly Occupied:

       1A    -15.626244     2A    -15.548655     3A    -11.300004
       4A    -11.263595     5A    -11.245936     6A     -1.339356
       7A     -1.166112     8A     -1.005481     9A     -0.828738
      10A     -0.799060    11A     -0.757265    12A     -0.608339
      13A     -0.603398    14A     -0.597685    15A     -0.568905
      16A     -0.439190    17A     -0.401125    18A     -0.319837

  @DF-RHF Final Energy:  -224.89571551002999

   => Energetics <=

    Nuclear Repulsion Energy =            162.8297104617453215
    One-Electron Energy =                -626.6130037851482939
    Two-Electron Energy =                 238.8875778133729852
    Total Energy =                       -224.8957155100299872
  Basis Set: (AUG-CC-PVTZ AUX)
    Blend: AUG-CC-PVTZ-RI
    Molecular point group: c1

    Geometry (in Angstrom), charge = 0, multiplicity = 1:

       Center              X                  Y                   Z               Mass
    ------------   -----------------  -----------------  -----------------  -----------------
         C           -1.145402207286    -0.193214420324    -0.000706836476    12.000000000000
         C           -0.549592207286     1.049071579676    -0.000767836476    12.000000000000
         N            0.801984792714     0.793093579676    -0.000727836476    14.003074004430
         C            0.964998792714    -0.563002420324    -0.000734836476    12.000000000000
         N           -0.200204207286    -1.194220420324    -0.000767836476    14.003074004430
         H            1.539939792714     1.485734579676    -0.000694836476     1.007825032230
         H           -2.202688207286    -0.421045420324    -0.000682836476     1.007825032230
         H           -0.946791207286     2.053281579676    -0.000794836476     1.007825032230
         H            1.940122192714    -1.031545120324     0.049262163524     1.007825032230

  Basis Set: AUG-CC-PVTZ
    Blend: AUG-CC-PVTZ
  Basis Set: (AUG-CC-PVTZ AUX)
    Blend: AUG-CC-PVTZ-JKFIT
	 Reference Energy          =    -224.8957155100299872 [Eh]
	 Singles Energy            =      -0.0000000000000000 [Eh]
	 Same-Spin Energy          =      -0.2438049206587666 [Eh]
	 Opposite-Spin Energy      =      -0.7422324273556442 [Eh]
	 Correlation Energy        =      -0.9860373480144109 [Eh]
	 Total Energy              =    -225.8817528580443934 [Eh]

	 ================> DF-SCS-MP2 Energies <==================
	-----------------------------------------------------------
	 SCS Same-Spin Scale       =       0.3333333333333333 [-]
	 SCS Opposite-Spin Scale   =       1.2000000000000000 [-]
	 SCS Same-Spin Energy      =      -0.0812683068862555 [Eh]
	 SCS Opposite-Spin Energy  =      -0.8906789128267730 [Eh]
	 SCS Correlation Energy    =      -0.9719472197130286 [Eh]
	 SCS Total Energy          =    -225.8676627297430173 [Eh]
	-----------------------------------------------------------

  Dipole Moment: [D]
     X:     1.7747      Y:     3.4046      Z:     0.0407     Total:     3.8396

*** Psi4 exiting successfully. Buy a developer a beer!
