                               Psi4 1.3.2 release

  ==> Input File <==

--------------------------------------------------------------------------
#psi4
#
memory 32 gb

molecule  {
0 1
  C       -1.1499320    -0.2219830     0.0000330
  C       -0.5541220     1.0203030    -0.0000280
  N        0.7974550     0.7643250     0.0000120
  C        0.9604690    -0.5917710     0.0000050
  N       -0.2047340    -1.2229890    -0.0000280
  H        1.5354002     1.4569629     0.3000450
  H       -2.2072180    -0.4498140     0.0000570
  H       -0.9513210     2.0245130    -0.0000550
  H        1.9355930    -1.0603130     0.0000020
units angstrom
no_reorient  #important for SAPT in psi4, default
symmetry c1  #important for SAPT in psi4, default
}

set PROPERTIES_ORIGIN ["COM"]
properties('MP2/aug-cc-pvtz', properties = ['dipole'])
--------------------------------------------------------------------------

    Molecular point group: c1
  Charge       = 0
  Multiplicity = 1
  Basis Set: AUG-CC-PVTZ
    Blend: AUG-CC-PVTZ
  Basis Set: (AUG-CC-PVTZ AUX)
    Blend: AUG-CC-PVTZ-JKFIT

    Orbital Energies [Eh]
    ---------------------

    Doubly Occupied:

       1A    -15.627755     2A    -15.549499     3A    -11.300024
       4A    -11.263074     5A    -11.246613     6A     -1.337957
       7A     -1.162709     8A     -1.004945     9A     -0.818295
      10A     -0.798747    11A     -0.753885    12A     -0.614853
      13A     -0.603058    14A     -0.585828    15A     -0.569242
      16A     -0.439627    17A     -0.401869    18A     -0.320205

  @DF-RHF Final Energy:  -224.89096605674712

   => Energetics <=

    Nuclear Repulsion Energy =            162.6413626474879379
    One-Electron Energy =                -626.2682834659187847
    Two-Electron Energy =                 238.7359547616837290
    Total Energy =                       -224.8909660567471178
  Basis Set: (AUG-CC-PVTZ AUX)
    Blend: AUG-CC-PVTZ-RI
    Molecular point group: c1

    Geometry (in Angstrom), charge = 0, multiplicity = 1:

       Center              X                  Y                   Z               Mass
    ------------   -----------------  -----------------  -----------------  -----------------
         C           -1.145402071008    -0.193214384773    -0.004410036184    12.000000000000
         C           -0.549592071008     1.049071615227    -0.004471036184    12.000000000000
         N            0.801984928992     0.793093615227    -0.004431036184    14.003074004430
         C            0.964998928992    -0.563002384773    -0.004438036184    12.000000000000
         N           -0.200204071008    -1.194220384773    -0.004471036184    14.003074004430
         H            1.539930128992     1.485731515227     0.295601963816     1.007825032230
         H           -2.202688071008    -0.421045384773    -0.004386036184     1.007825032230
         H           -0.946791071008     2.053281615227    -0.004498036184     1.007825032230
         H            1.940122928992    -1.031544384773    -0.004441036184     1.007825032230

  Basis Set: AUG-CC-PVTZ
    Blend: AUG-CC-PVTZ
  Basis Set: (AUG-CC-PVTZ AUX)
    Blend: AUG-CC-PVTZ-JKFIT
	 Reference Energy          =    -224.8909660567471178 [Eh]
	 Singles Energy            =      -0.0000000000000000 [Eh]
	 Same-Spin Energy          =      -0.2440202188729333 [Eh]
	 Opposite-Spin Energy      =      -0.7429410197438742 [Eh]
	 Correlation Energy        =      -0.9869612386168075 [Eh]
	 Total Energy              =    -225.8779272953639179 [Eh]

	 ================> DF-SCS-MP2 Energies <==================
	-----------------------------------------------------------
	 SCS Same-Spin Scale       =       0.3333333333333333 [-]
	 SCS Opposite-Spin Scale   =       1.2000000000000000 [-]
	 SCS Same-Spin Energy      =      -0.0813400729576444 [Eh]
	 SCS Opposite-Spin Energy  =      -0.8915292236926490 [Eh]
	 SCS Correlation Energy    =      -0.9728692966502934 [Eh]
	 SCS Total Energy          =    -225.8638353533974055 [Eh]
	-----------------------------------------------------------

  Dipole Moment: [D]
     X:     1.7307      Y:     3.3517      Z:     0.4437     Total:     3.7981

*** Psi4 exiting successfully. Buy a developer a beer!
