                               Psi4 1.3.2 release

  ==> Input File <==

--------------------------------------------------------------------------
#psi4
#
memory 32 gb

molecule  {
0 1
  C       -1.1499320    -0.2219830     0.0000330
  C       -0.5541220     1.0203030    -0.0000280
  N        0.7974550     0.7643250     0.0000120
  C        0.9604690    -0.5917710     0.0000050
  N       -0.2047340    -1.2229890    -0.0000280
  H        1.5354100     1.4569660     0.0000450
  H       -2.2072180    -0.4498140     0.0000570
  H       -0.9513210     2.0245130    -0.0000550
  H        1.9355891    -1.0603171     0.3000020
units angstrom
no_reorient  #important for SAPT in psi4, default
symmetry c1  #important for SAPT in psi4, default
}

set PROPERTIES_ORIGIN ["COM"]
properties('MP2/aug-cc-pvtz', properties = ['dipole'])
--------------------------------------------------------------------------

    Molecular point group: c1
  Charge       = 0
  Multiplicity = 1
  Basis Set: AUG-CC-PVTZ
    Blend: AUG-CC-PVTZ
  Basis Set: (AUG-CC-PVTZ AUX)
    Blend: AUG-CC-PVTZ-JKFIT

    Orbital Energies [Eh]
    ---------------------

    Doubly Occupied:

       1A    -15.626456     2A    -15.549720     3A    -11.302721
       4A    -11.264859     5A    -11.246734     6A     -1.339762
       7A     -1.166686     8A     -1.004569     9A     -0.827647
      10A     -0.798829    11A     -0.751650    12A     -0.610129
      13A     -0.605901    14A     -0.592424    15A     -0.562719
      16A     -0.439898    17A     -0.401409    18A     -0.320122

  @DF-RHF Final Energy:  -224.89001111483410

   => Energetics <=

    Nuclear Repulsion Energy =            162.6836606246881161
    One-Electron Energy =                -626.3228705319002074
    Two-Electron Energy =                 238.7491987923779959
    Total Energy =                       -224.8900111148340955
  Basis Set: (AUG-CC-PVTZ AUX)
    Blend: AUG-CC-PVTZ-RI
    Molecular point group: c1

    Geometry (in Angstrom), charge = 0, multiplicity = 1:

       Center              X                  Y                   Z               Mass
    ------------   -----------------  -----------------  -----------------  -----------------
         C           -1.145402158404    -0.193214369960    -0.004410036184    12.000000000000
         C           -0.549592158404     1.049071630040    -0.004471036184    12.000000000000
         N            0.801984841596     0.793093630040    -0.004431036184    14.003074004430
         C            0.964998841596    -0.563002369960    -0.004438036184    12.000000000000
         N           -0.200204158404    -1.194220369960    -0.004471036184    14.003074004430
         H            1.539939841596     1.485734630040    -0.004398036184     1.007825032230
         H           -2.202688158404    -0.421045369960    -0.004386036184     1.007825032230
         H           -0.946791158404     2.053281630040    -0.004498036184     1.007825032230
         H            1.940118941596    -1.031548469960     0.295558963816     1.007825032230

  Basis Set: AUG-CC-PVTZ
    Blend: AUG-CC-PVTZ
  Basis Set: (AUG-CC-PVTZ AUX)
    Blend: AUG-CC-PVTZ-JKFIT
	 Reference Energy          =    -224.8900111148340955 [Eh]
	 Singles Energy            =      -0.0000000000000000 [Eh]
	 Same-Spin Energy          =      -0.2442204125245208 [Eh]
	 Opposite-Spin Energy      =      -0.7430957138644683 [Eh]
	 Correlation Energy        =      -0.9873161263889890 [Eh]
	 Total Energy              =    -225.8773272412230710 [Eh]

	 ================> DF-SCS-MP2 Energies <==================
	-----------------------------------------------------------
	 SCS Same-Spin Scale       =       0.3333333333333333 [-]
	 SCS Opposite-Spin Scale   =       1.2000000000000000 [-]
	 SCS Same-Spin Energy      =      -0.0814068041748403 [Eh]
	 SCS Opposite-Spin Energy  =      -0.8917148566373619 [Eh]
	 SCS Correlation Energy    =      -0.9731216608122022 [Eh]
	 SCS Total Energy          =    -225.8631327756463065 [Eh]
	-----------------------------------------------------------

  Dipole Moment: [D]
     X:     1.6892      Y:     3.4361      Z:     0.2384     Total:     3.8363

*** Psi4 exiting successfully. Buy a developer a beer!
