                               Psi4 1.4a3.dev225

  ==> Input File <==

--------------------------------------------------------------------------
#psi4
#
memory 32 gb

molecule  {
0 1
  N        0.0801310     2.5312230    -0.3913130
  N       -1.9006720     0.7782080     0.6229160
  C        0.3460889     0.1441831     0.0067678
  C        0.8960730     1.4188800    -0.1658420
  C        2.6063130    -0.8406050     0.1180930
  C        1.2173430    -0.9692250     0.1590540
  C       -1.1077440    -0.1233710    -0.0042630
  C        2.2932590     1.5435480    -0.2281840
  C        3.1306880     0.4434260    -0.0762550
  C        3.5085210    -2.0251140     0.3469700
  C       -1.6410700    -1.2638430    -0.6279320
  C       -3.0109220    -1.5027310    -0.5649580
  C       -3.2228950     0.5407920     0.6622730
  C       -3.8232840    -0.5849970     0.1005040
  H        0.7834850    -1.9532010     0.3364590
  H        2.7242150     2.5332940    -0.3759070
  H        4.2098530     0.5856070    -0.1209690
  H        3.8288200    -2.0891060     1.3929170
  H        2.9990460    -2.9607700     0.0984840
  H        4.4097140    -1.9577250    -0.2701360
  H       -0.9841790    -1.9393540    -1.1680850
  H        0.5549050     3.4095210    -0.2083710
  H       -0.8007830     2.4663430     0.1128890
  H       -3.4393090    -2.3812410    -1.0417430
  H       -3.8215100     1.2923600     1.1747000
  H       -4.8979480    -0.7268890     0.1711280
units angstrom
no_reorient  #important for SAPT in psi4, default
symmetry c1  #important for SAPT in psi4, default
}

set PROPERTIES_ORIGIN ["COM"]
properties('MP2/aug-cc-pvtz', properties = ['dipole'])
--------------------------------------------------------------------------

    Molecular point group: c1
  Charge       = 0
  Multiplicity = 1
  Basis Set: AUG-CC-PVTZ
    Blend: AUG-CC-PVTZ
  Basis Set: (AUG-CC-PVTZ AUX)
    Blend: AUG-CC-PVTZ-JKFIT

    Orbital Energies [Eh]
    ---------------------

    Doubly Occupied:

       1A    -15.566995     2A    -15.546765     3A    -11.288624
       4A    -11.279887     5A    -11.273485     6A    -11.262515
       7A    -11.241509     8A    -11.241188     9A    -11.234490
      10A    -11.232942    11A    -11.232119    12A    -11.227195
      13A    -11.223633    14A    -11.219779    15A     -1.260997
      16A     -1.211035    17A     -1.130672    18A     -1.087858
      19A     -1.062511    20A     -1.016830    21A     -0.991272
      22A     -0.916279    23A     -0.870790    24A     -0.861916
      25A     -0.816629    26A     -0.782141    27A     -0.708473
      28A     -0.689562    29A     -0.681440    30A     -0.660848
      31A     -0.649138    32A     -0.613780    33A     -0.600113
      34A     -0.589787    35A     -0.580954    36A     -0.573973
      37A     -0.570455    38A     -0.548264    39A     -0.532296
      40A     -0.529741    41A     -0.513104    42A     -0.491242
      43A     -0.487511    44A     -0.434016    45A     -0.419019
      46A     -0.387456    47A     -0.365982    48A     -0.315285
      49A     -0.280276

  @DF-RHF Final Energy:  -570.50123355956214

   => Energetics <=

    Nuclear Repulsion Energy =            812.0489397289442195
    One-Electron Energy =               -2384.4948039539549427
    Two-Electron Energy =                1001.9446306654484715
    Total Energy =                       -570.5012335595621380
  Basis Set: (AUG-CC-PVTZ AUX)
    Blend: AUG-CC-PVTZ-RI
    Molecular point group: c1

    Geometry (in Angstrom), charge = 0, multiplicity = 1:

       Center              X                  Y                   Z               Mass
    ------------   -----------------  -----------------  -----------------  -----------------
         N            0.110412654200     2.509695329392    -0.391639163634    14.003074004430
         N           -1.870390345800     0.756680329392     0.622589836366    14.003074004430
         C            0.376370554200     0.122655429392     0.006441636366    12.000000000000
         C            0.926354654200     1.397352329392    -0.166168163634    12.000000000000
         C            2.636594654200    -0.862132670608     0.117766836366    12.000000000000
         C            1.247624654200    -0.990752670608     0.158727836366    12.000000000000
         C           -1.077462345800    -0.144898670608    -0.004589163634    12.000000000000
         C            2.323540654200     1.522020329392    -0.228510163634    12.000000000000
         C            3.160969654200     0.421898329392    -0.076581163634    12.000000000000
         C            3.538802654200    -2.046641670608     0.346643836366    12.000000000000
         C           -1.610788345800    -1.285370670608    -0.628258163634    12.000000000000
         C           -2.980640345800    -1.524258670608    -0.565284163634    12.000000000000
         C           -3.192613345800     0.519264329392     0.661946836366    12.000000000000
         C           -3.793002345800    -0.606524670608     0.100177836366    12.000000000000
         H            0.813766654200    -1.974728670608     0.336132836366     1.007825032230
         H            2.754496654200     2.511766329392    -0.376233163634     1.007825032230
         H            4.240134654200     0.564079329392    -0.121295163634     1.007825032230
         H            3.859101654200    -2.110633670608     1.392590836366     1.007825032230
         H            3.029327654200    -2.982297670608     0.098157836366     1.007825032230
         H            4.439995654200    -1.979252670608    -0.270462163634     1.007825032230
         H           -0.953897345800    -1.960881670608    -1.168411163634     1.007825032230
         H            0.585186654200     3.387993329392    -0.208697163634     1.007825032230
         H           -0.770501345800     2.444815329392     0.112562836366     1.007825032230
         H           -3.409027345800    -2.402768670608    -1.042069163634     1.007825032230
         H           -3.791228345800     1.270832329392     1.174373836366     1.007825032230
         H           -4.867666345800    -0.748416670608     0.170801836366     1.007825032230

  Basis Set: AUG-CC-PVTZ
    Blend: AUG-CC-PVTZ
  Basis Set: (AUG-CC-PVTZ AUX)
    Blend: AUG-CC-PVTZ-JKFIT
	 Reference Energy          =    -570.5012335595621380 [Eh]
	 Singles Energy            =      -0.0000000000000000 [Eh]
	 Same-Spin Energy          =      -0.6408042335562233 [Eh]
	 Opposite-Spin Energy      =      -1.9777615989473594 [Eh]
	 Correlation Energy        =      -2.6185658325035828 [Eh]
	 Total Energy              =    -573.1197993920657154 [Eh]

	 ================> DF-SCS-MP2 Energies <==================
	-----------------------------------------------------------
	 SCS Same-Spin Scale       =       0.3333333333333333 [-]
	 SCS Opposite-Spin Scale   =       1.2000000000000000 [-]
	 SCS Same-Spin Energy      =      -0.2136014111854078 [Eh]
	 SCS Opposite-Spin Energy  =      -2.3733139187368311 [Eh]
	 SCS Correlation Energy    =      -2.5869153299222387 [Eh]
	 SCS Total Energy          =    -573.0881488894843869 [Eh]
	-----------------------------------------------------------

  Dipole Moment: [D]
     X:    -1.0722      Y:    -0.9817      Z:     0.0764     Total:     1.4557

*** Psi4 exiting successfully. Buy a developer a beer!
