                               Psi4 1.4a3.dev225

  ==> Input File <==

--------------------------------------------------------------------------
#psi4
#
memory 32 gb

molecule  {
0 1
  N        0.0801310     2.5312230    -0.3913130
  N       -1.9006720     0.7782080     0.6229160
  C        0.3499640     0.1224320    -0.0065570
  C        0.8960730     1.4188800    -0.1658420
  C        2.6063130    -0.8406050     0.1180930
  C        1.2173430    -0.9692250     0.1590540
  C       -1.1077440    -0.1233710    -0.0042630
  C        2.2932590     1.5435480    -0.2281840
  C        3.1306880     0.4434260    -0.0762550
  C        3.5384656    -2.0644283     0.3545665
  C       -1.6410700    -1.2638430    -0.6279320
  C       -3.0109220    -1.5027310    -0.5649580
  C       -3.2228950     0.5407920     0.6622730
  C       -3.8232840    -0.5849970     0.1005040
  H        0.7834850    -1.9532010     0.3364590
  H        2.7242150     2.5332940    -0.3759070
  H        4.2098530     0.5856070    -0.1209690
  H        3.8288200    -2.0891060     1.3929170
  H        2.9990460    -2.9607700     0.0984840
  H        4.4097140    -1.9577250    -0.2701360
  H       -0.9841790    -1.9393540    -1.1680850
  H        0.5549050     3.4095210    -0.2083710
  H       -0.8007830     2.4663430     0.1128890
  H       -3.4393090    -2.3812410    -1.0417430
  H       -3.8215100     1.2923600     1.1747000
  H       -4.8979480    -0.7268890     0.1711280
units angstrom
no_reorient  #important for SAPT in psi4, default
symmetry c1  #important for SAPT in psi4, default
}

set PROPERTIES_ORIGIN ["COM"]
properties('MP2/aug-cc-pvtz', properties = ['dipole'])
--------------------------------------------------------------------------

    Molecular point group: c1
  Charge       = 0
  Multiplicity = 1
  Basis Set: AUG-CC-PVTZ
    Blend: AUG-CC-PVTZ
  Basis Set: (AUG-CC-PVTZ AUX)
    Blend: AUG-CC-PVTZ-JKFIT

    Orbital Energies [Eh]
    ---------------------

    Doubly Occupied:

       1A    -15.567408     2A    -15.547485     3A    -11.288549
       4A    -11.280124     5A    -11.275100     6A    -11.262305
       7A    -11.241507     8A    -11.240720     9A    -11.233352
      10A    -11.232471    11A    -11.232142    12A    -11.228685
      13A    -11.222476    14A    -11.218292    15A     -1.260874
      16A     -1.210372    17A     -1.129620    18A     -1.087731
      19A     -1.061987    20A     -1.012326    21A     -0.991927
      22A     -0.917975    23A     -0.870174    24A     -0.862084
      25A     -0.814197    26A     -0.783366    27A     -0.708311
      28A     -0.689106    29A     -0.681155    30A     -0.660163
      31A     -0.649417    32A     -0.610766    33A     -0.600675
      34A     -0.588358    35A     -0.580648    36A     -0.577177
      37A     -0.571272    38A     -0.549251    39A     -0.538452
      40A     -0.529414    41A     -0.513237    42A     -0.487586
      43A     -0.482711    44A     -0.436040    45A     -0.418795
      46A     -0.387470    47A     -0.366512    48A     -0.316329
      49A     -0.278944

  @DF-RHF Final Energy:  -570.50017796193163

   => Energetics <=

    Nuclear Repulsion Energy =            811.1051132662308873
    One-Electron Energy =               -2382.6205140042088715
    Two-Electron Energy =                1001.0152227760462438
    Total Energy =                       -570.5001779619316267
  Basis Set: (AUG-CC-PVTZ AUX)
    Blend: AUG-CC-PVTZ-RI
    Molecular point group: c1

    Geometry (in Angstrom), charge = 0, multiplicity = 1:

       Center              X                  Y                   Z               Mass
    ------------   -----------------  -----------------  -----------------  -----------------
         N            0.108208220233     2.513675691192    -0.391265781875    14.003074004430
         N           -1.872594779767     0.760660691192     0.622963218125    14.003074004430
         C            0.378041220233     0.104884691192    -0.006509781875    12.000000000000
         C            0.924150220233     1.401332691192    -0.165794781875    12.000000000000
         C            2.634390220233    -0.858152308808     0.118140218125    12.000000000000
         C            1.245420220233    -0.986772308808     0.159101218125    12.000000000000
         C           -1.079666779767    -0.140918308808    -0.004215781875    12.000000000000
         C            2.321336220233     1.526000691192    -0.228136781875    12.000000000000
         C            3.158765220233     0.425878691192    -0.076207781875    12.000000000000
         C            3.566542820233    -2.081975608808     0.354613718125    12.000000000000
         C           -1.612992779767    -1.281390308808    -0.627884781875    12.000000000000
         C           -2.982844779767    -1.520278308808    -0.564910781875    12.000000000000
         C           -3.194817779767     0.523244691192     0.662320218125    12.000000000000
         C           -3.795206779767    -0.602544308808     0.100551218125    12.000000000000
         H            0.811562220233    -1.970748308808     0.336506218125     1.007825032230
         H            2.752292220233     2.515746691192    -0.375859781875     1.007825032230
         H            4.237930220233     0.568059691192    -0.120921781875     1.007825032230
         H            3.856897220233    -2.106653308808     1.392964218125     1.007825032230
         H            3.027123220233    -2.978317308808     0.098531218125     1.007825032230
         H            4.437791220233    -1.975272308808    -0.270088781875     1.007825032230
         H           -0.956101779767    -1.956901308808    -1.168037781875     1.007825032230
         H            0.582982220233     3.391973691192    -0.208323781875     1.007825032230
         H           -0.772705779767     2.448795691192     0.112936218125     1.007825032230
         H           -3.411231779767    -2.398788308808    -1.041695781875     1.007825032230
         H           -3.793432779767     1.274812691192     1.174747218125     1.007825032230
         H           -4.869870779767    -0.744436308808     0.171175218125     1.007825032230

  Basis Set: AUG-CC-PVTZ
    Blend: AUG-CC-PVTZ
  Basis Set: (AUG-CC-PVTZ AUX)
    Blend: AUG-CC-PVTZ-JKFIT
	 Reference Energy          =    -570.5001779619316267 [Eh]
	 Singles Energy            =      -0.0000000000000000 [Eh]
	 Same-Spin Energy          =      -0.6405281000784318 [Eh]
	 Opposite-Spin Energy      =      -1.9775125095678061 [Eh]
	 Correlation Energy        =      -2.6180406096462381 [Eh]
	 Total Energy              =    -573.1182185715778132 [Eh]

	 ================> DF-SCS-MP2 Energies <==================
	-----------------------------------------------------------
	 SCS Same-Spin Scale       =       0.3333333333333333 [-]
	 SCS Opposite-Spin Scale   =       1.2000000000000000 [-]
	 SCS Same-Spin Energy      =      -0.2135093666928106 [Eh]
	 SCS Opposite-Spin Energy  =      -2.3730150114813671 [Eh]
	 SCS Correlation Energy    =      -2.5865243781741776 [Eh]
	 SCS Total Energy          =    -573.0867023401058304 [Eh]
	-----------------------------------------------------------

  Dipole Moment: [D]
     X:    -1.0916      Y:    -0.9677      Z:     0.0786     Total:     1.4609

*** Psi4 exiting successfully. Buy a developer a beer!
