                               Psi4 1.4a3.dev225

  ==> Input File <==

--------------------------------------------------------------------------
#psi4
#
memory 32 gb

molecule  {
0 1
  N        0.0801310     2.5312230    -0.3913130
  N       -1.9006720     0.7782080     0.6229160
  C        0.3499640     0.1224320    -0.0065570
  C        0.8960730     1.4188800    -0.1658420
  C        2.6043849    -0.8472659     0.0927315
  C        1.2173430    -0.9692250     0.1590540
  C       -1.1077440    -0.1233710    -0.0042630
  C        2.2932590     1.5435480    -0.2281840
  C        3.1306880     0.4434260    -0.0762550
  C        3.5085210    -2.0251140     0.3469700
  C       -1.6410700    -1.2638430    -0.6279320
  C       -3.0109220    -1.5027310    -0.5649580
  C       -3.2228950     0.5407920     0.6622730
  C       -3.8232840    -0.5849970     0.1005040
  H        0.7834850    -1.9532010     0.3364590
  H        2.7242150     2.5332940    -0.3759070
  H        4.2098530     0.5856070    -0.1209690
  H        3.8288200    -2.0891060     1.3929170
  H        2.9990460    -2.9607700     0.0984840
  H        4.4097140    -1.9577250    -0.2701360
  H       -0.9841790    -1.9393540    -1.1680850
  H        0.5549050     3.4095210    -0.2083710
  H       -0.8007830     2.4663430     0.1128890
  H       -3.4393090    -2.3812410    -1.0417430
  H       -3.8215100     1.2923600     1.1747000
  H       -4.8979480    -0.7268890     0.1711280
units angstrom
no_reorient  #important for SAPT in psi4, default
symmetry c1  #important for SAPT in psi4, default
}

set PROPERTIES_ORIGIN ["COM"]
properties('MP2/aug-cc-pvtz', properties = ['dipole'])
--------------------------------------------------------------------------

    Molecular point group: c1
  Charge       = 0
  Multiplicity = 1
  Basis Set: AUG-CC-PVTZ
    Blend: AUG-CC-PVTZ
  Basis Set: (AUG-CC-PVTZ AUX)
    Blend: AUG-CC-PVTZ-JKFIT

    Orbital Energies [Eh]
    ---------------------

    Doubly Occupied:

       1A    -15.567532     2A    -15.547932     3A    -11.288620
       4A    -11.280222     5A    -11.275665     6A    -11.262394
       7A    -11.241637     8A    -11.240832     9A    -11.233340
      10A    -11.233101    11A    -11.232153    12A    -11.226669
      13A    -11.222863    14A    -11.219432    15A     -1.261003
      16A     -1.210789    17A     -1.131551    18A     -1.087839
      19A     -1.062873    20A     -1.016268    21A     -0.992306
      22A     -0.915482    23A     -0.870469    24A     -0.862105
      25A     -0.814581    26A     -0.783481    27A     -0.708971
      28A     -0.689758    29A     -0.681453    30A     -0.660459
      31A     -0.650181    32A     -0.613570    33A     -0.600625
      34A     -0.588941    35A     -0.582237    36A     -0.573825
      37A     -0.569585    38A     -0.548389    39A     -0.532127
      40A     -0.529311    41A     -0.512571    42A     -0.493520
      43A     -0.485228    44A     -0.434838    45A     -0.418886
      46A     -0.387557    47A     -0.366416    48A     -0.316793
      49A     -0.278541

  @DF-RHF Final Energy:  -570.50124284192646

   => Energetics <=

    Nuclear Repulsion Energy =            811.9898684085177365
    One-Electron Energy =               -2384.3723878063933626
    Two-Electron Energy =                1001.8812765559490572
    Total Energy =                       -570.5012428419264552
  Basis Set: (AUG-CC-PVTZ AUX)
    Blend: AUG-CC-PVTZ-RI
    Molecular point group: c1

    Geometry (in Angstrom), charge = 0, multiplicity = 1:

       Center              X                  Y                   Z               Mass
    ------------   -----------------  -----------------  -----------------  -----------------
         N            0.110285744945     2.511547278932    -0.389117515193    14.003074004430
         N           -1.870517255055     0.758532278932     0.625111484807    14.003074004430
         C            0.380118744945     0.102756278932    -0.004361515193    12.000000000000
         C            0.926227744945     1.399204278932    -0.163646515193    12.000000000000
         C            2.634539644945    -0.866941621068     0.094926984807    12.000000000000
         C            1.247497744945    -0.988900721068     0.161249484807    12.000000000000
         C           -1.077589255055    -0.143046721068    -0.002067515193    12.000000000000
         C            2.323413744945     1.523872278932    -0.225988515193    12.000000000000
         C            3.160842744945     0.423750278932    -0.074059515193    12.000000000000
         C            3.538675744945    -2.044789721068     0.349165484807    12.000000000000
         C           -1.610915255055    -1.283518721068    -0.625736515193    12.000000000000
         C           -2.980767255055    -1.522406721068    -0.562762515193    12.000000000000
         C           -3.192740255055     0.521116278932     0.664468484807    12.000000000000
         C           -3.793129255055    -0.604672721068     0.102699484807    12.000000000000
         H            0.813639744945    -1.972876721068     0.338654484807     1.007825032230
         H            2.754369744945     2.513618278932    -0.373711515193     1.007825032230
         H            4.240007744945     0.565931278932    -0.118773515193     1.007825032230
         H            3.858974744945    -2.108781721068     1.395112484807     1.007825032230
         H            3.029200744945    -2.980445721068     0.100679484807     1.007825032230
         H            4.439868744945    -1.977400721068    -0.267940515193     1.007825032230
         H           -0.954024255055    -1.959029721068    -1.165889515193     1.007825032230
         H            0.585059744945     3.389845278932    -0.206175515193     1.007825032230
         H           -0.770628255055     2.446667278932     0.115084484807     1.007825032230
         H           -3.409154255055    -2.400916721068    -1.039547515193     1.007825032230
         H           -3.791355255055     1.272684278932     1.176895484807     1.007825032230
         H           -4.867793255055    -0.746564721068     0.173323484807     1.007825032230

  Basis Set: AUG-CC-PVTZ
    Blend: AUG-CC-PVTZ
  Basis Set: (AUG-CC-PVTZ AUX)
    Blend: AUG-CC-PVTZ-JKFIT
	 Reference Energy          =    -570.5012428419264552 [Eh]
	 Singles Energy            =      -0.0000000000000000 [Eh]
	 Same-Spin Energy          =      -0.6408549497209967 [Eh]
	 Opposite-Spin Energy      =      -1.9777562837628899 [Eh]
	 Correlation Energy        =      -2.6186112334838865 [Eh]
	 Total Energy              =    -573.1198540754103306 [Eh]

	 ================> DF-SCS-MP2 Energies <==================
	-----------------------------------------------------------
	 SCS Same-Spin Scale       =       0.3333333333333333 [-]
	 SCS Opposite-Spin Scale   =       1.2000000000000000 [-]
	 SCS Same-Spin Energy      =      -0.2136183165736655 [Eh]
	 SCS Opposite-Spin Energy  =      -2.3733075405154680 [Eh]
	 SCS Correlation Energy    =      -2.5869258570891334 [Eh]
	 SCS Total Energy          =    -573.0881686990155686 [Eh]
	-----------------------------------------------------------

  Dipole Moment: [D]
     X:    -1.1079      Y:    -0.9495      Z:     0.0883     Total:     1.4618

*** Psi4 exiting successfully. Buy a developer a beer!
