                               Psi4 1.4a3.dev225

  ==> Input File <==

--------------------------------------------------------------------------
#psi4
#
memory 32 gb

molecule  {
0 1
  N        0.0801310     2.5312230    -0.3913130
  N       -1.8885895     0.6574496     0.5517794
  C        0.3499640     0.1224320    -0.0065570
  C        0.8960730     1.4188800    -0.1658420
  C        2.6063130    -0.8406050     0.1180930
  C        1.2173430    -0.9692250     0.1590540
  C       -1.1077440    -0.1233710    -0.0042630
  C        2.2932590     1.5435480    -0.2281840
  C        3.1306880     0.4434260    -0.0762550
  C        3.5085210    -2.0251140     0.3469700
  C       -1.6410700    -1.2638430    -0.6279320
  C       -3.0109220    -1.5027310    -0.5649580
  C       -3.2228950     0.5407920     0.6622730
  C       -3.8232840    -0.5849970     0.1005040
  H        0.7834850    -1.9532010     0.3364590
  H        2.7242150     2.5332940    -0.3759070
  H        4.2098530     0.5856070    -0.1209690
  H        3.8288200    -2.0891060     1.3929170
  H        2.9990460    -2.9607700     0.0984840
  H        4.4097140    -1.9577250    -0.2701360
  H       -0.9841790    -1.9393540    -1.1680850
  H        0.5549050     3.4095210    -0.2083710
  H       -0.8007830     2.4663430     0.1128890
  H       -3.4393090    -2.3812410    -1.0417430
  H       -3.8215100     1.2923600     1.1747000
  H       -4.8979480    -0.7268890     0.1711280
units angstrom
no_reorient  #important for SAPT in psi4, default
symmetry c1  #important for SAPT in psi4, default
}

set PROPERTIES_ORIGIN ["COM"]
properties('MP2/aug-cc-pvtz', properties = ['dipole'])
--------------------------------------------------------------------------

    Molecular point group: c1
  Charge       = 0
  Multiplicity = 1
  Basis Set: AUG-CC-PVTZ
    Blend: AUG-CC-PVTZ
  Basis Set: (AUG-CC-PVTZ AUX)
    Blend: AUG-CC-PVTZ-JKFIT

    Orbital Energies [Eh]
    ---------------------

    Doubly Occupied:

       1A    -15.549314     2A    -15.549144     3A    -11.280062
       4A    -11.274395     5A    -11.273134     6A    -11.256360
       7A    -11.241817     8A    -11.237548     9A    -11.232011
      10A    -11.231531    11A    -11.229929    12A    -11.226090
      13A    -11.222287    14A    -11.218974    15A     -1.290605
      16A     -1.212043    17A     -1.130898    18A     -1.088219
      19A     -1.062170    20A     -1.015772    21A     -0.996527
      22A     -0.915005    23A     -0.875511    24A     -0.860967
      25A     -0.818433    26A     -0.784238    27A     -0.714590
      28A     -0.690602    29A     -0.682092    30A     -0.663207
      31A     -0.652156    32A     -0.617284    33A     -0.600417
      34A     -0.587676    35A     -0.582010    36A     -0.575722
      37A     -0.570273    38A     -0.560611    39A     -0.533435
      40A     -0.530272    41A     -0.515432    42A     -0.496233
      43A     -0.486544    44A     -0.434168    45A     -0.394964
      46A     -0.391955    47A     -0.359870    48A     -0.318161
      49A     -0.279423

  @DF-RHF Final Energy:  -570.49049233885535

   => Energetics <=

    Nuclear Repulsion Energy =            815.1462609149837135
    One-Electron Energy =               -2390.6533423865012082
    Two-Electron Energy =                1005.0165891326621477
    Total Energy =                       -570.4904923388553470
  Basis Set: (AUG-CC-PVTZ AUX)
    Blend: AUG-CC-PVTZ-RI
    Molecular point group: c1

    Geometry (in Angstrom), charge = 0, multiplicity = 1:

       Center              X                  Y                   Z               Mass
    ------------   -----------------  -----------------  -----------------  -----------------
         N            0.109241044831     2.520298270721    -0.385359813442    14.003074004430
         N           -1.859479455169     0.646524870721     0.557732586558    14.003074004430
         C            0.379074044831     0.111507270721    -0.000603813442    12.000000000000
         C            0.925183044831     1.407955270721    -0.159888813442    12.000000000000
         C            2.635423044831    -0.851529729279     0.124046186558    12.000000000000
         C            1.246453044831    -0.980149729279     0.165007186558    12.000000000000
         C           -1.078633955169    -0.134295729279     0.001690186558    12.000000000000
         C            2.322369044831     1.532623270721    -0.222230813442    12.000000000000
         C            3.159798044831     0.432501270721    -0.070301813442    12.000000000000
         C            3.537631044831    -2.036038729279     0.352923186558    12.000000000000
         C           -1.611959955169    -1.274767729279    -0.621978813442    12.000000000000
         C           -2.981811955169    -1.513655729279    -0.559004813442    12.000000000000
         C           -3.193784955169     0.529867270721     0.668226186558    12.000000000000
         C           -3.794173955169    -0.595921729279     0.106457186558    12.000000000000
         H            0.812595044831    -1.964125729279     0.342412186558     1.007825032230
         H            2.753325044831     2.522369270721    -0.369953813442     1.007825032230
         H            4.238963044831     0.574682270721    -0.115015813442     1.007825032230
         H            3.857930044831    -2.100030729279     1.398870186558     1.007825032230
         H            3.028156044831    -2.971694729279     0.104437186558     1.007825032230
         H            4.438824044831    -1.968649729279    -0.264182813442     1.007825032230
         H           -0.955068955169    -1.950278729279    -1.162131813442     1.007825032230
         H            0.584015044831     3.398596270721    -0.202417813442     1.007825032230
         H           -0.771672955169     2.455418270721     0.118842186558     1.007825032230
         H           -3.410198955169    -2.392165729279    -1.035789813442     1.007825032230
         H           -3.792399955169     1.281435270721     1.180653186558     1.007825032230
         H           -4.868837955169    -0.737813729279     0.177081186558     1.007825032230

  Basis Set: AUG-CC-PVTZ
    Blend: AUG-CC-PVTZ
  Basis Set: (AUG-CC-PVTZ AUX)
    Blend: AUG-CC-PVTZ-JKFIT
	 Reference Energy          =    -570.4904923388553470 [Eh]
	 Singles Energy            =      -0.0000000000000000 [Eh]
	 Same-Spin Energy          =      -0.6397096618790298 [Eh]
	 Opposite-Spin Energy      =      -1.9747110847052030 [Eh]
	 Correlation Energy        =      -2.6144207465842326 [Eh]
	 Total Energy              =    -573.1049130854395344 [Eh]

	 ================> DF-SCS-MP2 Energies <==================
	-----------------------------------------------------------
	 SCS Same-Spin Scale       =       0.3333333333333333 [-]
	 SCS Opposite-Spin Scale   =       1.2000000000000000 [-]
	 SCS Same-Spin Energy      =      -0.2132365539596766 [Eh]
	 SCS Opposite-Spin Energy  =      -2.3696533016462435 [Eh]
	 SCS Correlation Energy    =      -2.5828898556059201 [Eh]
	 SCS Total Energy          =    -573.0733821944612600 [Eh]
	-----------------------------------------------------------

  Dipole Moment: [D]
     X:    -1.1250      Y:    -0.6990      Z:     0.2293     Total:     1.3441

*** Psi4 exiting successfully. Buy a developer a beer!
