                               Psi4 1.4a3.dev225

  ==> Input File <==

--------------------------------------------------------------------------
#psi4
#
memory 32 gb

molecule  {
0 1
  N        0.0801310     2.5312230    -0.3913130
  N       -1.9006720     0.7782080     0.6229160
  C        0.3499640     0.1224320    -0.0065570
  C        1.0128178     1.2597262    -0.1335817
  C        2.6063130    -0.8406050     0.1180930
  C        1.2173430    -0.9692250     0.1590540
  C       -1.1077440    -0.1233710    -0.0042630
  C        2.2932590     1.5435480    -0.2281840
  C        3.1306880     0.4434260    -0.0762550
  C        3.5085210    -2.0251140     0.3469700
  C       -1.6410700    -1.2638430    -0.6279320
  C       -3.0109220    -1.5027310    -0.5649580
  C       -3.2228950     0.5407920     0.6622730
  C       -3.8232840    -0.5849970     0.1005040
  H        0.7834850    -1.9532010     0.3364590
  H        2.7242150     2.5332940    -0.3759070
  H        4.2098530     0.5856070    -0.1209690
  H        3.8288200    -2.0891060     1.3929170
  H        2.9990460    -2.9607700     0.0984840
  H        4.4097140    -1.9577250    -0.2701360
  H       -0.9841790    -1.9393540    -1.1680850
  H        0.5549050     3.4095210    -0.2083710
  H       -0.8007830     2.4663430     0.1128890
  H       -3.4393090    -2.3812410    -1.0417430
  H       -3.8215100     1.2923600     1.1747000
  H       -4.8979480    -0.7268890     0.1711280
units angstrom
no_reorient  #important for SAPT in psi4, default
symmetry c1  #important for SAPT in psi4, default
}

set PROPERTIES_ORIGIN ["COM"]
properties('MP2/aug-cc-pvtz', properties = ['dipole'])
--------------------------------------------------------------------------

    Molecular point group: c1
  Charge       = 0
  Multiplicity = 1
  Basis Set: AUG-CC-PVTZ
    Blend: AUG-CC-PVTZ
  Basis Set: (AUG-CC-PVTZ AUX)
    Blend: AUG-CC-PVTZ-JKFIT

    Orbital Energies [Eh]
    ---------------------

    Doubly Occupied:

       1A    -15.569433     2A    -15.525537     3A    -11.294474
       4A    -11.281115     5A    -11.264503     6A    -11.261644
       7A    -11.245339     8A    -11.244550     9A    -11.237118
      10A    -11.236290    11A    -11.234107    12A    -11.232778
      13A    -11.224177    14A    -11.222128    15A     -1.262017
      16A     -1.190056    17A     -1.112085    18A     -1.089477
      19A     -1.070283    20A     -1.028593    21A     -1.004867
      22A     -0.920543    23A     -0.876179    24A     -0.865670
      25A     -0.828598    26A     -0.784852    27A     -0.714575
      28A     -0.681340    29A     -0.672332    30A     -0.656689
      31A     -0.647195    32A     -0.620375    33A     -0.607670
      34A     -0.594767    35A     -0.578470    36A     -0.573732
      37A     -0.552459    38A     -0.545092    39A     -0.538391
      40A     -0.532941    41A     -0.514091    42A     -0.502985
      43A     -0.471664    44A     -0.422864    45A     -0.404628
      46A     -0.388614    47A     -0.370435    48A     -0.322302
      49A     -0.300628

  @DF-RHF Final Energy:  -570.45969250210851

   => Energetics <=

    Nuclear Repulsion Energy =            813.4437618726731216
    One-Electron Energy =               -2387.1656021412836708
    Two-Electron Energy =                1003.2621477665020393
    Total Energy =                       -570.4596925021085099
  Basis Set: (AUG-CC-PVTZ AUX)
    Blend: AUG-CC-PVTZ-RI
    Molecular point group: c1

    Geometry (in Angstrom), charge = 0, multiplicity = 1:

       Center              X                  Y                   Z               Mass
    ------------   -----------------  -----------------  -----------------  -----------------
         N            0.102550414007     2.521487063392    -0.392873416433    14.003074004430
         N           -1.878252585993     0.768472063392     0.621355583567    14.003074004430
         C            0.372383414007     0.112696063392    -0.008117416433    12.000000000000
         C            1.035237214007     1.249990263392    -0.135142116433    12.000000000000
         C            2.628732414007    -0.850340936608     0.116532583567    12.000000000000
         C            1.239762414007    -0.978960936608     0.157493583567    12.000000000000
         C           -1.085324585993    -0.133106936608    -0.005823416433    12.000000000000
         C            2.315678414007     1.533812063392    -0.229744416433    12.000000000000
         C            3.153107414007     0.433690063392    -0.077815416433    12.000000000000
         C            3.530940414007    -2.034849936608     0.345409583567    12.000000000000
         C           -1.618650585993    -1.273578936608    -0.629492416433    12.000000000000
         C           -2.988502585993    -1.512466936608    -0.566518416433    12.000000000000
         C           -3.200475585993     0.531056063392     0.660712583567    12.000000000000
         C           -3.800864585993    -0.594732936608     0.098943583567    12.000000000000
         H            0.805904414007    -1.962936936608     0.334898583567     1.007825032230
         H            2.746634414007     2.523558063392    -0.377467416433     1.007825032230
         H            4.232272414007     0.575871063392    -0.122529416433     1.007825032230
         H            3.851239414007    -2.098841936608     1.391356583567     1.007825032230
         H            3.021465414007    -2.970505936608     0.096923583567     1.007825032230
         H            4.432133414007    -1.967460936608    -0.271696416433     1.007825032230
         H           -0.961759585993    -1.949089936608    -1.169645416433     1.007825032230
         H            0.577324414007     3.399785063392    -0.209931416433     1.007825032230
         H           -0.778363585993     2.456607063392     0.111328583567     1.007825032230
         H           -3.416889585993    -2.390976936608    -1.043303416433     1.007825032230
         H           -3.799090585993     1.282624063392     1.173139583567     1.007825032230
         H           -4.875528585993    -0.736624936608     0.169567583567     1.007825032230

  Basis Set: AUG-CC-PVTZ
    Blend: AUG-CC-PVTZ
  Basis Set: (AUG-CC-PVTZ AUX)
    Blend: AUG-CC-PVTZ-JKFIT
	 Reference Energy          =    -570.4596925021085099 [Eh]
	 Singles Energy            =      -0.0000000000000000 [Eh]
	 Same-Spin Energy          =      -0.6408970774997295 [Eh]
	 Opposite-Spin Energy      =      -1.9795521592142231 [Eh]
	 Correlation Energy        =      -2.6204492367139527 [Eh]
	 Total Energy              =    -573.0801417388224763 [Eh]

	 ================> DF-SCS-MP2 Energies <==================
	-----------------------------------------------------------
	 SCS Same-Spin Scale       =       0.3333333333333333 [-]
	 SCS Opposite-Spin Scale   =       1.2000000000000000 [-]
	 SCS Same-Spin Energy      =      -0.2136323591665765 [Eh]
	 SCS Opposite-Spin Energy  =      -2.3754625910570675 [Eh]
	 SCS Correlation Energy    =      -2.5890949502236440 [Eh]
	 SCS Total Energy          =    -573.0487874523321352 [Eh]
	-----------------------------------------------------------

  Dipole Moment: [D]
     X:    -0.6210      Y:    -1.9190      Z:     0.2561     Total:     2.0332

*** Psi4 exiting successfully. Buy a developer a beer!
