                               Psi4 1.4a3.dev225

  ==> Input File <==

--------------------------------------------------------------------------
#psi4
#
memory 32 gb

molecule  {
0 1
  N        0.0801310     2.5312230    -0.3913130
  N       -1.9006720     0.7782080     0.6229160
  C        0.3728273     0.1130629    -0.0063435
  C        0.8960730     1.4188800    -0.1658420
  C        2.6063130    -0.8406050     0.1180930
  C        1.2173430    -0.9692250     0.1590540
  C       -1.1077440    -0.1233710    -0.0042630
  C        2.2932590     1.5435480    -0.2281840
  C        3.1306880     0.4434260    -0.0762550
  C        3.5085210    -2.0251140     0.3469700
  C       -1.6410700    -1.2638430    -0.6279320
  C       -3.0109220    -1.5027310    -0.5649580
  C       -3.2228950     0.5407920     0.6622730
  C       -3.8232840    -0.5849970     0.1005040
  H        0.7834850    -1.9532010     0.3364590
  H        2.7242150     2.5332940    -0.3759070
  H        4.2098530     0.5856070    -0.1209690
  H        3.8288200    -2.0891060     1.3929170
  H        2.9990460    -2.9607700     0.0984840
  H        4.4097140    -1.9577250    -0.2701360
  H       -0.9841790    -1.9393540    -1.1680850
  H        0.5549050     3.4095210    -0.2083710
  H       -0.8007830     2.4663430     0.1128890
  H       -3.4393090    -2.3812410    -1.0417430
  H       -3.8215100     1.2923600     1.1747000
  H       -4.8979480    -0.7268890     0.1711280
units angstrom
no_reorient  #important for SAPT in psi4, default
symmetry c1  #important for SAPT in psi4, default
}

set PROPERTIES_ORIGIN ["COM"]
properties('MP2/aug-cc-pvtz', properties = ['dipole'])
--------------------------------------------------------------------------

    Molecular point group: c1
  Charge       = 0
  Multiplicity = 1
  Basis Set: AUG-CC-PVTZ
    Blend: AUG-CC-PVTZ
  Basis Set: (AUG-CC-PVTZ AUX)
    Blend: AUG-CC-PVTZ-JKFIT

    Orbital Energies [Eh]
    ---------------------

    Doubly Occupied:

       1A    -15.567988     2A    -15.548294     3A    -11.289758
       4A    -11.280437     5A    -11.274892     6A    -11.262450
       7A    -11.241792     8A    -11.240789     9A    -11.232926
      10A    -11.231527    11A    -11.230428    12A    -11.226178
      13A    -11.222047    14A    -11.219200    15A     -1.260558
      16A     -1.210779    17A     -1.133364    18A     -1.087857
      19A     -1.061383    20A     -1.016126    21A     -0.994307
      22A     -0.915652    23A     -0.868562    24A     -0.861850
      25A     -0.814375    26A     -0.784283    27A     -0.709133
      28A     -0.689576    29A     -0.681693    30A     -0.659623
      31A     -0.649730    32A     -0.613113    33A     -0.601279
      34A     -0.588352    35A     -0.584106    36A     -0.573212
      37A     -0.569709    38A     -0.547897    39A     -0.532571
      40A     -0.529307    41A     -0.513522    42A     -0.493848
      43A     -0.483343    44A     -0.435892    45A     -0.418246
      46A     -0.387431    47A     -0.366240    48A     -0.318365
      49A     -0.278440

  @DF-RHF Final Energy:  -570.50158044577813

   => Energetics <=

    Nuclear Repulsion Energy =            812.0059055704236926
    One-Electron Energy =               -2384.4101170368635394
    Two-Electron Energy =                1001.9026310206617154
    Total Energy =                       -570.5015804457781314
  Basis Set: (AUG-CC-PVTZ AUX)
    Blend: AUG-CC-PVTZ-RI
    Molecular point group: c1

    Geometry (in Angstrom), charge = 0, multiplicity = 1:

       Center              X                  Y                   Z               Mass
    ------------   -----------------  -----------------  -----------------  -----------------
         N            0.108669793170     2.511723804687    -0.390784543544    14.003074004430
         N           -1.872133206830     0.758708804687     0.623444456456    14.003074004430
         C            0.401366093170     0.093563704687    -0.005815043544    12.000000000000
         C            0.924611793170     1.399380804687    -0.165313543544    12.000000000000
         C            2.634851793170    -0.860104195313     0.118621456456    12.000000000000
         C            1.245881793170    -0.988724195313     0.159582456456    12.000000000000
         C           -1.079205206830    -0.142870195313    -0.003734543544    12.000000000000
         C            2.321797793170     1.524048804687    -0.227655543544    12.000000000000
         C            3.159226793170     0.423926804687    -0.075726543544    12.000000000000
         C            3.537059793170    -2.044613195313     0.347498456456    12.000000000000
         C           -1.612531206830    -1.283342195313    -0.627403543544    12.000000000000
         C           -2.982383206830    -1.522230195313    -0.564429543544    12.000000000000
         C           -3.194356206830     0.521292804687     0.662801456456    12.000000000000
         C           -3.794745206830    -0.604496195313     0.101032456456    12.000000000000
         H            0.812023793170    -1.972700195313     0.336987456456     1.007825032230
         H            2.752753793170     2.513794804687    -0.375378543544     1.007825032230
         H            4.238391793170     0.566107804687    -0.120440543544     1.007825032230
         H            3.857358793170    -2.108605195313     1.393445456456     1.007825032230
         H            3.027584793170    -2.980269195313     0.099012456456     1.007825032230
         H            4.438252793170    -1.977224195313    -0.269607543544     1.007825032230
         H           -0.955640206830    -1.958853195313    -1.167556543544     1.007825032230
         H            0.583443793170     3.390021804687    -0.207842543544     1.007825032230
         H           -0.772244206830     2.446843804687     0.113417456456     1.007825032230
         H           -3.410770206830    -2.400740195313    -1.041214543544     1.007825032230
         H           -3.792971206830     1.272860804687     1.175228456456     1.007825032230
         H           -4.869409206830    -0.746388195313     0.171656456456     1.007825032230

  Basis Set: AUG-CC-PVTZ
    Blend: AUG-CC-PVTZ
  Basis Set: (AUG-CC-PVTZ AUX)
    Blend: AUG-CC-PVTZ-JKFIT
	 Reference Energy          =    -570.5015804457781314 [Eh]
	 Singles Energy            =      -0.0000000000000000 [Eh]
	 Same-Spin Energy          =      -0.6406240723194307 [Eh]
	 Opposite-Spin Energy      =      -1.9773187824850209 [Eh]
	 Correlation Energy        =      -2.6179428548044514 [Eh]
	 Total Energy              =    -573.1195233005826140 [Eh]

	 ================> DF-SCS-MP2 Energies <==================
	-----------------------------------------------------------
	 SCS Same-Spin Scale       =       0.3333333333333333 [-]
	 SCS Opposite-Spin Scale   =       1.2000000000000000 [-]
	 SCS Same-Spin Energy      =      -0.2135413574398102 [Eh]
	 SCS Opposite-Spin Energy  =      -2.3727825389820252 [Eh]
	 SCS Correlation Energy    =      -2.5863238964218356 [Eh]
	 SCS Total Energy          =    -573.0879043421999768 [Eh]
	-----------------------------------------------------------

  Dipole Moment: [D]
     X:    -1.1256      Y:    -0.9644      Z:     0.0810     Total:     1.4845

*** Psi4 exiting successfully. Buy a developer a beer!
