                               Psi4 1.4a3.dev225

  ==> Input File <==

--------------------------------------------------------------------------
#psi4
#
memory 32 gb

molecule  {
0 1
  N        0.0801310     2.5312230    -0.3913130
  N       -1.9006720     0.7782080     0.6229160
  C        0.3499640     0.1224320    -0.0065570
  C        0.8960730     1.4188800    -0.1658420
  C        2.6063130    -0.8406050     0.1180930
  C        1.2173430    -0.9692250     0.1590540
  C       -1.1077440    -0.1233710    -0.0042630
  C        2.2932590     1.5435480    -0.2281840
  C        3.1306880     0.4434260    -0.0762550
  C        3.5085210    -2.0251140     0.3469700
  C       -1.6410700    -1.2638430    -0.6279320
  C       -3.0109220    -1.5027310    -0.5649580
  C       -3.2228950     0.5407920     0.6622730
  C       -3.8232840    -0.5849970     0.1005040
  H        0.7834850    -1.9532010     0.3364590
  H        2.7242150     2.5332940    -0.3759070
  H        4.2098530     0.5856070    -0.1209690
  H        3.8288200    -2.0891060     1.3929170
  H        2.9990460    -2.9607700     0.0984840
  H        4.4097140    -1.9577250    -0.2701360
  H       -0.9841790    -1.9393540    -1.1680850
  H        0.5549050     3.4095210    -0.2083710
  H       -0.8007830     2.4663430     0.1128890
  H       -3.4471875    -2.3973978    -1.0505116
  H       -3.8215100     1.2923600     1.1747000
  H       -4.8979480    -0.7268890     0.1711280
units angstrom
no_reorient  #important for SAPT in psi4, default
symmetry c1  #important for SAPT in psi4, default
}

set PROPERTIES_ORIGIN ["COM"]
properties('MP2/aug-cc-pvtz', properties = ['dipole'])
--------------------------------------------------------------------------

    Molecular point group: c1
  Charge       = 0
  Multiplicity = 1
  Basis Set: AUG-CC-PVTZ
    Blend: AUG-CC-PVTZ
  Basis Set: (AUG-CC-PVTZ AUX)
    Blend: AUG-CC-PVTZ-JKFIT

    Orbital Energies [Eh]
    ---------------------

    Doubly Occupied:

       1A    -15.567590     2A    -15.547755     3A    -11.288798
       4A    -11.280355     5A    -11.275427     6A    -11.264672
       7A    -11.241781     8A    -11.240994     9A    -11.233517
      10A    -11.232588    11A    -11.232335    12A    -11.226660
      13A    -11.222745    14A    -11.219523    15A     -1.261089
      16A     -1.210682    17A     -1.131710    18A     -1.087337
      19A     -1.063101    20A     -1.016158    21A     -0.992435
      22A     -0.915568    23A     -0.870508    24A     -0.861007
      25A     -0.814684    26A     -0.782792    27A     -0.707949
      28A     -0.689699    29A     -0.681320    30A     -0.660417
      31A     -0.650150    32A     -0.613274    33A     -0.600597
      34A     -0.588588    35A     -0.582032    36A     -0.572729
      37A     -0.568843    38A     -0.548261    39A     -0.532288
      40A     -0.529491    41A     -0.513031    42A     -0.492962
      43A     -0.485761    44A     -0.435093    45A     -0.418762
      46A     -0.387642    47A     -0.366687    48A     -0.316537
      49A     -0.278572

  @DF-RHF Final Energy:  -570.50108656275756

   => Energetics <=

    Nuclear Repulsion Energy =            811.9079180491620491
    One-Electron Energy =               -2384.2130161675240743
    Two-Electron Energy =                1001.8040115556043474
    Total Energy =                       -570.5010865627575640
  Basis Set: (AUG-CC-PVTZ AUX)
    Blend: AUG-CC-PVTZ-RI
    Molecular point group: c1

    Geometry (in Angstrom), charge = 0, multiplicity = 1:

       Center              X                  Y                   Z               Mass
    ------------   -----------------  -----------------  -----------------  -----------------
         N            0.110203197164     2.511201556196    -0.390722624958    14.003074004430
         N           -1.870599802836     0.758186556196     0.623506375042    14.003074004430
         C            0.380036197164     0.102410556196    -0.005966624958    12.000000000000
         C            0.926145197164     1.398858556196    -0.165251624958    12.000000000000
         C            2.636385197164    -0.860626443804     0.118683375042    12.000000000000
         C            1.247415197164    -0.989246443804     0.159644375042    12.000000000000
         C           -1.077671802836    -0.143392443804    -0.003672624958    12.000000000000
         C            2.323331197164     1.523526556196    -0.227593624958    12.000000000000
         C            3.160760197164     0.423404556196    -0.075664624958    12.000000000000
         C            3.538593197164    -2.045135443804     0.347560375042    12.000000000000
         C           -1.610997802836    -1.283864443804    -0.627341624958    12.000000000000
         C           -2.980849802836    -1.522752443804    -0.564367624958    12.000000000000
         C           -3.192822802836     0.520770556196     0.662863375042    12.000000000000
         C           -3.793211802836    -0.605018443804     0.101094375042    12.000000000000
         H            0.813557197164    -1.973222443804     0.337049375042     1.007825032230
         H            2.754287197164     2.513272556196    -0.375316624958     1.007825032230
         H            4.239925197164     0.565585556196    -0.120378624958     1.007825032230
         H            3.858892197164    -2.109127443804     1.393507375042     1.007825032230
         H            3.029118197164    -2.980791443804     0.099074375042     1.007825032230
         H            4.439786197164    -1.977746443804    -0.269545624958     1.007825032230
         H           -0.954106802836    -1.959375443804    -1.167494624958     1.007825032230
         H            0.584977197164     3.389499556196    -0.207780624958     1.007825032230
         H           -0.770710802836     2.446321556196     0.113479375042     1.007825032230
         H           -3.417115302836    -2.417419243804    -1.049921224958     1.007825032230
         H           -3.791437802836     1.272338556196     1.175290375042     1.007825032230
         H           -4.867875802836    -0.746910443804     0.171718375042     1.007825032230

  Basis Set: AUG-CC-PVTZ
    Blend: AUG-CC-PVTZ
  Basis Set: (AUG-CC-PVTZ AUX)
    Blend: AUG-CC-PVTZ-JKFIT
	 Reference Energy          =    -570.5010865627575640 [Eh]
	 Singles Energy            =      -0.0000000000000000 [Eh]
	 Same-Spin Energy          =      -0.6408725564822424 [Eh]
	 Opposite-Spin Energy      =      -1.9778400594850523 [Eh]
	 Correlation Energy        =      -2.6187126159672944 [Eh]
	 Total Energy              =    -573.1197991787248611 [Eh]

	 ================> DF-SCS-MP2 Energies <==================
	-----------------------------------------------------------
	 SCS Same-Spin Scale       =       0.3333333333333333 [-]
	 SCS Opposite-Spin Scale   =       1.2000000000000000 [-]
	 SCS Same-Spin Energy      =      -0.2136241854940808 [Eh]
	 SCS Opposite-Spin Energy  =      -2.3734080713820624 [Eh]
	 SCS Correlation Energy    =      -2.5870322568761432 [Eh]
	 SCS Total Energy          =    -573.0881188196336780 [Eh]
	-----------------------------------------------------------

  Dipole Moment: [D]
     X:    -1.0921      Y:    -0.9582      Z:     0.0801     Total:     1.4551

*** Psi4 exiting successfully. Buy a developer a beer!
