                               Psi4 1.4a3.dev225

  ==> Input File <==

--------------------------------------------------------------------------
#psi4
#
memory 32 gb

molecule  {
0 1
  N        0.0801310     2.5312230    -0.3913130
  N       -1.9006720     0.7782080     0.6229160
  C        0.3499640     0.1224320    -0.0065570
  C        0.8960730     1.4188800    -0.1658420
  C        2.6063130    -0.8406050     0.1180930
  C        1.2173430    -0.9692250     0.1590540
  C       -1.1077440    -0.1233710    -0.0042630
  C        2.2932590     1.5435480    -0.2281840
  C        3.1908952     0.3643325    -0.0653320
  C        3.5085210    -2.0251140     0.3469700
  C       -1.6410700    -1.2638430    -0.6279320
  C       -3.0109220    -1.5027310    -0.5649580
  C       -3.2228950     0.5407920     0.6622730
  C       -3.8232840    -0.5849970     0.1005040
  H        0.7834850    -1.9532010     0.3364590
  H        2.7242150     2.5332940    -0.3759070
  H        4.2098530     0.5856070    -0.1209690
  H        3.8288200    -2.0891060     1.3929170
  H        2.9990460    -2.9607700     0.0984840
  H        4.4097140    -1.9577250    -0.2701360
  H       -0.9841790    -1.9393540    -1.1680850
  H        0.5549050     3.4095210    -0.2083710
  H       -0.8007830     2.4663430     0.1128890
  H       -3.4393090    -2.3812410    -1.0417430
  H       -3.8215100     1.2923600     1.1747000
  H       -4.8979480    -0.7268890     0.1711280
units angstrom
no_reorient  #important for SAPT in psi4, default
symmetry c1  #important for SAPT in psi4, default
}

set PROPERTIES_ORIGIN ["COM"]
properties('MP2/aug-cc-pvtz', properties = ['dipole'])
--------------------------------------------------------------------------

    Molecular point group: c1
  Charge       = 0
  Multiplicity = 1
  Basis Set: AUG-CC-PVTZ
    Blend: AUG-CC-PVTZ
  Basis Set: (AUG-CC-PVTZ AUX)
    Blend: AUG-CC-PVTZ-JKFIT

    Orbital Energies [Eh]
    ---------------------

    Doubly Occupied:

       1A    -15.569076     2A    -15.545532     3A    -11.290046
       4A    -11.281323     5A    -11.273364     6A    -11.263491
       7A    -11.243077     8A    -11.242360     9A    -11.237905
      10A    -11.235324    11A    -11.231813    12A    -11.227912
      13A    -11.223756    14A    -11.217289    15A     -1.262272
      16A     -1.208498    17A     -1.132306    18A     -1.089106
      19A     -1.065166    20A     -1.010171    21A     -0.988240
      22A     -0.915905    23A     -0.875216    24A     -0.863002
      25A     -0.817560    26A     -0.781290    27A     -0.709828
      28A     -0.687333    29A     -0.685338    30A     -0.661334
      31A     -0.651868    32A     -0.613608    33A     -0.603198
      34A     -0.590019    35A     -0.581568    36A     -0.573850
      37A     -0.570638    38A     -0.548877    39A     -0.532587
      40A     -0.527256    41A     -0.510778    42A     -0.497793
      43A     -0.478512    44A     -0.434656    45A     -0.420095
      46A     -0.388082    47A     -0.365144    48A     -0.308122
      49A     -0.285227

  @DF-RHF Final Energy:  -570.48933519397576

   => Energetics <=

    Nuclear Repulsion Energy =            811.2329055534466988
    One-Electron Energy =               -2382.8110632976818124
    Two-Electron Energy =                1001.0888225502593514
    Total Energy =                       -570.4893351939757622
  Basis Set: (AUG-CC-PVTZ AUX)
    Blend: AUG-CC-PVTZ-RI
    Molecular point group: c1

    Geometry (in Angstrom), charge = 0, multiplicity = 1:

       Center              X                  Y                   Z               Mass
    ------------   -----------------  -----------------  -----------------  -----------------
         N            0.106235644978     2.516268576985    -0.391482609629    14.003074004430
         N           -1.874567355022     0.763253576985     0.622746390371    14.003074004430
         C            0.376068644978     0.107477576985    -0.006726609629    12.000000000000
         C            0.922177644978     1.403925576985    -0.166011609629    12.000000000000
         C            2.632417644978    -0.855559423015     0.117923390371    12.000000000000
         C            1.243447644978    -0.984179423015     0.158884390371    12.000000000000
         C           -1.081639355022    -0.138325423015    -0.004432609629    12.000000000000
         C            2.319363644978     1.528593576985    -0.228353609629    12.000000000000
         C            3.216999844978     0.349378076985    -0.065501609629    12.000000000000
         C            3.534625644978    -2.040068423015     0.346800390371    12.000000000000
         C           -1.614965355022    -1.278797423015    -0.628101609629    12.000000000000
         C           -2.984817355022    -1.517685423015    -0.565127609629    12.000000000000
         C           -3.196790355022     0.525837576985     0.662103390371    12.000000000000
         C           -3.797179355022    -0.599951423015     0.100334390371    12.000000000000
         H            0.809589644978    -1.968155423015     0.336289390371     1.007825032230
         H            2.750319644978     2.518339576985    -0.376076609629     1.007825032230
         H            4.235957644978     0.570652576985    -0.121138609629     1.007825032230
         H            3.854924644978    -2.104060423015     1.392747390371     1.007825032230
         H            3.025150644978    -2.975724423015     0.098314390371     1.007825032230
         H            4.435818644978    -1.972679423015    -0.270305609629     1.007825032230
         H           -0.958074355022    -1.954308423015    -1.168254609629     1.007825032230
         H            0.581009644978     3.394566576985    -0.208540609629     1.007825032230
         H           -0.774678355022     2.451388576985     0.112719390371     1.007825032230
         H           -3.413204355022    -2.396195423015    -1.041912609629     1.007825032230
         H           -3.795405355022     1.277405576985     1.174530390371     1.007825032230
         H           -4.871843355022    -0.741843423015     0.170958390371     1.007825032230

  Basis Set: AUG-CC-PVTZ
    Blend: AUG-CC-PVTZ
  Basis Set: (AUG-CC-PVTZ AUX)
    Blend: AUG-CC-PVTZ-JKFIT
	 Reference Energy          =    -570.4893351939757622 [Eh]
	 Singles Energy            =      -0.0000000000000000 [Eh]
	 Same-Spin Energy          =      -0.6408962107022168 [Eh]
	 Opposite-Spin Energy      =      -1.9787643789527767 [Eh]
	 Correlation Energy        =      -2.6196605896549934 [Eh]
	 Total Energy              =    -573.1089957836308031 [Eh]

	 ================> DF-SCS-MP2 Energies <==================
	-----------------------------------------------------------
	 SCS Same-Spin Scale       =       0.3333333333333333 [-]
	 SCS Opposite-Spin Scale   =       1.2000000000000000 [-]
	 SCS Same-Spin Energy      =      -0.2136320702340723 [Eh]
	 SCS Opposite-Spin Energy  =      -2.3745172547433318 [Eh]
	 SCS Correlation Energy    =      -2.5881493249774041 [Eh]
	 SCS Total Energy          =    -573.0774845189531561 [Eh]
	-----------------------------------------------------------

  Dipole Moment: [D]
     X:    -1.1892      Y:    -1.0039      Z:     0.0815     Total:     1.5584

*** Psi4 exiting successfully. Buy a developer a beer!
