                               Psi4 1.4a3.dev225

  ==> Input File <==

--------------------------------------------------------------------------
#psi4
#
memory 32 gb

molecule  {
0 1
  N        0.0801310     2.5312230    -0.3913130
  N       -1.9006720     0.7782080     0.6229160
  C        0.3499640     0.1224320    -0.0065570
  C        0.8960730     1.4188800    -0.1658420
  C        2.6063130    -0.8406050     0.1180930
  C        1.2173430    -0.9692250     0.1590540
  C       -1.1077440    -0.1233710    -0.0042630
  C        2.2932590     1.5435480    -0.2281840
  C        3.1306880     0.4434260    -0.0762550
  C        3.5085210    -2.0251140     0.3469700
  C       -1.6410700    -1.2638430    -0.6279320
  C       -3.0504186    -1.5295920    -0.5743492
  C       -3.2228950     0.5407920     0.6622730
  C       -3.8232840    -0.5849970     0.1005040
  H        0.7834850    -1.9532010     0.3364590
  H        2.7242150     2.5332940    -0.3759070
  H        4.2098530     0.5856070    -0.1209690
  H        3.8288200    -2.0891060     1.3929170
  H        2.9990460    -2.9607700     0.0984840
  H        4.4097140    -1.9577250    -0.2701360
  H       -0.9841790    -1.9393540    -1.1680850
  H        0.5549050     3.4095210    -0.2083710
  H       -0.8007830     2.4663430     0.1128890
  H       -3.4393090    -2.3812410    -1.0417430
  H       -3.8215100     1.2923600     1.1747000
  H       -4.8979480    -0.7268890     0.1711280
units angstrom
no_reorient  #important for SAPT in psi4, default
symmetry c1  #important for SAPT in psi4, default
}

set PROPERTIES_ORIGIN ["COM"]
properties('MP2/aug-cc-pvtz', properties = ['dipole'])
--------------------------------------------------------------------------

    Molecular point group: c1
  Charge       = 0
  Multiplicity = 1
  Basis Set: AUG-CC-PVTZ
    Blend: AUG-CC-PVTZ
  Basis Set: (AUG-CC-PVTZ AUX)
    Blend: AUG-CC-PVTZ-JKFIT

    Orbital Energies [Eh]
    ---------------------

    Doubly Occupied:

       1A    -15.568607     2A    -15.547433     3A    -11.287626
       4A    -11.281543     5A    -11.274818     6A    -11.264696
       7A    -11.245259     8A    -11.243214     9A    -11.232964
      10A    -11.231982    11A    -11.231782    12A    -11.226140
      13A    -11.222283    14A    -11.219151    15A     -1.260131
      16A     -1.210223    17A     -1.131177    18A     -1.084177
      19A     -1.062063    20A     -1.015654    21A     -0.990391
      22A     -0.915043    23A     -0.868578    24A     -0.866552
      25A     -0.813795    26A     -0.784826    27A     -0.710160
      28A     -0.689138    29A     -0.681090    30A     -0.660214
      31A     -0.648722    32A     -0.615687    33A     -0.599909
      34A     -0.590279    35A     -0.581635    36A     -0.579916
      37A     -0.570794    38A     -0.546983    39A     -0.530837
      40A     -0.524544    41A     -0.512206    42A     -0.491973
      43A     -0.485102    44A     -0.434891    45A     -0.420305
      46A     -0.385443    47A     -0.364819    48A     -0.315988
      49A     -0.278061

  @DF-RHF Final Energy:  -570.49777075887164

   => Energetics <=

    Nuclear Repulsion Energy =            811.0502169668942543
    One-Electron Energy =               -2382.4983741075657235
    Two-Electron Energy =                1000.9503863817997171
    Total Energy =                       -570.4977707588716385
  Basis Set: (AUG-CC-PVTZ AUX)
    Blend: AUG-CC-PVTZ-RI
    Molecular point group: c1

    Geometry (in Angstrom), charge = 0, multiplicity = 1:

       Center              X                  Y                   Z               Mass
    ------------   -----------------  -----------------  -----------------  -----------------
         N            0.112734533003     2.512863960824    -0.390158490477    14.003074004430
         N           -1.868068466997     0.759848960824     0.624070509523    14.003074004430
         C            0.382567533003     0.104072960824    -0.005402490477    12.000000000000
         C            0.928676533003     1.400520960824    -0.164687490477    12.000000000000
         C            2.638916533003    -0.858964039176     0.119247509523    12.000000000000
         C            1.249946533003    -0.987584039176     0.160208509523    12.000000000000
         C           -1.075140466997    -0.141730039176    -0.003108490477    12.000000000000
         C            2.325862533003     1.525188960824    -0.227029490477    12.000000000000
         C            3.163291533003     0.425066960824    -0.075100490477    12.000000000000
         C            3.541124533003    -2.043473039176     0.348124509523    12.000000000000
         C           -1.608466466997    -1.282202039176    -0.626777490477    12.000000000000
         C           -3.017815066997    -1.547951039176    -0.573194690477    12.000000000000
         C           -3.190291466997     0.522432960824     0.663427509523    12.000000000000
         C           -3.790680466997    -0.603356039176     0.101658509523    12.000000000000
         H            0.816088533003    -1.971560039176     0.337613509523     1.007825032230
         H            2.756818533003     2.514934960824    -0.374752490477     1.007825032230
         H            4.242456533003     0.567247960824    -0.119814490477     1.007825032230
         H            3.861423533003    -2.107465039176     1.394071509523     1.007825032230
         H            3.031649533003    -2.979129039176     0.099638509523     1.007825032230
         H            4.442317533003    -1.976084039176    -0.268981490477     1.007825032230
         H           -0.951575466997    -1.957713039176    -1.166930490477     1.007825032230
         H            0.587508533003     3.391161960824    -0.207216490477     1.007825032230
         H           -0.768179466997     2.447983960824     0.114043509523     1.007825032230
         H           -3.406705466997    -2.399600039176    -1.040588490477     1.007825032230
         H           -3.788906466997     1.274000960824     1.175854509523     1.007825032230
         H           -4.865344466997    -0.745248039176     0.172282509523     1.007825032230

  Basis Set: AUG-CC-PVTZ
    Blend: AUG-CC-PVTZ
  Basis Set: (AUG-CC-PVTZ AUX)
    Blend: AUG-CC-PVTZ-JKFIT
	 Reference Energy          =    -570.4977707588716385 [Eh]
	 Singles Energy            =      -0.0000000000000000 [Eh]
	 Same-Spin Energy          =      -0.6409767882642142 [Eh]
	 Opposite-Spin Energy      =      -1.9783123409198315 [Eh]
	 Correlation Energy        =      -2.6192891291840459 [Eh]
	 Total Energy              =    -573.1170598880556781 [Eh]

	 ================> DF-SCS-MP2 Energies <==================
	-----------------------------------------------------------
	 SCS Same-Spin Scale       =       0.3333333333333333 [-]
	 SCS Opposite-Spin Scale   =       1.2000000000000000 [-]
	 SCS Same-Spin Energy      =      -0.2136589294214047 [Eh]
	 SCS Opposite-Spin Energy  =      -2.3739748091037978 [Eh]
	 SCS Correlation Energy    =      -2.5876337385252026 [Eh]
	 SCS Total Energy          =    -573.0854044973968939 [Eh]
	-----------------------------------------------------------

  Dipole Moment: [D]
     X:    -1.1246      Y:    -0.9869      Z:     0.0673     Total:     1.4977

*** Psi4 exiting successfully. Buy a developer a beer!
