                               Psi4 1.4a3.dev225

  ==> Input File <==

--------------------------------------------------------------------------
#psi4
#
memory 32 gb

molecule  {
0 1
  N        0.0801310     2.5312230    -0.3913130
  N       -1.9006720     0.7782080     0.6229160
  C        0.3499640     0.1224320    -0.0065570
  C        0.8960730     1.4188800    -0.1658420
  C        2.6063130    -0.8406050     0.1180930
  C        1.2173430    -0.9692250     0.1590540
  C       -1.1077440    -0.1233710    -0.0042630
  C        2.2932590     1.5435480    -0.2281840
  C        3.1306880     0.4434260    -0.0762550
  C        3.5085210    -2.0251140     0.3469700
  C       -1.6410700    -1.2638430    -0.6279320
  C       -3.0109220    -1.5027310    -0.5649580
  C       -3.2228950     0.5407920     0.6622730
  C       -3.8232840    -0.5849970     0.1005040
  H        0.7834850    -1.9532010     0.3364590
  H        2.7242150     2.5332940    -0.3759070
  H        4.2098530     0.5856070    -0.1209690
  H        3.8288200    -2.0891060     1.3929170
  H        2.9990460    -2.9607700     0.0984840
  H        4.4097140    -1.9577250    -0.2701360
  H       -0.9841790    -1.9393540    -1.1680850
  H        0.5549050     3.4095210    -0.2083710
  H       -0.8007830     2.4663430     0.1128890
  H       -3.4393090    -2.3812410    -1.0417430
  H       -3.8215100     1.2923600     1.1747000
  H       -4.8484831    -0.7203580     0.1678773
units angstrom
no_reorient  #important for SAPT in psi4, default
symmetry c1  #important for SAPT in psi4, default
}

set PROPERTIES_ORIGIN ["COM"]
properties('MP2/aug-cc-pvtz', properties = ['dipole'])
--------------------------------------------------------------------------

    Molecular point group: c1
  Charge       = 0
  Multiplicity = 1
  Basis Set: AUG-CC-PVTZ
    Blend: AUG-CC-PVTZ
  Basis Set: (AUG-CC-PVTZ AUX)
    Blend: AUG-CC-PVTZ-JKFIT

    Orbital Energies [Eh]
    ---------------------

    Doubly Occupied:

       1A    -15.567196     2A    -15.547623     3A    -11.288513
       4A    -11.279847     5A    -11.275290     6A    -11.261984
       7A    -11.240524     8A    -11.235761     9A    -11.233374
      10A    -11.232472    11A    -11.232188    12A    -11.226548
      13A    -11.222631    14A    -11.219444    15A     -1.260756
      16A     -1.210541    17A     -1.131586    18A     -1.088420
      19A     -1.063295    20A     -1.016080    21A     -0.993167
      22A     -0.915559    23A     -0.872446    24A     -0.861879
      25A     -0.815240    26A     -0.783387    27A     -0.711214
      28A     -0.689777    29A     -0.682308    30A     -0.664364
      31A     -0.650775    32A     -0.613499    33A     -0.600469
      34A     -0.591032    35A     -0.582216    36A     -0.573542
      37A     -0.569901    38A     -0.548115    39A     -0.533675
      40A     -0.529972    41A     -0.512984    42A     -0.492916
      43A     -0.485626    44A     -0.434984    45A     -0.418746
      46A     -0.387309    47A     -0.366421    48A     -0.316367
      49A     -0.278435

  @DF-RHF Final Energy:  -570.50094365939935

   => Energetics <=

    Nuclear Repulsion Energy =            812.2889114552156116
    One-Electron Energy =               -2384.9589137096909326
    Two-Electron Energy =                1002.1690585950759669
    Total Energy =                       -570.5009436593993541
  Basis Set: (AUG-CC-PVTZ AUX)
    Blend: AUG-CC-PVTZ-RI
    Molecular point group: c1

    Geometry (in Angstrom), charge = 0, multiplicity = 1:

       Center              X                  Y                   Z               Mass
    ------------   -----------------  -----------------  -----------------  -----------------
         N            0.109889280278     2.511077355616    -0.390752831782    14.003074004430
         N           -1.870913719722     0.758062355616     0.623476168218    14.003074004430
         C            0.379722280278     0.102286355616    -0.005996831782    12.000000000000
         C            0.925831280278     1.398734355616    -0.165281831782    12.000000000000
         C            2.636071280278    -0.860750644384     0.118653168218    12.000000000000
         C            1.247101280278    -0.989370644384     0.159614168218    12.000000000000
         C           -1.077985719722    -0.143516644384    -0.003702831782    12.000000000000
         C            2.323017280278     1.523402355616    -0.227623831782    12.000000000000
         C            3.160446280278     0.423280355616    -0.075694831782    12.000000000000
         C            3.538279280278    -2.045259644384     0.347530168218    12.000000000000
         C           -1.611311719722    -1.283988644384    -0.627371831782    12.000000000000
         C           -2.981163719722    -1.522876644384    -0.564397831782    12.000000000000
         C           -3.193136719722     0.520646355616     0.662833168218    12.000000000000
         C           -3.793525719722    -0.605142644384     0.101064168218    12.000000000000
         H            0.813243280278    -1.973346644384     0.337019168218     1.007825032230
         H            2.753973280278     2.513148355616    -0.375346831782     1.007825032230
         H            4.239611280278     0.565461355616    -0.120408831782     1.007825032230
         H            3.858578280278    -2.109251644384     1.393477168218     1.007825032230
         H            3.028804280278    -2.980915644384     0.099044168218     1.007825032230
         H            4.439472280278    -1.977870644384    -0.269575831782     1.007825032230
         H           -0.954420719722    -1.959499644384    -1.167524831782     1.007825032230
         H            0.584663280278     3.389375355616    -0.207810831782     1.007825032230
         H           -0.771024719722     2.446197355616     0.113449168218     1.007825032230
         H           -3.409550719722    -2.401386644384    -1.041182831782     1.007825032230
         H           -3.791751719722     1.272214355616     1.175260168218     1.007825032230
         H           -4.818724819722    -0.740503644384     0.168437468218     1.007825032230

  Basis Set: AUG-CC-PVTZ
    Blend: AUG-CC-PVTZ
  Basis Set: (AUG-CC-PVTZ AUX)
    Blend: AUG-CC-PVTZ-JKFIT
	 Reference Energy          =    -570.5009436593993541 [Eh]
	 Singles Energy            =      -0.0000000000000000 [Eh]
	 Same-Spin Energy          =      -0.6407504703364969 [Eh]
	 Opposite-Spin Energy      =      -1.9773776710739763 [Eh]
	 Correlation Energy        =      -2.6181281414104731 [Eh]
	 Total Energy              =    -573.1190718008098202 [Eh]

	 ================> DF-SCS-MP2 Energies <==================
	-----------------------------------------------------------
	 SCS Same-Spin Scale       =       0.3333333333333333 [-]
	 SCS Opposite-Spin Scale   =       1.2000000000000000 [-]
	 SCS Same-Spin Energy      =      -0.2135834901121656 [Eh]
	 SCS Opposite-Spin Energy  =      -2.3728532052887714 [Eh]
	 SCS Correlation Energy    =      -2.5864366954009372 [Eh]
	 SCS Total Energy          =    -573.0873803548003025 [Eh]
	-----------------------------------------------------------

  Dipole Moment: [D]
     X:    -1.1120      Y:    -0.9647      Z:     0.0792     Total:     1.4743

*** Psi4 exiting successfully. Buy a developer a beer!
