                               Psi4 1.4a3.dev225

  ==> Input File <==

--------------------------------------------------------------------------
#psi4
#
memory 32 gb

molecule  {
0 1
  N        0.0801310     2.5312230    -0.3913130
  N       -1.9006720     0.7782080     0.6229160
  C        0.3499640     0.1224320    -0.0065570
  C        0.8960730     1.4188800    -0.1658420
  C        2.6063130    -0.8406050     0.1180930
  C        1.2173430    -0.9692250     0.1590540
  C       -1.1077440    -0.1233710    -0.0042630
  C        2.2932590     1.5435480    -0.2281840
  C        3.1306880     0.4434260    -0.0762550
  C        3.5085210    -2.0251140     0.3469700
  C       -1.6410700    -1.2638430    -0.6279320
  C       -3.0109220    -1.5027310    -0.5649580
  C       -3.2228950     0.5407920     0.6622730
  C       -3.8232840    -0.5849970     0.1005040
  H        0.7834850    -1.9532010     0.3364590
  H        2.7242150     2.5332940    -0.3759070
  H        4.2098530     0.5856070    -0.1209690
  H        3.8288200    -2.0891060     1.3929170
  H        2.9990460    -2.9607700     0.0984840
  H        4.4097140    -1.9577250    -0.2701360
  H       -0.9841790    -1.9393540    -1.1680850
  H        0.5549050     3.4095210    -0.2083710
  H       -0.8007830     2.4663430     0.1128890
  H       -3.4393090    -2.3812410    -1.0417430
  H       -3.8215100     1.2923600     1.1747000
  H       -4.9474129    -0.7334200     0.1743787
units angstrom
no_reorient  #important for SAPT in psi4, default
symmetry c1  #important for SAPT in psi4, default
}

set PROPERTIES_ORIGIN ["COM"]
properties('MP2/aug-cc-pvtz', properties = ['dipole'])
--------------------------------------------------------------------------

    Molecular point group: c1
  Charge       = 0
  Multiplicity = 1
  Basis Set: AUG-CC-PVTZ
    Blend: AUG-CC-PVTZ
  Basis Set: (AUG-CC-PVTZ AUX)
    Blend: AUG-CC-PVTZ-JKFIT

    Orbital Energies [Eh]
    ---------------------

    Doubly Occupied:

       1A    -15.567909     2A    -15.547831     3A    -11.288880
       4A    -11.280675     5A    -11.275491     6A    -11.262890
       7A    -11.247268     8A    -11.241181     9A    -11.233587
      10A    -11.232648    11A    -11.232404    12A    -11.226725
      13A    -11.222808    14A    -11.219575    15A     -1.261300
      16A     -1.210763    17A     -1.131777    18A     -1.087490
      19A     -1.062831    20A     -1.016194    21A     -0.991745
      22A     -0.915549    23A     -0.869010    24A     -0.862388
      25A     -0.814318    26A     -0.783482    27A     -0.707320
      28A     -0.689854    29A     -0.680816    30A     -0.657358
      31A     -0.648619    32A     -0.613654    33A     -0.600689
      34A     -0.587098    35A     -0.581481    36A     -0.573929
      37A     -0.570206    38A     -0.548390    39A     -0.531426
      40A     -0.527744    41A     -0.512944    42A     -0.492901
      43A     -0.485828    44A     -0.435171    45A     -0.418907
      46A     -0.387861    47A     -0.366819    48A     -0.316619
      49A     -0.278642

  @DF-RHF Final Energy:  -570.49924976827674

   => Energetics <=

    Nuclear Repulsion Energy =            811.7531951101273080
    One-Electron Energy =               -2383.9029001045746554
    Two-Electron Energy =                1001.6504552261706067
    Total Energy =                       -570.4992497682767407
  Basis Set: (AUG-CC-PVTZ AUX)
    Blend: AUG-CC-PVTZ-RI
    Molecular point group: c1

    Geometry (in Angstrom), charge = 0, multiplicity = 1:

       Center              X                  Y                   Z               Mass
    ------------   -----------------  -----------------  -----------------  -----------------
         N            0.110430854980     2.511148861358    -0.390788422613    14.003074004430
         N           -1.870372145020     0.758133861358     0.623440577387    14.003074004430
         C            0.380263854980     0.102357861358    -0.006032422613    12.000000000000
         C            0.926372854980     1.398805861358    -0.165317422613    12.000000000000
         C            2.636612854980    -0.860679138642     0.118617577387    12.000000000000
         C            1.247642854980    -0.989299138642     0.159578577387    12.000000000000
         C           -1.077444145020    -0.143445138642    -0.003738422613    12.000000000000
         C            2.323558854980     1.523473861358    -0.227659422613    12.000000000000
         C            3.160987854980     0.423351861358    -0.075730422613    12.000000000000
         C            3.538820854980    -2.045188138642     0.347494577387    12.000000000000
         C           -1.610770145020    -1.283917138642    -0.627407422613    12.000000000000
         C           -2.980622145020    -1.522805138642    -0.564433422613    12.000000000000
         C           -3.192595145020     0.520717861358     0.662797577387    12.000000000000
         C           -3.792984145020    -0.605071138642     0.101028577387    12.000000000000
         H            0.813784854980    -1.973275138642     0.336983577387     1.007825032230
         H            2.754514854980     2.513219861358    -0.375382422613     1.007825032230
         H            4.240152854980     0.565532861358    -0.120444422613     1.007825032230
         H            3.859119854980    -2.109180138642     1.393441577387     1.007825032230
         H            3.029345854980    -2.980844138642     0.099008577387     1.007825032230
         H            4.440013854980    -1.977799138642    -0.269611422613     1.007825032230
         H           -0.953879145020    -1.959428138642    -1.167560422613     1.007825032230
         H            0.585204854980     3.389446861358    -0.207846422613     1.007825032230
         H           -0.770483145020     2.446268861358     0.113413577387     1.007825032230
         H           -3.409009145020    -2.401315138642    -1.041218422613     1.007825032230
         H           -3.791210145020     1.272285861358     1.175224577387     1.007825032230
         H           -4.917113045020    -0.753494138642     0.174903277387     1.007825032230

  Basis Set: AUG-CC-PVTZ
    Blend: AUG-CC-PVTZ
  Basis Set: (AUG-CC-PVTZ AUX)
    Blend: AUG-CC-PVTZ-JKFIT
	 Reference Energy          =    -570.4992497682767407 [Eh]
	 Singles Energy            =      -0.0000000000000000 [Eh]
	 Same-Spin Energy          =      -0.6409371622007919 [Eh]
	 Opposite-Spin Energy      =      -1.9781039440470705 [Eh]
	 Correlation Energy        =      -2.6190411062478622 [Eh]
	 Total Energy              =    -573.1182908745246323 [Eh]

	 ================> DF-SCS-MP2 Energies <==================
	-----------------------------------------------------------
	 SCS Same-Spin Scale       =       0.3333333333333333 [-]
	 SCS Opposite-Spin Scale   =       1.2000000000000000 [-]
	 SCS Same-Spin Energy      =      -0.2136457207335973 [Eh]
	 SCS Opposite-Spin Energy  =      -2.3737247328564846 [Eh]
	 SCS Correlation Energy    =      -2.5873704535900819 [Eh]
	 SCS Total Energy          =    -573.0866202218668377 [Eh]
	-----------------------------------------------------------

  Dipole Moment: [D]
     X:    -1.0774      Y:    -0.9619      Z:     0.0755     Total:     1.4463

*** Psi4 exiting successfully. Buy a developer a beer!
