                               Psi4 1.4a3.dev225

  ==> Input File <==

--------------------------------------------------------------------------
#psi4
#
memory 32 gb

molecule  {
0 1
  N        0.0801310     2.5312230    -0.3913130
  N       -1.9006720     0.7782080     0.6229160
  C        0.3499640     0.1224320    -0.0065570
  C        0.8960730     1.4188800    -0.1658420
  C        2.6063130    -0.8406050     0.1180930
  C        1.2173430    -0.9692250     0.1590540
  C       -1.1077440    -0.1233710    -0.0042630
  C        2.2932590     1.5435480    -0.2281840
  C        3.1306880     0.4434260    -0.0762550
  C        3.5085210    -2.0251140     0.3469700
  C       -1.6410700    -1.2638430    -0.6279320
  C       -2.8985569    -1.4155770    -0.5319706
  C       -3.2228950     0.5407920     0.6622730
  C       -3.8232840    -0.5849970     0.1005040
  H        0.7834850    -1.9532010     0.3364590
  H        2.7242150     2.5332940    -0.3759070
  H        4.2098530     0.5856070    -0.1209690
  H        3.8288200    -2.0891060     1.3929170
  H        2.9990460    -2.9607700     0.0984840
  H        4.4097140    -1.9577250    -0.2701360
  H       -0.9841790    -1.9393540    -1.1680850
  H        0.5549050     3.4095210    -0.2083710
  H       -0.8007830     2.4663430     0.1128890
  H       -3.4393090    -2.3812410    -1.0417430
  H       -3.8215100     1.2923600     1.1747000
  H       -4.8979480    -0.7268890     0.1711280
units angstrom
no_reorient  #important for SAPT in psi4, default
symmetry c1  #important for SAPT in psi4, default
}

set PROPERTIES_ORIGIN ["COM"]
properties('MP2/aug-cc-pvtz', properties = ['dipole'])
--------------------------------------------------------------------------

    Molecular point group: c1
  Charge       = 0
  Multiplicity = 1
  Basis Set: AUG-CC-PVTZ
    Blend: AUG-CC-PVTZ
  Basis Set: (AUG-CC-PVTZ AUX)
    Blend: AUG-CC-PVTZ-JKFIT

    Orbital Energies [Eh]
    ---------------------

    Doubly Occupied:

       1A    -15.565072     2A    -15.548908     3A    -11.292519
       4A    -11.277382     5A    -11.277320     6A    -11.256323
       7A    -11.239088     8A    -11.235580     9A    -11.234552
      10A    -11.233846    11A    -11.228372    12A    -11.227160
      13A    -11.224274    14A    -11.220751    15A     -1.265946
      16A     -1.212414    17A     -1.133531    18A     -1.104611
      19A     -1.065427    20A     -1.017828    21A     -0.998983
      22A     -0.917325    23A     -0.878647    24A     -0.850429
      25A     -0.818287    26A     -0.780100    27A     -0.709475
      28A     -0.691691    29A     -0.683108    30A     -0.665222
      31A     -0.653036    32A     -0.612590    33A     -0.603332
      34A     -0.594191    35A     -0.584078    36A     -0.573076
      37A     -0.557096    38A     -0.547474    39A     -0.532472
      40A     -0.525217    41A     -0.513137    42A     -0.495005
      43A     -0.487530    44A     -0.435980    45A     -0.411918
      46A     -0.399904    47A     -0.369535    48A     -0.318101
      49A     -0.280202

  @DF-RHF Final Energy:  -570.47440970827415

   => Energetics <=

    Nuclear Repulsion Energy =            815.1210933843454995
    One-Electron Energy =               -2390.4949182806899444
    Two-Electron Energy =                1004.8994151880704067
    Total Energy =                       -570.4744097082741519
  Basis Set: (AUG-CC-PVTZ AUX)
    Blend: AUG-CC-PVTZ-RI
    Molecular point group: c1

    Geometry (in Angstrom), charge = 0, multiplicity = 1:

       Center              X                  Y                   Z               Mass
    ------------   -----------------  -----------------  -----------------  -----------------
         N            0.102835891390     2.505432240887    -0.392920810228    14.003074004430
         N           -1.877967108610     0.752417240887     0.621308189772    14.003074004430
         C            0.372668891390     0.096641240887    -0.008164810228    12.000000000000
         C            0.918777891390     1.393089240887    -0.167449810228    12.000000000000
         C            2.629017891390    -0.866395759113     0.116485189772    12.000000000000
         C            1.240047891390    -0.995015759113     0.157446189772    12.000000000000
         C           -1.085039108610    -0.149161759113    -0.005870810228    12.000000000000
         C            2.315963891390     1.517757240887    -0.229791810228    12.000000000000
         C            3.153392891390     0.417635240887    -0.077862810228    12.000000000000
         C            3.531225891390    -2.050904759113     0.345362189772    12.000000000000
         C           -1.618365108610    -1.289633759113    -0.629539810228    12.000000000000
         C           -2.875852008610    -1.441367759113    -0.533578410228    12.000000000000
         C           -3.200190108610     0.515001240887     0.660665189772    12.000000000000
         C           -3.800579108610    -0.610787759113     0.098896189772    12.000000000000
         H            0.806189891390    -1.978991759113     0.334851189772     1.007825032230
         H            2.746919891390     2.507503240887    -0.377514810228     1.007825032230
         H            4.232557891390     0.559816240887    -0.122576810228     1.007825032230
         H            3.851524891390    -2.114896759113     1.391309189772     1.007825032230
         H            3.021750891390    -2.986560759113     0.096876189772     1.007825032230
         H            4.432418891390    -1.983515759113    -0.271743810228     1.007825032230
         H           -0.961474108610    -1.965144759113    -1.169692810228     1.007825032230
         H            0.577609891390     3.383730240887    -0.209978810228     1.007825032230
         H           -0.778078108610     2.440552240887     0.111281189772     1.007825032230
         H           -3.416604108610    -2.407031759113    -1.043350810228     1.007825032230
         H           -3.798805108610     1.266569240887     1.173092189772     1.007825032230
         H           -4.875243108610    -0.752679759113     0.169520189772     1.007825032230

  Basis Set: AUG-CC-PVTZ
    Blend: AUG-CC-PVTZ
  Basis Set: (AUG-CC-PVTZ AUX)
    Blend: AUG-CC-PVTZ-JKFIT
	 Reference Energy          =    -570.4744097082741519 [Eh]
	 Singles Energy            =      -0.0000000000000000 [Eh]
	 Same-Spin Energy          =      -0.6408745787659448 [Eh]
	 Opposite-Spin Energy      =      -1.9777692111274991 [Eh]
	 Correlation Energy        =      -2.6186437898934440 [Eh]
	 Total Energy              =    -573.0930534981675919 [Eh]

	 ================> DF-SCS-MP2 Energies <==================
	-----------------------------------------------------------
	 SCS Same-Spin Scale       =       0.3333333333333333 [-]
	 SCS Opposite-Spin Scale   =       1.2000000000000000 [-]
	 SCS Same-Spin Energy      =      -0.2136248595886482 [Eh]
	 SCS Opposite-Spin Energy  =      -2.3733230533529990 [Eh]
	 SCS Correlation Energy    =      -2.5869479129416471 [Eh]
	 SCS Total Energy          =    -573.0613576212158478 [Eh]
	-----------------------------------------------------------

  Dipole Moment: [D]
     X:    -0.9556      Y:    -0.8208      Z:     0.1448     Total:     1.2681

*** Psi4 exiting successfully. Buy a developer a beer!
