                               Psi4 1.4a3.dev225

  ==> Input File <==

--------------------------------------------------------------------------
#psi4
#
memory 32 gb

molecule  {
0 1
  N        0.0801310     2.5312230    -0.3913130
  N       -1.9006720     0.7782080     0.6229160
  C        0.3958499     0.1040916    -0.0061785
  C        0.8960730     1.4188800    -0.1658420
  C        2.6063130    -0.8406050     0.1180930
  C        1.2173430    -0.9692250     0.1590540
  C       -1.1077440    -0.1233710    -0.0042630
  C        2.2932590     1.5435480    -0.2281840
  C        3.1306880     0.4434260    -0.0762550
  C        3.5085210    -2.0251140     0.3469700
  C       -1.6410700    -1.2638430    -0.6279320
  C       -3.0109220    -1.5027310    -0.5649580
  C       -3.2228950     0.5407920     0.6622730
  C       -3.8232840    -0.5849970     0.1005040
  H        0.7834850    -1.9532010     0.3364590
  H        2.7242150     2.5332940    -0.3759070
  H        4.2098530     0.5856070    -0.1209690
  H        3.8288200    -2.0891060     1.3929170
  H        2.9990460    -2.9607700     0.0984840
  H        4.4097140    -1.9577250    -0.2701360
  H       -0.9841790    -1.9393540    -1.1680850
  H        0.5549050     3.4095210    -0.2083710
  H       -0.8007830     2.4663430     0.1128890
  H       -3.4393090    -2.3812410    -1.0417430
  H       -3.8215100     1.2923600     1.1747000
  H       -4.8979480    -0.7268890     0.1711280
units angstrom
no_reorient  #important for SAPT in psi4, default
symmetry c1  #important for SAPT in psi4, default
}

set PROPERTIES_ORIGIN ["COM"]
properties('MP2/aug-cc-pvtz', properties = ['dipole'])
--------------------------------------------------------------------------

    Molecular point group: c1
  Charge       = 0
  Multiplicity = 1
  Basis Set: AUG-CC-PVTZ
    Blend: AUG-CC-PVTZ
  Basis Set: (AUG-CC-PVTZ AUX)
    Blend: AUG-CC-PVTZ-JKFIT

    Orbital Energies [Eh]
    ---------------------

    Doubly Occupied:

       1A    -15.568374     2A    -15.548893     3A    -11.290697
       4A    -11.280600     5A    -11.274497     6A    -11.262463
       7A    -11.241917     8A    -11.240707     9A    -11.232834
      10A    -11.230549    11A    -11.228130    12A    -11.225728
      13A    -11.221431    14A    -11.218925    15A     -1.260113
      16A     -1.210967    17A     -1.135259    18A     -1.087841
      19A     -1.059829    20A     -1.016180    21A     -0.996265
      22A     -0.915801    23A     -0.866638    24A     -0.861537
      25A     -0.814057    26A     -0.785157    27A     -0.709420
      28A     -0.689434    29A     -0.681998    30A     -0.658904
      31A     -0.649167    32A     -0.612630    33A     -0.602292
      34A     -0.587695    35A     -0.586066    36A     -0.572741
      37A     -0.569273    38A     -0.547565    39A     -0.532931
      40A     -0.529184    41A     -0.514083    42A     -0.494750
      43A     -0.480607    44A     -0.436808    45A     -0.417472
      46A     -0.387280    47A     -0.365894    48A     -0.320293
      49A     -0.278294

  @DF-RHF Final Energy:  -570.49984833793553

   => Energetics <=

    Nuclear Repulsion Energy =            812.0093299900972852
    One-Electron Energy =               -2384.4180181370606988
    Two-Electron Energy =                1001.9088398090278815
    Total Energy =                       -570.4998483379355321
  Basis Set: (AUG-CC-PVTZ AUX)
    Blend: AUG-CC-PVTZ-RI
    Molecular point group: c1

    Geometry (in Angstrom), charge = 0, multiplicity = 1:

       Center              X                  Y                   Z               Mass
    ------------   -----------------  -----------------  -----------------  -----------------
         N            0.107169135227     2.512308571508    -0.390795298566    14.003074004430
         N           -1.873633864773     0.759293571508     0.623433701434    14.003074004430
         C            0.422888035227     0.085177171508    -0.005660798566    12.000000000000
         C            0.923111135227     1.399965571508    -0.165324298566    12.000000000000
         C            2.633351135227    -0.859519428492     0.118610701434    12.000000000000
         C            1.244381135227    -0.988139428492     0.159571701434    12.000000000000
         C           -1.080705864773    -0.142285428492    -0.003745298566    12.000000000000
         C            2.320297135227     1.524633571508    -0.227666298566    12.000000000000
         C            3.157726135227     0.424511571508    -0.075737298566    12.000000000000
         C            3.535559135227    -2.044028428492     0.347487701434    12.000000000000
         C           -1.614031864773    -1.282757428492    -0.627414298566    12.000000000000
         C           -2.983883864773    -1.521645428492    -0.564440298566    12.000000000000
         C           -3.195856864773     0.521877571508     0.662790701434    12.000000000000
         C           -3.796245864773    -0.603911428492     0.101021701434    12.000000000000
         H            0.810523135227    -1.972115428492     0.336976701434     1.007825032230
         H            2.751253135227     2.514379571508    -0.375389298566     1.007825032230
         H            4.236891135227     0.566692571508    -0.120451298566     1.007825032230
         H            3.855858135227    -2.108020428492     1.393434701434     1.007825032230
         H            3.026084135227    -2.979684428492     0.099001701434     1.007825032230
         H            4.436752135227    -1.976639428492    -0.269618298566     1.007825032230
         H           -0.957140864773    -1.958268428492    -1.167567298566     1.007825032230
         H            0.581943135227     3.390606571508    -0.207853298566     1.007825032230
         H           -0.773744864773     2.447428571508     0.113406701434     1.007825032230
         H           -3.412270864773    -2.400155428492    -1.041225298566     1.007825032230
         H           -3.794471864773     1.273445571508     1.175217701434     1.007825032230
         H           -4.870909864773    -0.745803428492     0.171645701434     1.007825032230

  Basis Set: AUG-CC-PVTZ
    Blend: AUG-CC-PVTZ
  Basis Set: (AUG-CC-PVTZ AUX)
    Blend: AUG-CC-PVTZ-JKFIT
	 Reference Energy          =    -570.4998483379355321 [Eh]
	 Singles Energy            =      -0.0000000000000000 [Eh]
	 Same-Spin Energy          =      -0.6404587316714374 [Eh]
	 Opposite-Spin Energy      =      -1.9770582526972189 [Eh]
	 Correlation Energy        =      -2.6175169843686561 [Eh]
	 Total Energy              =    -573.1173653223041811 [Eh]

	 ================> DF-SCS-MP2 Energies <==================
	-----------------------------------------------------------
	 SCS Same-Spin Scale       =       0.3333333333333333 [-]
	 SCS Opposite-Spin Scale   =       1.2000000000000000 [-]
	 SCS Same-Spin Energy      =      -0.2134862438904791 [Eh]
	 SCS Opposite-Spin Energy  =      -2.3724699032366625 [Eh]
	 SCS Correlation Energy    =      -2.5859561471271415 [Eh]
	 SCS Total Energy          =    -573.0858044850626811 [Eh]
	-----------------------------------------------------------

  Dipole Moment: [D]
     X:    -1.1514      Y:    -0.9649      Z:     0.0845     Total:     1.5046

*** Psi4 exiting successfully. Buy a developer a beer!
