                               Psi4 1.4a3.dev225

  ==> Input File <==

--------------------------------------------------------------------------
#psi4
#
memory 32 gb

molecule  {
0 1
  N        0.0801310     2.5312230    -0.3913130
  N       -1.9006720     0.7782080     0.6229160
  C        0.3499640     0.1224320    -0.0065570
  C        0.8960730     1.4188800    -0.1658420
  C        2.6063130    -0.8406050     0.1180930
  C        1.2173430    -0.9692250     0.1590540
  C       -1.1077440    -0.1233710    -0.0042630
  C        2.2932590     1.5435480    -0.2281840
  C        3.1306880     0.4434260    -0.0762550
  C        3.5085210    -2.0251140     0.3469700
  C       -1.6410700    -1.2638430    -0.6279320
  C       -3.0109220    -1.5027310    -0.5649580
  C       -3.2228950     0.5407920     0.6622730
  C       -3.8232840    -0.5849970     0.1005040
  H        0.7834850    -1.9532010     0.3364590
  H        2.7242150     2.5332940    -0.3759070
  H        4.2098530     0.5856070    -0.1209690
  H        3.8288200    -2.0891060     1.3929170
  H        2.9990460    -2.9607700     0.0984840
  H        4.4097140    -1.9577250    -0.2701360
  H       -0.9841790    -1.9393540    -1.1680850
  H        0.5549050     3.4095210    -0.2083710
  H       -0.8007830     2.4663430     0.1128890
  H       -3.4393090    -2.3812410    -1.0417430
  H       -3.8215100     1.2923600     1.1747000
  H       -4.9177340    -0.7295014     0.1724283
units angstrom
no_reorient  #important for SAPT in psi4, default
symmetry c1  #important for SAPT in psi4, default
}

set PROPERTIES_ORIGIN ["COM"]
properties('MP2/aug-cc-pvtz', properties = ['dipole'])
--------------------------------------------------------------------------

    Molecular point group: c1
  Charge       = 0
  Multiplicity = 1
  Basis Set: AUG-CC-PVTZ
    Blend: AUG-CC-PVTZ
  Basis Set: (AUG-CC-PVTZ AUX)
    Blend: AUG-CC-PVTZ-JKFIT

    Orbital Energies [Eh]
    ---------------------

    Doubly Occupied:

       1A    -15.567679     2A    -15.547760     3A    -11.288751
       4A    -11.280399     5A    -11.275421     6A    -11.262589
       7A    -11.243901     8A    -11.240969     9A    -11.233514
      10A    -11.232587    11A    -11.232330    12A    -11.226664
      13A    -11.222747    14A    -11.219530    15A     -1.261117
      16A     -1.210686    17A     -1.131711    18A     -1.087673
      19A     -1.062932    20A     -1.016149    21A     -0.992097
      22A     -0.915536    23A     -0.869886    24A     -0.862218
      25A     -0.814545    26A     -0.783435    27A     -0.708201
      28A     -0.689804    29A     -0.681131    30A     -0.659064
      31A     -0.649662    32A     -0.613603    33A     -0.600614
      34A     -0.588220    35A     -0.581844    36A     -0.573800
      37A     -0.570108    38A     -0.548291    39A     -0.531796
      40A     -0.528906    41A     -0.512977    42A     -0.492911
      43A     -0.485759    44A     -0.435107    45A     -0.418856
      46A     -0.387675    47A     -0.366684    48A     -0.316530
      49A     -0.278570

  @DF-RHF Final Energy:  -570.50108099122826

   => Energetics <=

    Nuclear Repulsion Energy =            811.9074771683096969
    One-Electron Energy =               -2384.2112387269130522
    Two-Electron Energy =                1001.8026805673750914
    Total Energy =                       -570.5010809912282639
  Basis Set: (AUG-CC-PVTZ AUX)
    Blend: AUG-CC-PVTZ-RI
    Molecular point group: c1

    Geometry (in Angstrom), charge = 0, multiplicity = 1:

       Center              X                  Y                   Z               Mass
    ------------   -----------------  -----------------  -----------------  -----------------
         N            0.110268382788     2.511127409635    -0.390777745473    14.003074004430
         N           -1.870534617212     0.758112409635     0.623451254527    14.003074004430
         C            0.380101382788     0.102336409635    -0.006021745473    12.000000000000
         C            0.926210382788     1.398784409635    -0.165306745473    12.000000000000
         C            2.636450382788    -0.860700590365     0.118628254527    12.000000000000
         C            1.247480382788    -0.989320590365     0.159589254527    12.000000000000
         C           -1.077606617212    -0.143466590365    -0.003727745473    12.000000000000
         C            2.323396382788     1.523452409635    -0.227648745473    12.000000000000
         C            3.160825382788     0.423330409635    -0.075719745473    12.000000000000
         C            3.538658382788    -2.045209590365     0.347505254527    12.000000000000
         C           -1.610932617212    -1.283938590365    -0.627396745473    12.000000000000
         C           -2.980784617212    -1.522826590365    -0.564422745473    12.000000000000
         C           -3.192757617212     0.520696409635     0.662808254527    12.000000000000
         C           -3.793146617212    -0.605092590365     0.101039254527    12.000000000000
         H            0.813622382788    -1.973296590365     0.336994254527     1.007825032230
         H            2.754352382788     2.513198409635    -0.375371745473     1.007825032230
         H            4.239990382788     0.565511409635    -0.120433745473     1.007825032230
         H            3.858957382788    -2.109201590365     1.393452254527     1.007825032230
         H            3.029183382788    -2.980865590365     0.099019254527     1.007825032230
         H            4.439851382788    -1.977820590365    -0.269600745473     1.007825032230
         H           -0.954041617212    -1.959449590365    -1.167549745473     1.007825032230
         H            0.585042382788     3.389425409635    -0.207835745473     1.007825032230
         H           -0.770645617212     2.446247409635     0.113424254527     1.007825032230
         H           -3.409171617212    -2.401336590365    -1.041207745473     1.007825032230
         H           -3.791372617212     1.272264409635     1.175235254527     1.007825032230
         H           -4.887596617212    -0.749596990365     0.172963554527     1.007825032230

  Basis Set: AUG-CC-PVTZ
    Blend: AUG-CC-PVTZ
  Basis Set: (AUG-CC-PVTZ AUX)
    Blend: AUG-CC-PVTZ-JKFIT
	 Reference Energy          =    -570.5010809912282639 [Eh]
	 Singles Energy            =      -0.0000000000000000 [Eh]
	 Same-Spin Energy          =      -0.6408741221984415 [Eh]
	 Opposite-Spin Energy      =      -1.9778431016060642 [Eh]
	 Correlation Energy        =      -2.6187172238045058 [Eh]
	 Total Energy              =    -573.1197982150328016 [Eh]

	 ================> DF-SCS-MP2 Energies <==================
	-----------------------------------------------------------
	 SCS Same-Spin Scale       =       0.3333333333333333 [-]
	 SCS Opposite-Spin Scale   =       1.2000000000000000 [-]
	 SCS Same-Spin Energy      =      -0.2136247073994805 [Eh]
	 SCS Opposite-Spin Energy  =      -2.3734117219272770 [Eh]
	 SCS Correlation Energy    =      -2.5870364293267576 [Eh]
	 SCS Total Energy          =    -573.0881174205550224 [Eh]
	-----------------------------------------------------------

  Dipole Moment: [D]
     X:    -1.0897      Y:    -0.9631      Z:     0.0767     Total:     1.4563

*** Psi4 exiting successfully. Buy a developer a beer!
