                               Psi4 1.4a3.dev225

  ==> Input File <==

--------------------------------------------------------------------------
#psi4
#
memory 32 gb

molecule  {
0 1
  N        0.0801310     2.5312230    -0.3913130
  N       -1.9006720     0.7782080     0.6229160
  C        0.3499640     0.1224320    -0.0065570
  C        0.8960730     1.4188800    -0.1658420
  C        2.6063130    -0.8406050     0.1180930
  C        1.1675775    -0.9738333     0.1605216
  C       -1.1077440    -0.1233710    -0.0042630
  C        2.2932590     1.5435480    -0.2281840
  C        3.1306880     0.4434260    -0.0762550
  C        3.5085210    -2.0251140     0.3469700
  C       -1.6410700    -1.2638430    -0.6279320
  C       -3.0109220    -1.5027310    -0.5649580
  C       -3.2228950     0.5407920     0.6622730
  C       -3.8232840    -0.5849970     0.1005040
  H        0.7834850    -1.9532010     0.3364590
  H        2.7242150     2.5332940    -0.3759070
  H        4.2098530     0.5856070    -0.1209690
  H        3.8288200    -2.0891060     1.3929170
  H        2.9990460    -2.9607700     0.0984840
  H        4.4097140    -1.9577250    -0.2701360
  H       -0.9841790    -1.9393540    -1.1680850
  H        0.5549050     3.4095210    -0.2083710
  H       -0.8007830     2.4663430     0.1128890
  H       -3.4393090    -2.3812410    -1.0417430
  H       -3.8215100     1.2923600     1.1747000
  H       -4.8979480    -0.7268890     0.1711280
units angstrom
no_reorient  #important for SAPT in psi4, default
symmetry c1  #important for SAPT in psi4, default
}

set PROPERTIES_ORIGIN ["COM"]
properties('MP2/aug-cc-pvtz', properties = ['dipole'])
--------------------------------------------------------------------------

    Molecular point group: c1
  Charge       = 0
  Multiplicity = 1
  Basis Set: AUG-CC-PVTZ
    Blend: AUG-CC-PVTZ
  Basis Set: (AUG-CC-PVTZ AUX)
    Blend: AUG-CC-PVTZ-JKFIT

    Orbital Energies [Eh]
    ---------------------

    Doubly Occupied:

       1A    -15.567679     2A    -15.547702     3A    -11.288353
       4A    -11.280368     5A    -11.275363     6A    -11.262662
       7A    -11.241856     8A    -11.241075     9A    -11.234337
      10A    -11.232351    11A    -11.231542    12A    -11.230371
      13A    -11.221393    14A    -11.219559    15A     -1.261391
      16A     -1.210537    17A     -1.128959    18A     -1.088088
      19A     -1.064488    20A     -1.013461    21A     -0.994985
      22A     -0.913649    23A     -0.869832    24A     -0.862159
      25A     -0.815644    26A     -0.782560    27A     -0.709363
      28A     -0.689668    29A     -0.683096    30A     -0.660718
      31A     -0.649162    32A     -0.613974    33A     -0.599762
      34A     -0.589764    35A     -0.584870    36A     -0.573343
      37A     -0.569291    38A     -0.548963    39A     -0.533756
      40A     -0.528779    41A     -0.513134    42A     -0.495868
      43A     -0.481203    44A     -0.433325    45A     -0.418533
      46A     -0.387968    47A     -0.367790    48A     -0.316873
      49A     -0.275819

  @DF-RHF Final Energy:  -570.49821862897761

   => Energetics <=

    Nuclear Repulsion Energy =            811.9819722489000924
    One-Electron Energy =               -2384.3496149864913605
    Two-Electron Energy =                1001.8694241086136572
    Total Energy =                       -570.4982186289776109
  Basis Set: (AUG-CC-PVTZ AUX)
    Blend: AUG-CC-PVTZ-RI
    Molecular point group: c1

    Geometry (in Angstrom), charge = 0, multiplicity = 1:

       Center              X                  Y                   Z               Mass
    ------------   -----------------  -----------------  -----------------  -----------------
         N            0.113403879921     2.511413486463    -0.390866288226    14.003074004430
         N           -1.867399120079     0.758398486463     0.623362711774    14.003074004430
         C            0.383236879921     0.102622486463    -0.006110288226    12.000000000000
         C            0.929345879921     1.399070486463    -0.165395288226    12.000000000000
         C            2.639585879921    -0.860414513537     0.118539711774    12.000000000000
         C            1.200850379921    -0.993642813537     0.160968311774    12.000000000000
         C           -1.074471120079    -0.143180513537    -0.003816288226    12.000000000000
         C            2.326531879921     1.523738486463    -0.227737288226    12.000000000000
         C            3.163960879921     0.423616486463    -0.075808288226    12.000000000000
         C            3.541793879921    -2.044923513537     0.347416711774    12.000000000000
         C           -1.607797120079    -1.283652513537    -0.627485288226    12.000000000000
         C           -2.977649120079    -1.522540513537    -0.564511288226    12.000000000000
         C           -3.189622120079     0.520982486463     0.662719711774    12.000000000000
         C           -3.790011120079    -0.604806513537     0.100950711774    12.000000000000
         H            0.816757879921    -1.973010513537     0.336905711774     1.007825032230
         H            2.757487879921     2.513484486463    -0.375460288226     1.007825032230
         H            4.243125879921     0.565797486463    -0.120522288226     1.007825032230
         H            3.862092879921    -2.108915513537     1.393363711774     1.007825032230
         H            3.032318879921    -2.980579513537     0.098930711774     1.007825032230
         H            4.442986879921    -1.977534513537    -0.269689288226     1.007825032230
         H           -0.950906120079    -1.959163513537    -1.167638288226     1.007825032230
         H            0.588177879921     3.389711486463    -0.207924288226     1.007825032230
         H           -0.767510120079     2.446533486463     0.113335711774     1.007825032230
         H           -3.406036120079    -2.401050513537    -1.041296288226     1.007825032230
         H           -3.788237120079     1.272550486463     1.175146711774     1.007825032230
         H           -4.864675120079    -0.746698513537     0.171574711774     1.007825032230

  Basis Set: AUG-CC-PVTZ
    Blend: AUG-CC-PVTZ
  Basis Set: (AUG-CC-PVTZ AUX)
    Blend: AUG-CC-PVTZ-JKFIT
	 Reference Energy          =    -570.4982186289776109 [Eh]
	 Singles Energy            =      -0.0000000000000000 [Eh]
	 Same-Spin Energy          =      -0.6408843719822279 [Eh]
	 Opposite-Spin Energy      =      -1.9780015030109170 [Eh]
	 Correlation Energy        =      -2.6188858749931452 [Eh]
	 Total Energy              =    -573.1171045039707224 [Eh]

	 ================> DF-SCS-MP2 Energies <==================
	-----------------------------------------------------------
	 SCS Same-Spin Scale       =       0.3333333333333333 [-]
	 SCS Opposite-Spin Scale   =       1.2000000000000000 [-]
	 SCS Same-Spin Energy      =      -0.2136281239940760 [Eh]
	 SCS Opposite-Spin Energy  =      -2.3736018036131004 [Eh]
	 SCS Correlation Energy    =      -2.5872299276071762 [Eh]
	 SCS Total Energy          =    -573.0854485565847654 [Eh]
	-----------------------------------------------------------

  Dipole Moment: [D]
     X:    -1.1087      Y:    -0.9878      Z:     0.0859     Total:     1.4874

*** Psi4 exiting successfully. Buy a developer a beer!
