                               Psi4 1.4a3.dev225

  ==> Input File <==

--------------------------------------------------------------------------
#psi4
#
memory 32 gb

molecule  {
0 1
  N        0.0801310     2.5312230    -0.3913130
  N       -1.9006720     0.7782080     0.6229160
  C        0.3499640     0.1224320    -0.0065570
  C        0.8960730     1.4188800    -0.1658420
  C        2.6063130    -0.8406050     0.1180930
  C        1.2173430    -0.9692250     0.1590540
  C       -1.1077440    -0.1233710    -0.0042630
  C        2.2932590     1.5435480    -0.2281840
  C        3.1306880     0.4434260    -0.0762550
  C        3.5085210    -2.0251140     0.3469700
  C       -1.6410700    -1.2638430    -0.6279320
  C       -3.0109220    -1.5027310    -0.5649580
  C       -3.2228950     0.5407920     0.6622730
  C       -3.8232840    -0.5849970     0.1005040
  H        0.7834850    -1.9532010     0.3364590
  H        2.6846618     2.4424550    -0.3623490
  H        4.2098530     0.5856070    -0.1209690
  H        3.8288200    -2.0891060     1.3929170
  H        2.9990460    -2.9607700     0.0984840
  H        4.4097140    -1.9577250    -0.2701360
  H       -0.9841790    -1.9393540    -1.1680850
  H        0.5549050     3.4095210    -0.2083710
  H       -0.8007830     2.4663430     0.1128890
  H       -3.4393090    -2.3812410    -1.0417430
  H       -3.8215100     1.2923600     1.1747000
  H       -4.8979480    -0.7268890     0.1711280
units angstrom
no_reorient  #important for SAPT in psi4, default
symmetry c1  #important for SAPT in psi4, default
}

set PROPERTIES_ORIGIN ["COM"]
properties('MP2/aug-cc-pvtz', properties = ['dipole'])
--------------------------------------------------------------------------

    Molecular point group: c1
  Charge       = 0
  Multiplicity = 1
  Basis Set: AUG-CC-PVTZ
    Blend: AUG-CC-PVTZ
  Basis Set: (AUG-CC-PVTZ AUX)
    Blend: AUG-CC-PVTZ-JKFIT

    Orbital Energies [Eh]
    ---------------------

    Doubly Occupied:

       1A    -15.567321     2A    -15.547917     3A    -11.288360
       4A    -11.280059     5A    -11.274474     6A    -11.262216
       7A    -11.241411     8A    -11.240582     9A    -11.233015
      10A    -11.231743    11A    -11.231653    12A    -11.225959
      13A    -11.219099    14A    -11.210498    15A     -1.260799
      16A     -1.210930    17A     -1.131401    18A     -1.087641
      19A     -1.063136    20A     -1.018623    21A     -0.993093
      22A     -0.915405    23A     -0.870615    24A     -0.862329
      25A     -0.821222    26A     -0.784226    27A     -0.710106
      28A     -0.689657    29A     -0.681932    30A     -0.661792
      31A     -0.651673    32A     -0.622517    33A     -0.600497
      34A     -0.590221    35A     -0.584971    36A     -0.573495
      37A     -0.569790    38A     -0.548012    39A     -0.531806
      40A     -0.529224    41A     -0.512683    42A     -0.493225
      43A     -0.488455    44A     -0.434843    45A     -0.418641
      46A     -0.387365    47A     -0.366286    48A     -0.316132
      49A     -0.278114

  @DF-RHF Final Energy:  -570.49606889444681

   => Energetics <=

    Nuclear Repulsion Energy =            812.5945956223907842
    One-Electron Energy =               -2385.5510083449230478
    Two-Electron Energy =                1002.4603438280853425
    Total Energy =                       -570.4960688944468075
  Basis Set: (AUG-CC-PVTZ AUX)
    Blend: AUG-CC-PVTZ-RI
    Molecular point group: c1

    Geometry (in Angstrom), charge = 0, multiplicity = 1:

       Center              X                  Y                   Z               Mass
    ------------   -----------------  -----------------  -----------------  -----------------
         N            0.110376595030     2.511610391453    -0.390844848209    14.003074004430
         N           -1.870426404970     0.758595391453     0.623384151791    14.003074004430
         C            0.380209595030     0.102819391453    -0.006088848209    12.000000000000
         C            0.926318595030     1.399267391453    -0.165373848209    12.000000000000
         C            2.636558595030    -0.860217608547     0.118561151791    12.000000000000
         C            1.247588595030    -0.988837608547     0.159522151791    12.000000000000
         C           -1.077498404970    -0.142983608547    -0.003794848209    12.000000000000
         C            2.323504595030     1.523935391453    -0.227715848209    12.000000000000
         C            3.160933595030     0.423813391453    -0.075786848209    12.000000000000
         C            3.538766595030    -2.044726608547     0.347438151791    12.000000000000
         C           -1.610824404970    -1.283455608547    -0.627463848209    12.000000000000
         C           -2.980676404970    -1.522343608547    -0.564489848209    12.000000000000
         C           -3.192649404970     0.521179391453     0.662741151791    12.000000000000
         C           -3.793038404970    -0.604609608547     0.100972151791    12.000000000000
         H            0.813730595030    -1.972813608547     0.336927151791     1.007825032230
         H            2.714907395030     2.422842391453    -0.361880848209     1.007825032230
         H            4.240098595030     0.565994391453    -0.120500848209     1.007825032230
         H            3.859065595030    -2.108718608547     1.393385151791     1.007825032230
         H            3.029291595030    -2.980382608547     0.098952151791     1.007825032230
         H            4.439959595030    -1.977337608547    -0.269667848209     1.007825032230
         H           -0.953933404970    -1.958966608547    -1.167616848209     1.007825032230
         H            0.585150595030     3.389908391453    -0.207902848209     1.007825032230
         H           -0.770537404970     2.446730391453     0.113357151791     1.007825032230
         H           -3.409063404970    -2.400853608547    -1.041274848209     1.007825032230
         H           -3.791264404970     1.272747391453     1.175168151791     1.007825032230
         H           -4.867702404970    -0.746501608547     0.171596151791     1.007825032230

  Basis Set: AUG-CC-PVTZ
    Blend: AUG-CC-PVTZ
  Basis Set: (AUG-CC-PVTZ AUX)
    Blend: AUG-CC-PVTZ-JKFIT
	 Reference Energy          =    -570.4960688944468075 [Eh]
	 Singles Energy            =      -0.0000000000000000 [Eh]
	 Same-Spin Energy          =      -0.6406450553836337 [Eh]
	 Opposite-Spin Energy      =      -1.9771098355315582 [Eh]
	 Correlation Energy        =      -2.6177548909151920 [Eh]
	 Total Energy              =    -573.1138237853620012 [Eh]

	 ================> DF-SCS-MP2 Energies <==================
	-----------------------------------------------------------
	 SCS Same-Spin Scale       =       0.3333333333333333 [-]
	 SCS Opposite-Spin Scale   =       1.2000000000000000 [-]
	 SCS Same-Spin Energy      =      -0.2135483517945446 [Eh]
	 SCS Opposite-Spin Energy  =      -2.3725318026378699 [Eh]
	 SCS Correlation Energy    =      -2.5860801544324143 [Eh]
	 SCS Total Energy          =    -573.0821490488792733 [Eh]
	-----------------------------------------------------------

  Dipole Moment: [D]
     X:    -1.0804      Y:    -0.9224      Z:     0.0724     Total:     1.4224

*** Psi4 exiting successfully. Buy a developer a beer!
