                               Psi4 1.4a3.dev225

  ==> Input File <==

--------------------------------------------------------------------------
#psi4
#
memory 32 gb

molecule  {
0 1
  N        0.0801310     2.5312230    -0.3913130
  N       -1.9006720     0.7782080     0.6229160
  C        0.3417710     0.1658527     0.0200892
  C        0.8960730     1.4188800    -0.1658420
  C        2.6063130    -0.8406050     0.1180930
  C        1.2173430    -0.9692250     0.1590540
  C       -1.1077440    -0.1233710    -0.0042630
  C        2.2932590     1.5435480    -0.2281840
  C        3.1306880     0.4434260    -0.0762550
  C        3.5085210    -2.0251140     0.3469700
  C       -1.6410700    -1.2638430    -0.6279320
  C       -3.0109220    -1.5027310    -0.5649580
  C       -3.2228950     0.5407920     0.6622730
  C       -3.8232840    -0.5849970     0.1005040
  H        0.7834850    -1.9532010     0.3364590
  H        2.7242150     2.5332940    -0.3759070
  H        4.2098530     0.5856070    -0.1209690
  H        3.8288200    -2.0891060     1.3929170
  H        2.9990460    -2.9607700     0.0984840
  H        4.4097140    -1.9577250    -0.2701360
  H       -0.9841790    -1.9393540    -1.1680850
  H        0.5549050     3.4095210    -0.2083710
  H       -0.8007830     2.4663430     0.1128890
  H       -3.4393090    -2.3812410    -1.0417430
  H       -3.8215100     1.2923600     1.1747000
  H       -4.8979480    -0.7268890     0.1711280
units angstrom
no_reorient  #important for SAPT in psi4, default
symmetry c1  #important for SAPT in psi4, default
}

set PROPERTIES_ORIGIN ["COM"]
properties('MP2/aug-cc-pvtz', properties = ['dipole'])
--------------------------------------------------------------------------

    Molecular point group: c1
  Charge       = 0
  Multiplicity = 1
  Basis Set: AUG-CC-PVTZ
    Blend: AUG-CC-PVTZ
  Basis Set: (AUG-CC-PVTZ AUX)
    Blend: AUG-CC-PVTZ-JKFIT

    Orbital Energies [Eh]
    ---------------------

    Doubly Occupied:

       1A    -15.566475     2A    -15.545789     3A    -11.288625
       4A    -11.279558     5A    -11.271555     6A    -11.262641
       7A    -11.241564     8A    -11.241412     9A    -11.235748
      10A    -11.233377    11A    -11.231648    12A    -11.227746
      13A    -11.224526    14A    -11.220050    15A     -1.261020
      16A     -1.211460    17A     -1.129712    18A     -1.087899
      19A     -1.062035    20A     -1.017526    21A     -0.990275
      22A     -0.916938    23A     -0.871090    24A     -0.861707
      25A     -0.818495    26A     -0.780876    27A     -0.708080
      28A     -0.689308    29A     -0.681465    30A     -0.661269
      31A     -0.648235    32A     -0.613981    33A     -0.599716
      34A     -0.590661    35A     -0.579803    36A     -0.574080
      37A     -0.570812    38A     -0.548315    39A     -0.532429
      40A     -0.530005    41A     -0.513243    42A     -0.490062
      43A     -0.488368    44A     -0.432977    45A     -0.419179
      46A     -0.387361    47A     -0.365406    48A     -0.314106
      49A     -0.282063

  @DF-RHF Final Energy:  -570.49952692718466

   => Energetics <=

    Nuclear Repulsion Energy =            812.0821055059824403
    One-Electron Energy =               -2384.5619238865351690
    Two-Electron Energy =                1001.9802914533681815
    Total Energy =                       -570.4995269271846610
  Basis Set: (AUG-CC-PVTZ AUX)
    Blend: AUG-CC-PVTZ-RI
    Molecular point group: c1

    Geometry (in Angstrom), charge = 0, multiplicity = 1:

       Center              X                  Y                   Z               Mass
    ------------   -----------------  -----------------  -----------------  -----------------
         N            0.110694103339     2.508282862626    -0.392507478452    14.003074004430
         N           -1.870108896661     0.755267862626     0.621721521548    14.003074004430
         C            0.372334103339     0.142912562626     0.018894721548    12.000000000000
         C            0.926636103339     1.395939862626    -0.167036478452    12.000000000000
         C            2.636876103339    -0.863545137374     0.116898521548    12.000000000000
         C            1.247906103339    -0.992165137374     0.157859521548    12.000000000000
         C           -1.077180896661    -0.146311137374    -0.005457478452    12.000000000000
         C            2.323822103339     1.520607862626    -0.229378478452    12.000000000000
         C            3.161251103339     0.420485862626    -0.077449478452    12.000000000000
         C            3.539084103339    -2.048054137374     0.345775521548    12.000000000000
         C           -1.610506896661    -1.286783137374    -0.629126478452    12.000000000000
         C           -2.980358896661    -1.525671137374    -0.566152478452    12.000000000000
         C           -3.192331896661     0.517851862626     0.661078521548    12.000000000000
         C           -3.792720896661    -0.607937137374     0.099309521548    12.000000000000
         H            0.814048103339    -1.976141137374     0.335264521548     1.007825032230
         H            2.754778103339     2.510353862626    -0.377101478452     1.007825032230
         H            4.240416103339     0.562666862626    -0.122163478452     1.007825032230
         H            3.859383103339    -2.112046137374     1.391722521548     1.007825032230
         H            3.029609103339    -2.983710137374     0.097289521548     1.007825032230
         H            4.440277103339    -1.980665137374    -0.271330478452     1.007825032230
         H           -0.953615896661    -1.962294137374    -1.169279478452     1.007825032230
         H            0.585468103339     3.386580862626    -0.209565478452     1.007825032230
         H           -0.770219896661     2.443402862626     0.111694521548     1.007825032230
         H           -3.408745896661    -2.404181137374    -1.042937478452     1.007825032230
         H           -3.790946896661     1.269419862626     1.173505521548     1.007825032230
         H           -4.867384896661    -0.749829137374     0.169933521548     1.007825032230

  Basis Set: AUG-CC-PVTZ
    Blend: AUG-CC-PVTZ
  Basis Set: (AUG-CC-PVTZ AUX)
    Blend: AUG-CC-PVTZ-JKFIT
	 Reference Energy          =    -570.4995269271846610 [Eh]
	 Singles Energy            =      -0.0000000000000000 [Eh]
	 Same-Spin Energy          =      -0.6407644637453873 [Eh]
	 Opposite-Spin Energy      =      -1.9778950031502696 [Eh]
	 Correlation Energy        =      -2.6186594668956569 [Eh]
	 Total Energy              =    -573.1181863940803396 [Eh]

	 ================> DF-SCS-MP2 Energies <==================
	-----------------------------------------------------------
	 SCS Same-Spin Scale       =       0.3333333333333333 [-]
	 SCS Opposite-Spin Scale   =       1.2000000000000000 [-]
	 SCS Same-Spin Energy      =      -0.2135881545817958 [Eh]
	 SCS Opposite-Spin Energy  =      -2.3734740037803235 [Eh]
	 SCS Correlation Energy    =      -2.5870621583621194 [Eh]
	 SCS Total Energy          =    -573.0865890855467342 [Eh]
	-----------------------------------------------------------

  Dipole Moment: [D]
     X:    -1.0469      Y:    -1.0009      Z:     0.0755     Total:     1.4504

*** Psi4 exiting successfully. Buy a developer a beer!
