                               Psi4 1.4a3.dev225

  ==> Input File <==

--------------------------------------------------------------------------
#psi4
#
memory 32 gb

molecule  {
0 1
  N        0.0801310     2.5312230    -0.3913130
  N       -1.9006720     0.7782080     0.6229160
  C        0.3499640     0.1224320    -0.0065570
  C        0.8960730     1.4188800    -0.1658420
  C        2.5847251    -0.6982379     0.0935504
  C        1.2173430    -0.9692250     0.1590540
  C       -1.1077440    -0.1233710    -0.0042630
  C        2.2932590     1.5435480    -0.2281840
  C        3.1306880     0.4434260    -0.0762550
  C        3.5085210    -2.0251140     0.3469700
  C       -1.6410700    -1.2638430    -0.6279320
  C       -3.0109220    -1.5027310    -0.5649580
  C       -3.2228950     0.5407920     0.6622730
  C       -3.8232840    -0.5849970     0.1005040
  H        0.7834850    -1.9532010     0.3364590
  H        2.7242150     2.5332940    -0.3759070
  H        4.2098530     0.5856070    -0.1209690
  H        3.8288200    -2.0891060     1.3929170
  H        2.9990460    -2.9607700     0.0984840
  H        4.4097140    -1.9577250    -0.2701360
  H       -0.9841790    -1.9393540    -1.1680850
  H        0.5549050     3.4095210    -0.2083710
  H       -0.8007830     2.4663430     0.1128890
  H       -3.4393090    -2.3812410    -1.0417430
  H       -3.8215100     1.2923600     1.1747000
  H       -4.8979480    -0.7268890     0.1711280
units angstrom
no_reorient  #important for SAPT in psi4, default
symmetry c1  #important for SAPT in psi4, default
}

set PROPERTIES_ORIGIN ["COM"]
properties('MP2/aug-cc-pvtz', properties = ['dipole'])
--------------------------------------------------------------------------

    Molecular point group: c1
  Charge       = 0
  Multiplicity = 1
  Basis Set: AUG-CC-PVTZ
    Blend: AUG-CC-PVTZ
  Basis Set: (AUG-CC-PVTZ AUX)
    Blend: AUG-CC-PVTZ-JKFIT

    Orbital Energies [Eh]
    ---------------------

    Doubly Occupied:

       1A    -15.569189     2A    -15.545440     3A    -11.289594
       4A    -11.281601     5A    -11.272619     6A    -11.263950
       7A    -11.243391     8A    -11.242793     9A    -11.236454
      10A    -11.234883    11A    -11.220592    12A    -11.220085
      13A    -11.219771    14A    -11.215555    15A     -1.262537
      16A     -1.210864    17A     -1.143118    18A     -1.089462
      19A     -1.068395    20A     -1.000327    21A     -0.998393
      22A     -0.910077    23A     -0.876662    24A     -0.863699
      25A     -0.821492    26A     -0.782867    27A     -0.707691
      28A     -0.692416    29A     -0.685467    30A     -0.661411
      31A     -0.649707    32A     -0.609058    33A     -0.604905
      34A     -0.594300    35A     -0.581560    36A     -0.575032
      37A     -0.563284    38A     -0.547365    39A     -0.533413
      40A     -0.528213    41A     -0.514082    42A     -0.501174
      43A     -0.455304    44A     -0.441439    45A     -0.420327
      46A     -0.389544    47A     -0.370518    48A     -0.315493
      49A     -0.285534

  @DF-RHF Final Energy:  -570.47667242187083

   => Energetics <=

    Nuclear Repulsion Energy =            813.5880850710822187
    One-Electron Energy =               -2387.5074160754807053
    Two-Electron Energy =                1003.4426585825275424
    Total Energy =                       -570.4766724218708305
  Basis Set: (AUG-CC-PVTZ AUX)
    Blend: AUG-CC-PVTZ-RI
    Molecular point group: c1

    Geometry (in Angstrom), charge = 0, multiplicity = 1:

       Center              X                  Y                   Z               Mass
    ------------   -----------------  -----------------  -----------------  -----------------
         N            0.111567209030     2.501833343409    -0.389170892692    14.003074004430
         N           -1.869235790970     0.748818343409     0.625058107308    14.003074004430
         C            0.381400209030     0.093042343409    -0.004414892692    12.000000000000
         C            0.927509209030     1.389490343409    -0.163699892692    12.000000000000
         C            2.616161309030    -0.727627556591     0.095692507308    12.000000000000
         C            1.248779209030    -0.998614656591     0.161196107308    12.000000000000
         C           -1.076307790970    -0.152760656591    -0.002120892692    12.000000000000
         C            2.324695209030     1.514158343409    -0.226041892692    12.000000000000
         C            3.162124209030     0.414036343409    -0.074112892692    12.000000000000
         C            3.539957209030    -2.054503656591     0.349112107308    12.000000000000
         C           -1.609633790970    -1.293232656591    -0.625789892692    12.000000000000
         C           -2.979485790970    -1.532120656591    -0.562815892692    12.000000000000
         C           -3.191458790970     0.511402343409     0.664415107308    12.000000000000
         C           -3.791847790970    -0.614386656591     0.102646107308    12.000000000000
         H            0.814921209030    -1.982590656591     0.338601107308     1.007825032230
         H            2.755651209030     2.503904343409    -0.373764892692     1.007825032230
         H            4.241289209030     0.556217343409    -0.118826892692     1.007825032230
         H            3.860256209030    -2.118495656591     1.395059107308     1.007825032230
         H            3.030482209030    -2.990159656591     0.100626107308     1.007825032230
         H            4.441150209030    -1.987114656591    -0.267993892692     1.007825032230
         H           -0.952742790970    -1.968743656591    -1.165942892692     1.007825032230
         H            0.586341209030     3.380131343409    -0.206228892692     1.007825032230
         H           -0.769346790970     2.436953343409     0.115031107308     1.007825032230
         H           -3.407872790970    -2.410630656591    -1.039600892692     1.007825032230
         H           -3.790073790970     1.262970343409     1.176842107308     1.007825032230
         H           -4.866511790970    -0.756278656591     0.173270107308     1.007825032230

  Basis Set: AUG-CC-PVTZ
    Blend: AUG-CC-PVTZ
  Basis Set: (AUG-CC-PVTZ AUX)
    Blend: AUG-CC-PVTZ-JKFIT
	 Reference Energy          =    -570.4766724218708305 [Eh]
	 Singles Energy            =      -0.0000000000000000 [Eh]
	 Same-Spin Energy          =      -0.6405454265313886 [Eh]
	 Opposite-Spin Energy      =      -1.9776552717297653 [Eh]
	 Correlation Energy        =      -2.6182006982611536 [Eh]
	 Total Energy              =    -573.0948731201319788 [Eh]

	 ================> DF-SCS-MP2 Energies <==================
	-----------------------------------------------------------
	 SCS Same-Spin Scale       =       0.3333333333333333 [-]
	 SCS Opposite-Spin Scale   =       1.2000000000000000 [-]
	 SCS Same-Spin Energy      =      -0.2135151421771295 [Eh]
	 SCS Opposite-Spin Energy  =      -2.3731863260757184 [Eh]
	 SCS Correlation Energy    =      -2.5867014682528477 [Eh]
	 SCS Total Energy          =    -573.0633738901236711 [Eh]
	-----------------------------------------------------------

  Dipole Moment: [D]
     X:    -1.2945      Y:    -0.8975      Z:     0.0609     Total:     1.5764

*** Psi4 exiting successfully. Buy a developer a beer!
