                               Psi4 1.4a3.dev225

  ==> Input File <==

--------------------------------------------------------------------------
#psi4
#
memory 32 gb

molecule  {
0 1
  N        0.0801310     2.5312230    -0.3913130
  N       -1.9006720     0.7782080     0.6229160
  C        0.3499640     0.1224320    -0.0065570
  C        0.8960730     1.4188800    -0.1658420
  C        2.6063130    -0.8406050     0.1180930
  C        1.0182808    -0.9876584     0.1649244
  C       -1.1077440    -0.1233710    -0.0042630
  C        2.2932590     1.5435480    -0.2281840
  C        3.1306880     0.4434260    -0.0762550
  C        3.5085210    -2.0251140     0.3469700
  C       -1.6410700    -1.2638430    -0.6279320
  C       -3.0109220    -1.5027310    -0.5649580
  C       -3.2228950     0.5407920     0.6622730
  C       -3.8232840    -0.5849970     0.1005040
  H        0.7834850    -1.9532010     0.3364590
  H        2.7242150     2.5332940    -0.3759070
  H        4.2098530     0.5856070    -0.1209690
  H        3.8288200    -2.0891060     1.3929170
  H        2.9990460    -2.9607700     0.0984840
  H        4.4097140    -1.9577250    -0.2701360
  H       -0.9841790    -1.9393540    -1.1680850
  H        0.5549050     3.4095210    -0.2083710
  H       -0.8007830     2.4663430     0.1128890
  H       -3.4393090    -2.3812410    -1.0417430
  H       -3.8215100     1.2923600     1.1747000
  H       -4.8979480    -0.7268890     0.1711280
units angstrom
no_reorient  #important for SAPT in psi4, default
symmetry c1  #important for SAPT in psi4, default
}

set PROPERTIES_ORIGIN ["COM"]
properties('MP2/aug-cc-pvtz', properties = ['dipole'])
--------------------------------------------------------------------------

    Molecular point group: c1
  Charge       = 0
  Multiplicity = 1
  Basis Set: AUG-CC-PVTZ
    Blend: AUG-CC-PVTZ
  Basis Set: (AUG-CC-PVTZ AUX)
    Blend: AUG-CC-PVTZ-JKFIT

    Orbital Energies [Eh]
    ---------------------

    Doubly Occupied:

       1A    -15.567615     2A    -15.547877     3A    -11.287452
       4A    -11.280562     5A    -11.275451     6A    -11.263217
       7A    -11.242147     8A    -11.241451     9A    -11.240189
      10A    -11.236581    11A    -11.231964    12A    -11.226542
      13A    -11.219665    14A    -11.218574    15A     -1.262479
      16A     -1.210516    17A     -1.127464    18A     -1.088562
      19A     -1.068436    20A     -1.007951    21A     -1.000676
      22A     -0.910743    23A     -0.868999    24A     -0.861077
      25A     -0.819756    26A     -0.778409    27A     -0.714474
      28A     -0.694472    29A     -0.684437    30A     -0.661383
      31A     -0.645952    32A     -0.618166    33A     -0.603404
      34A     -0.592006    35A     -0.586956    36A     -0.572540
      37A     -0.567122    38A     -0.550852    39A     -0.537853
      40A     -0.526268    41A     -0.513391    42A     -0.500890
      43A     -0.456581    44A     -0.429078    45A     -0.416731
      46A     -0.389094    47A     -0.371823    48A     -0.321751
      49A     -0.266904

  @DF-RHF Final Energy:  -570.45763092311654

   => Energetics <=

    Nuclear Repulsion Energy =            812.1114199933031159
    One-Electron Energy =               -2384.5251365387721307
    Two-Electron Energy =                1001.9560856223524752
    Total Energy =                       -570.4576309231165396
  Basis Set: (AUG-CC-PVTZ AUX)
    Blend: AUG-CC-PVTZ-RI
    Molecular point group: c1

    Geometry (in Angstrom), charge = 0, multiplicity = 1:

       Center              X                  Y                   Z               Mass
    ------------   -----------------  -----------------  -----------------  -----------------
         N            0.123135329835     2.512314633429    -0.391153271312    14.003074004430
         N           -1.857667670165     0.759299633429     0.623075728688    14.003074004430
         C            0.392968329835     0.103523633429    -0.006397271312    12.000000000000
         C            0.939077329835     1.399971633429    -0.165682271312    12.000000000000
         C            2.649317329835    -0.859513366571     0.118252728688    12.000000000000
         C            1.061285129835    -1.006566766571     0.165084128688    12.000000000000
         C           -1.064739670165    -0.142279366571    -0.004103271312    12.000000000000
         C            2.336263329835     1.524639633429    -0.228024271312    12.000000000000
         C            3.173692329835     0.424517633429    -0.076095271312    12.000000000000
         C            3.551525329835    -2.044022366571     0.347129728688    12.000000000000
         C           -1.598065670165    -1.282751366571    -0.627772271312    12.000000000000
         C           -2.967917670165    -1.521639366571    -0.564798271312    12.000000000000
         C           -3.179890670165     0.521883633429     0.662432728688    12.000000000000
         C           -3.780279670165    -0.603905366571     0.100663728688    12.000000000000
         H            0.826489329835    -1.972109366571     0.336618728688     1.007825032230
         H            2.767219329835     2.514385633429    -0.375747271312     1.007825032230
         H            4.252857329835     0.566698633429    -0.120809271312     1.007825032230
         H            3.871824329835    -2.108014366571     1.393076728688     1.007825032230
         H            3.042050329835    -2.979678366571     0.098643728688     1.007825032230
         H            4.452718329835    -1.976633366571    -0.269976271312     1.007825032230
         H           -0.941174670165    -1.958262366571    -1.167925271312     1.007825032230
         H            0.597909329835     3.390612633429    -0.208211271312     1.007825032230
         H           -0.757778670165     2.447434633429     0.113048728688     1.007825032230
         H           -3.396304670165    -2.400149366571    -1.041583271312     1.007825032230
         H           -3.778505670165     1.273451633429     1.174859728688     1.007825032230
         H           -4.854943670165    -0.745797366571     0.171287728688     1.007825032230

  Basis Set: AUG-CC-PVTZ
    Blend: AUG-CC-PVTZ
  Basis Set: (AUG-CC-PVTZ AUX)
    Blend: AUG-CC-PVTZ-JKFIT
	 Reference Energy          =    -570.4576309231165396 [Eh]
	 Singles Energy            =      -0.0000000000000000 [Eh]
	 Same-Spin Energy          =      -0.6409751906828981 [Eh]
	 Opposite-Spin Energy      =      -1.9805597889487996 [Eh]
	 Correlation Energy        =      -2.6215349796316976 [Eh]
	 Total Energy              =    -573.0791659027482865 [Eh]

	 ================> DF-SCS-MP2 Energies <==================
	-----------------------------------------------------------
	 SCS Same-Spin Scale       =       0.3333333333333333 [-]
	 SCS Opposite-Spin Scale   =       1.2000000000000000 [-]
	 SCS Same-Spin Energy      =      -0.2136583968942994 [Eh]
	 SCS Opposite-Spin Energy  =      -2.3766717467385594 [Eh]
	 SCS Correlation Energy    =      -2.5903301436328587 [Eh]
	 SCS Total Energy          =    -573.0479610667493944 [Eh]
	-----------------------------------------------------------

  Dipole Moment: [D]
     X:    -1.1506      Y:    -1.0442      Z:     0.1076     Total:     1.5574

*** Psi4 exiting successfully. Buy a developer a beer!
