                               Psi4 1.4a3.dev225

  ==> Input File <==

--------------------------------------------------------------------------
#psi4
#
memory 32 gb

molecule  {
0 1
  N        0.0801310     2.5312230    -0.3913130
  N       -1.9006720     0.7782080     0.6229160
  C        0.3499640     0.1224320    -0.0065570
  C        0.8960730     1.4188800    -0.1658420
  C        2.6063130    -0.8406050     0.1180930
  C        1.2173430    -0.9692250     0.1590540
  C       -1.1077440    -0.1233710    -0.0042630
  C        2.2932590     1.5435480    -0.2281840
  C        3.1306880     0.4434260    -0.0762550
  C        3.5085210    -2.0251140     0.3469700
  C       -1.6410700    -1.2638430    -0.6279320
  C       -3.0109220    -1.5027310    -0.5649580
  C       -3.2228950     0.5407920     0.6622730
  C       -3.8232840    -0.5849970     0.1005040
  H        0.8630982    -1.7726408     0.3039051
  H        2.7242150     2.5332940    -0.3759070
  H        4.2098530     0.5856070    -0.1209690
  H        3.8288200    -2.0891060     1.3929170
  H        2.9990460    -2.9607700     0.0984840
  H        4.4097140    -1.9577250    -0.2701360
  H       -0.9841790    -1.9393540    -1.1680850
  H        0.5549050     3.4095210    -0.2083710
  H       -0.8007830     2.4663430     0.1128890
  H       -3.4393090    -2.3812410    -1.0417430
  H       -3.8215100     1.2923600     1.1747000
  H       -4.8979480    -0.7268890     0.1711280
units angstrom
no_reorient  #important for SAPT in psi4, default
symmetry c1  #important for SAPT in psi4, default
}

set PROPERTIES_ORIGIN ["COM"]
properties('MP2/aug-cc-pvtz', properties = ['dipole'])
--------------------------------------------------------------------------

    Molecular point group: c1
  Charge       = 0
  Multiplicity = 1
  Basis Set: AUG-CC-PVTZ
    Blend: AUG-CC-PVTZ
  Basis Set: (AUG-CC-PVTZ AUX)
    Blend: AUG-CC-PVTZ-JKFIT

    Orbital Energies [Eh]
    ---------------------

    Doubly Occupied:

       1A    -15.567590     2A    -15.547012     3A    -11.288744
       4A    -11.280530     5A    -11.274078     6A    -11.262806
       7A    -11.241822     8A    -11.241297     9A    -11.231274
      10A    -11.231225    11A    -11.225334    12A    -11.222188
      13A    -11.219675    14A    -11.208741    15A     -1.261140
      16A     -1.210009    17A     -1.134087    18A     -1.088118
      19A     -1.063356    20A     -1.018630    21A     -0.996523
      22A     -0.919552    23A     -0.873981    24A     -0.862318
      25A     -0.826176    26A     -0.784710    27A     -0.710746
      28A     -0.697212    29A     -0.689299    30A     -0.660721
      31A     -0.651676    32A     -0.616406    33A     -0.603356
      34A     -0.592507    35A     -0.588368    36A     -0.573620
      37A     -0.570060    38A     -0.549521    39A     -0.535817
      40A     -0.529335    41A     -0.512532    42A     -0.494111
      43A     -0.487953    44A     -0.434382    45A     -0.418849
      46A     -0.387726    47A     -0.366658    48A     -0.316158
      49A     -0.277647

  @DF-RHF Final Energy:  -570.46821792999265

   => Energetics <=

    Nuclear Repulsion Energy =            813.1622373850942722
    One-Electron Energy =               -2386.5697538526264907
    Two-Electron Energy =                1002.9392985375396847
    Total Energy =                       -570.4682179299926474
  Basis Set: (AUG-CC-PVTZ AUX)
    Blend: AUG-CC-PVTZ-RI
    Molecular point group: c1

    Geometry (in Angstrom), charge = 0, multiplicity = 1:

       Center              X                  Y                   Z               Mass
    ------------   -----------------  -----------------  -----------------  -----------------
         N            0.109724238434     2.510124661765    -0.390592416298    14.003074004430
         N           -1.871078761566     0.757109661765     0.623636583702    14.003074004430
         C            0.379557238434     0.101333661765    -0.005836416298    12.000000000000
         C            0.925666238434     1.397781661765    -0.165121416298    12.000000000000
         C            2.635906238434    -0.861703338235     0.118813583702    12.000000000000
         C            1.246936238434    -0.990323338235     0.159774583702    12.000000000000
         C           -1.078150761566    -0.144469338235    -0.003542416298    12.000000000000
         C            2.322852238434     1.522449661765    -0.227463416298    12.000000000000
         C            3.160281238434     0.422327661765    -0.075534416298    12.000000000000
         C            3.538114238434    -2.046212338235     0.347690583702    12.000000000000
         C           -1.611476761566    -1.284941338235    -0.627211416298    12.000000000000
         C           -2.981328761566    -1.523829338235    -0.564237416298    12.000000000000
         C           -3.193301761566     0.519693661765     0.662993583702    12.000000000000
         C           -3.793690761566    -0.606095338235     0.101224583702    12.000000000000
         H            0.892691438434    -1.793739138235     0.304625683702     1.007825032230
         H            2.753808238434     2.512195661765    -0.375186416298     1.007825032230
         H            4.239446238434     0.564508661765    -0.120248416298     1.007825032230
         H            3.858413238434    -2.110204338235     1.393637583702     1.007825032230
         H            3.028639238434    -2.981868338235     0.099204583702     1.007825032230
         H            4.439307238434    -1.978823338235    -0.269415416298     1.007825032230
         H           -0.954585761566    -1.960452338235    -1.167364416298     1.007825032230
         H            0.584498238434     3.388422661765    -0.207650416298     1.007825032230
         H           -0.771189761566     2.445244661765     0.113609583702     1.007825032230
         H           -3.409715761566    -2.402339338235    -1.041022416298     1.007825032230
         H           -3.791916761566     1.271261661765     1.175420583702     1.007825032230
         H           -4.868354761566    -0.747987338235     0.171848583702     1.007825032230

  Basis Set: AUG-CC-PVTZ
    Blend: AUG-CC-PVTZ
  Basis Set: (AUG-CC-PVTZ AUX)
    Blend: AUG-CC-PVTZ-JKFIT
	 Reference Energy          =    -570.4682179299926474 [Eh]
	 Singles Energy            =      -0.0000000000000000 [Eh]
	 Same-Spin Energy          =      -0.6403384657453651 [Eh]
	 Opposite-Spin Energy      =      -1.9767484194555962 [Eh]
	 Correlation Energy        =      -2.6170868852009614 [Eh]
	 Total Energy              =    -573.0853048151935809 [Eh]

	 ================> DF-SCS-MP2 Energies <==================
	-----------------------------------------------------------
	 SCS Same-Spin Scale       =       0.3333333333333333 [-]
	 SCS Opposite-Spin Scale   =       1.2000000000000000 [-]
	 SCS Same-Spin Energy      =      -0.2134461552484550 [Eh]
	 SCS Opposite-Spin Energy  =      -2.3720981033467154 [Eh]
	 SCS Correlation Energy    =      -2.5855442585951707 [Eh]
	 SCS Total Energy          =    -573.0537621885878252 [Eh]
	-----------------------------------------------------------

  Dipole Moment: [D]
     X:    -1.1252      Y:    -1.0149      Z:     0.0868     Total:     1.5178

*** Psi4 exiting successfully. Buy a developer a beer!
