                               Psi4 1.4a3.dev225

  ==> Input File <==

--------------------------------------------------------------------------
#psi4
#
memory 32 gb

molecule  {
0 1
  N        0.0801310     2.5312230    -0.3913130
  N       -1.9006720     0.7782080     0.6229160
  C        0.3499640     0.1224320    -0.0065570
  C        0.8960730     1.4188800    -0.1658420
  C        2.5988843    -0.8859075    -0.0327606
  C        1.2173430    -0.9692250     0.1590540
  C       -1.1077440    -0.1233710    -0.0042630
  C        2.2932590     1.5435480    -0.2281840
  C        3.1306880     0.4434260    -0.0762550
  C        3.5085210    -2.0251140     0.3469700
  C       -1.6410700    -1.2638430    -0.6279320
  C       -3.0109220    -1.5027310    -0.5649580
  C       -3.2228950     0.5407920     0.6622730
  C       -3.8232840    -0.5849970     0.1005040
  H        0.7834850    -1.9532010     0.3364590
  H        2.7242150     2.5332940    -0.3759070
  H        4.2098530     0.5856070    -0.1209690
  H        3.8288200    -2.0891060     1.3929170
  H        2.9990460    -2.9607700     0.0984840
  H        4.4097140    -1.9577250    -0.2701360
  H       -0.9841790    -1.9393540    -1.1680850
  H        0.5549050     3.4095210    -0.2083710
  H       -0.8007830     2.4663430     0.1128890
  H       -3.4393090    -2.3812410    -1.0417430
  H       -3.8215100     1.2923600     1.1747000
  H       -4.8979480    -0.7268890     0.1711280
units angstrom
no_reorient  #important for SAPT in psi4, default
symmetry c1  #important for SAPT in psi4, default
}

set PROPERTIES_ORIGIN ["COM"]
properties('MP2/aug-cc-pvtz', properties = ['dipole'])
--------------------------------------------------------------------------

    Molecular point group: c1
  Charge       = 0
  Multiplicity = 1
  Basis Set: AUG-CC-PVTZ
    Blend: AUG-CC-PVTZ
  Basis Set: (AUG-CC-PVTZ AUX)
    Blend: AUG-CC-PVTZ-JKFIT

    Orbital Energies [Eh]
    ---------------------

    Doubly Occupied:

       1A    -15.567601     2A    -15.550051     3A    -11.288499
       4A    -11.280286     5A    -11.278484     6A    -11.262417
       7A    -11.241778     8A    -11.240846     9A    -11.237826
      10A    -11.234690    11A    -11.231710    12A    -11.228466
      13A    -11.223489    14A    -11.218726    15A     -1.261127
      16A     -1.212224    17A     -1.129663    18A     -1.087903
      19A     -1.061967    20A     -1.016971    21A     -0.991787
      22A     -0.914385    23A     -0.869650    24A     -0.862058
      25A     -0.813302    26A     -0.783595    27A     -0.709401
      28A     -0.689382    29A     -0.681887    30A     -0.660573
      31A     -0.650557    32A     -0.614104    33A     -0.600503
      34A     -0.588407    35A     -0.583410    36A     -0.573961
      37A     -0.566863    38A     -0.549325    39A     -0.531552
      40A     -0.528120    41A     -0.511436    42A     -0.495196
      43A     -0.480280    44A     -0.432502    45A     -0.419199
      46A     -0.387581    47A     -0.365354    48A     -0.317868
      49A     -0.278798

  @DF-RHF Final Energy:  -570.49097899250080

   => Energetics <=

    Nuclear Repulsion Energy =            811.5285268501064593
    One-Electron Energy =               -2383.4274830953581841
    Two-Electron Energy =                1001.4079772527508112
    Total Energy =                       -570.4909789925007999
  Basis Set: (AUG-CC-PVTZ AUX)
    Blend: AUG-CC-PVTZ-RI
    Molecular point group: c1

    Geometry (in Angstrom), charge = 0, multiplicity = 1:

       Center              X                  Y                   Z               Mass
    ------------   -----------------  -----------------  -----------------  -----------------
         N            0.110644284775     2.514066013740    -0.380937695508    14.003074004430
         N           -1.870158715225     0.761051013740     0.633291304492    14.003074004430
         C            0.380477284775     0.105275013740     0.003818304492    12.000000000000
         C            0.926586284775     1.401723013740    -0.155466695508    12.000000000000
         C            2.629397584775    -0.903064486260    -0.022385295508    12.000000000000
         C            1.247856284775    -0.986381986260     0.169429304492    12.000000000000
         C           -1.077230715225    -0.140527986260     0.006112304492    12.000000000000
         C            2.323772284775     1.526391013740    -0.217808695508    12.000000000000
         C            3.161201284775     0.426269013740    -0.065879695508    12.000000000000
         C            3.539034284775    -2.042270986260     0.357345304492    12.000000000000
         C           -1.610556715225    -1.280999986260    -0.617556695508    12.000000000000
         C           -2.980408715225    -1.519887986260    -0.554582695508    12.000000000000
         C           -3.192381715225     0.523635013740     0.672648304492    12.000000000000
         C           -3.792770715225    -0.602153986260     0.110879304492    12.000000000000
         H            0.813998284775    -1.970357986260     0.346834304492     1.007825032230
         H            2.754728284775     2.516137013740    -0.365531695508     1.007825032230
         H            4.240366284775     0.568450013740    -0.110593695508     1.007825032230
         H            3.859333284775    -2.106262986260     1.403292304492     1.007825032230
         H            3.029559284775    -2.977926986260     0.108859304492     1.007825032230
         H            4.440227284775    -1.974881986260    -0.259760695508     1.007825032230
         H           -0.953665715225    -1.956510986260    -1.157709695508     1.007825032230
         H            0.585418284775     3.392364013740    -0.197995695508     1.007825032230
         H           -0.770269715225     2.449186013740     0.123264304492     1.007825032230
         H           -3.408795715225    -2.398397986260    -1.031367695508     1.007825032230
         H           -3.790996715225     1.275203013740     1.185075304492     1.007825032230
         H           -4.867434715225    -0.744045986260     0.181503304492     1.007825032230

  Basis Set: AUG-CC-PVTZ
    Blend: AUG-CC-PVTZ
  Basis Set: (AUG-CC-PVTZ AUX)
    Blend: AUG-CC-PVTZ-JKFIT
	 Reference Energy          =    -570.4909789925007999 [Eh]
	 Singles Energy            =      -0.0000000000000000 [Eh]
	 Same-Spin Energy          =      -0.6412251521535370 [Eh]
	 Opposite-Spin Energy      =      -1.9790694949761145 [Eh]
	 Correlation Energy        =      -2.6202946471296515 [Eh]
	 Total Energy              =    -573.1112736396304399 [Eh]

	 ================> DF-SCS-MP2 Energies <==================
	-----------------------------------------------------------
	 SCS Same-Spin Scale       =       0.3333333333333333 [-]
	 SCS Opposite-Spin Scale   =       1.2000000000000000 [-]
	 SCS Same-Spin Energy      =      -0.2137417173845123 [Eh]
	 SCS Opposite-Spin Energy  =      -2.3748833939713374 [Eh]
	 SCS Correlation Energy    =      -2.5886251113558498 [Eh]
	 SCS Total Energy          =    -573.0796041038566955 [Eh]
	-----------------------------------------------------------

  Dipole Moment: [D]
     X:    -1.2064      Y:    -0.8349      Z:     0.1379     Total:     1.4736

*** Psi4 exiting successfully. Buy a developer a beer!
