                               Psi4 1.4a3.dev225

  ==> Input File <==

--------------------------------------------------------------------------
#psi4
#
memory 32 gb

molecule  {
0 1
  N        0.0801310     2.5312230    -0.3913130
  N       -1.8909959     0.6979102     0.5753954
  C        0.3499640     0.1224320    -0.0065570
  C        0.8960730     1.4188800    -0.1658420
  C        2.6063130    -0.8406050     0.1180930
  C        1.2173430    -0.9692250     0.1590540
  C       -1.1077440    -0.1233710    -0.0042630
  C        2.2932590     1.5435480    -0.2281840
  C        3.1306880     0.4434260    -0.0762550
  C        3.5085210    -2.0251140     0.3469700
  C       -1.6410700    -1.2638430    -0.6279320
  C       -3.0109220    -1.5027310    -0.5649580
  C       -3.2228950     0.5407920     0.6622730
  C       -3.8232840    -0.5849970     0.1005040
  H        0.7834850    -1.9532010     0.3364590
  H        2.7242150     2.5332940    -0.3759070
  H        4.2098530     0.5856070    -0.1209690
  H        3.8288200    -2.0891060     1.3929170
  H        2.9990460    -2.9607700     0.0984840
  H        4.4097140    -1.9577250    -0.2701360
  H       -0.9841790    -1.9393540    -1.1680850
  H        0.5549050     3.4095210    -0.2083710
  H       -0.8007830     2.4663430     0.1128890
  H       -3.4393090    -2.3812410    -1.0417430
  H       -3.8215100     1.2923600     1.1747000
  H       -4.8979480    -0.7268890     0.1711280
units angstrom
no_reorient  #important for SAPT in psi4, default
symmetry c1  #important for SAPT in psi4, default
}

set PROPERTIES_ORIGIN ["COM"]
properties('MP2/aug-cc-pvtz', properties = ['dipole'])
--------------------------------------------------------------------------

    Molecular point group: c1
  Charge       = 0
  Multiplicity = 1
  Basis Set: AUG-CC-PVTZ
    Blend: AUG-CC-PVTZ
  Basis Set: (AUG-CC-PVTZ AUX)
    Blend: AUG-CC-PVTZ-JKFIT

    Orbital Energies [Eh]
    ---------------------

    Doubly Occupied:

       1A    -15.555444     2A    -15.548681     3A    -11.279985
       4A    -11.278450     5A    -11.274712     6A    -11.258462
       7A    -11.241703     8A    -11.238717     9A    -11.232476
      10A    -11.231858    11A    -11.230875    12A    -11.226265
      13A    -11.222416    14A    -11.219150    15A     -1.280008
      16A     -1.211582    17A     -1.131136    18A     -1.087530
      19A     -1.062916    20A     -1.015864    21A     -0.995058
      22A     -0.915175    23A     -0.873152    24A     -0.862116
      25A     -0.817389    26A     -0.784012    27A     -0.712308
      28A     -0.690150    29A     -0.681792    30A     -0.662287
      31A     -0.651862    32A     -0.616122    33A     -0.600425
      34A     -0.587960    35A     -0.581950    36A     -0.575065
      37A     -0.570191    38A     -0.556230    39A     -0.532844
      40A     -0.530223    41A     -0.514733    42A     -0.495208
      43A     -0.486476    44A     -0.434213    45A     -0.402690
      46A     -0.391448    47A     -0.362177    48A     -0.317628
      49A     -0.279125

  @DF-RHF Final Energy:  -570.49884097575830

   => Energetics <=

    Nuclear Repulsion Energy =            814.1000400491950586
    One-Electron Energy =               -2388.5812871191915292
    Two-Electron Energy =                1003.9824060942381720
    Total Energy =                       -570.4988409757582986
  Basis Set: (AUG-CC-PVTZ AUX)
    Blend: AUG-CC-PVTZ-RI
    Molecular point group: c1

    Geometry (in Angstrom), charge = 0, multiplicity = 1:

       Center              X                  Y                   Z               Mass
    ------------   -----------------  -----------------  -----------------  -----------------
         N            0.109424081161     2.517220744229    -0.387156100834    14.003074004430
         N           -1.861702818839     0.683907944229     0.579552299166    14.003074004430
         C            0.379257081161     0.108429744229    -0.002400100834    12.000000000000
         C            0.925366081161     1.404877744229    -0.161685100834    12.000000000000
         C            2.635606081161    -0.854607255771     0.122249899166    12.000000000000
         C            1.246636081161    -0.983227255771     0.163210899166    12.000000000000
         C           -1.078450918839    -0.137373255771    -0.000106100834    12.000000000000
         C            2.322552081161     1.529545744229    -0.224027100834    12.000000000000
         C            3.159981081161     0.429423744229    -0.072098100834    12.000000000000
         C            3.537814081161    -2.039116255771     0.351126899166    12.000000000000
         C           -1.611776918839    -1.277845255771    -0.623775100834    12.000000000000
         C           -2.981628918839    -1.516733255771    -0.560801100834    12.000000000000
         C           -3.193601918839     0.526789744229     0.666429899166    12.000000000000
         C           -3.793990918839    -0.598999255771     0.104660899166    12.000000000000
         H            0.812778081161    -1.967203255771     0.340615899166     1.007825032230
         H            2.753508081161     2.519291744229    -0.371750100834     1.007825032230
         H            4.239146081161     0.571604744229    -0.116812100834     1.007825032230
         H            3.858113081161    -2.103108255771     1.397073899166     1.007825032230
         H            3.028339081161    -2.974772255771     0.102640899166     1.007825032230
         H            4.439007081161    -1.971727255771    -0.265979100834     1.007825032230
         H           -0.954885918839    -1.953356255771    -1.163928100834     1.007825032230
         H            0.584198081161     3.395518744229    -0.204214100834     1.007825032230
         H           -0.771489918839     2.452340744229     0.117045899166     1.007825032230
         H           -3.410015918839    -2.395243255771    -1.037586100834     1.007825032230
         H           -3.792216918839     1.278357744229     1.178856899166     1.007825032230
         H           -4.868654918839    -0.740891255771     0.175284899166     1.007825032230

  Basis Set: AUG-CC-PVTZ
    Blend: AUG-CC-PVTZ
  Basis Set: (AUG-CC-PVTZ AUX)
    Blend: AUG-CC-PVTZ-JKFIT
	 Reference Energy          =    -570.4988409757582986 [Eh]
	 Singles Energy            =      -0.0000000000000000 [Eh]
	 Same-Spin Energy          =      -0.6400425380843513 [Eh]
	 Opposite-Spin Energy      =      -1.9754669866306238 [Eh]
	 Correlation Energy        =      -2.6155095247149749 [Eh]
	 Total Energy              =    -573.1143505004732788 [Eh]

	 ================> DF-SCS-MP2 Energies <==================
	-----------------------------------------------------------
	 SCS Same-Spin Scale       =       0.3333333333333333 [-]
	 SCS Opposite-Spin Scale   =       1.2000000000000000 [-]
	 SCS Same-Spin Energy      =      -0.2133475126947837 [Eh]
	 SCS Opposite-Spin Energy  =      -2.3705603839567484 [Eh]
	 SCS Correlation Energy    =      -2.5839078966515321 [Eh]
	 SCS Total Energy          =    -573.0827488724098657 [Eh]
	-----------------------------------------------------------

  Dipole Moment: [D]
     X:    -1.1164      Y:    -0.7969      Z:     0.1731     Total:     1.3826

*** Psi4 exiting successfully. Buy a developer a beer!
