                               Psi4 1.4a3.dev225

  ==> Input File <==

--------------------------------------------------------------------------
#psi4
#
memory 32 gb

molecule  {
0 1
  N        0.0801310     2.5312230    -0.3913130
  N       -1.9006720     0.7782080     0.6229160
  C        0.3499640     0.1224320    -0.0065570
  C        0.8960730     1.4188800    -0.1658420
  C        2.6063130    -0.8406050     0.1180930
  C        1.2173430    -0.9692250     0.1590540
  C       -1.1077440    -0.1233710    -0.0042630
  C        2.2932590     1.5435480    -0.2281840
  C        3.1306880     0.4434260    -0.0762550
  C        3.5085210    -2.0251140     0.3469700
  C       -1.6410700    -1.2638430    -0.6279320
  C       -3.0109220    -1.5027310    -0.5649580
  C       -3.2228950     0.5407920     0.6622730
  C       -3.8232840    -0.5849970     0.1005040
  H        0.7834850    -1.9532010     0.3364590
  H        2.7242150     2.5332940    -0.3759070
  H        4.2098530     0.5856070    -0.1209690
  H        3.8580507    -2.0949460     1.4883710
  H        2.9990460    -2.9607700     0.0984840
  H        4.4097140    -1.9577250    -0.2701360
  H       -0.9841790    -1.9393540    -1.1680850
  H        0.5549050     3.4095210    -0.2083710
  H       -0.8007830     2.4663430     0.1128890
  H       -3.4393090    -2.3812410    -1.0417430
  H       -3.8215100     1.2923600     1.1747000
  H       -4.8979480    -0.7268890     0.1711280
units angstrom
no_reorient  #important for SAPT in psi4, default
symmetry c1  #important for SAPT in psi4, default
}

set PROPERTIES_ORIGIN ["COM"]
properties('MP2/aug-cc-pvtz', properties = ['dipole'])
--------------------------------------------------------------------------

    Molecular point group: c1
  Charge       = 0
  Multiplicity = 1
  Basis Set: AUG-CC-PVTZ
    Blend: AUG-CC-PVTZ
  Basis Set: (AUG-CC-PVTZ AUX)
    Blend: AUG-CC-PVTZ-JKFIT

    Orbital Energies [Eh]
    ---------------------

    Doubly Occupied:

       1A    -15.567781     2A    -15.548227     3A    -11.288953
       4A    -11.280447     5A    -11.276035     6A    -11.262620
       7A    -11.241824     8A    -11.241080     9A    -11.234067
      10A    -11.233164    11A    -11.232807    12A    -11.231264
      13A    -11.227347    14A    -11.223128    15A     -1.261268
      16A     -1.211119    17A     -1.131973    18A     -1.088063
      19A     -1.063125    20A     -1.014597    21A     -0.992570
      22A     -0.910538    23A     -0.870877    24A     -0.862227
      25A     -0.815106    26A     -0.782747    27A     -0.708786
      28A     -0.690200    29A     -0.681748    30A     -0.660688
      31A     -0.650367    32A     -0.613698    33A     -0.601118
      34A     -0.589316    35A     -0.582394    36A     -0.572753
      37A     -0.558861    38A     -0.544197    39A     -0.533016
      40A     -0.530074    41A     -0.512435    42A     -0.491979
      43A     -0.486278    44A     -0.434156    45A     -0.418925
      46A     -0.387765    47A     -0.366836    48A     -0.316795
      49A     -0.278557

  @DF-RHF Final Energy:  -570.49539041082096

   => Energetics <=

    Nuclear Repulsion Energy =            811.5891902476073483
    One-Electron Energy =               -2383.5613700619101110
    Two-Electron Energy =                1001.4767894034818028
    Total Energy =                       -570.4953904108209599
  Basis Set: (AUG-CC-PVTZ AUX)
    Blend: AUG-CC-PVTZ-RI
    Molecular point group: c1

    Geometry (in Angstrom), charge = 0, multiplicity = 1:

       Center              X                  Y                   Z               Mass
    ------------   -----------------  -----------------  -----------------  -----------------
         N            0.110000049034     2.511145078594    -0.391293174212    14.003074004430
         N           -1.870802950966     0.758130078594     0.622935825788    14.003074004430
         C            0.379833049034     0.102354078594    -0.006537174212    12.000000000000
         C            0.925942049034     1.398802078594    -0.165822174212    12.000000000000
         C            2.636182049034    -0.860682921406     0.118112825788    12.000000000000
         C            1.247212049034    -0.989302921406     0.159073825788    12.000000000000
         C           -1.077874950966    -0.143448921406    -0.004243174212    12.000000000000
         C            2.323128049034     1.523470078594    -0.228164174212    12.000000000000
         C            3.160557049034     0.423348078594    -0.076235174212    12.000000000000
         C            3.538390049034    -2.045191921406     0.346989825788    12.000000000000
         C           -1.611200950966    -1.283920921406    -0.627912174212    12.000000000000
         C           -2.981052950966    -1.522808921406    -0.564938174212    12.000000000000
         C           -3.193025950966     0.520714078594     0.662292825788    12.000000000000
         C           -3.793414950966    -0.605074921406     0.100523825788    12.000000000000
         H            0.813354049034    -1.973278921406     0.336478825788     1.007825032230
         H            2.754084049034     2.513216078594    -0.375887174212     1.007825032230
         H            4.239722049034     0.565529078594    -0.120949174212     1.007825032230
         H            3.887919749034    -2.115023921406     1.488390825788     1.007825032230
         H            3.028915049034    -2.980847921406     0.098503825788     1.007825032230
         H            4.439583049034    -1.977802921406    -0.270116174212     1.007825032230
         H           -0.954309950966    -1.959431921406    -1.168065174212     1.007825032230
         H            0.584774049034     3.389443078594    -0.208351174212     1.007825032230
         H           -0.770913950966     2.446265078594     0.112908825788     1.007825032230
         H           -3.409439950966    -2.401318921406    -1.041723174212     1.007825032230
         H           -3.791640950966     1.272282078594     1.174719825788     1.007825032230
         H           -4.868078950966    -0.746966921406     0.171147825788     1.007825032230

  Basis Set: AUG-CC-PVTZ
    Blend: AUG-CC-PVTZ
  Basis Set: (AUG-CC-PVTZ AUX)
    Blend: AUG-CC-PVTZ-JKFIT
	 Reference Energy          =    -570.4953904108209599 [Eh]
	 Singles Energy            =      -0.0000000000000000 [Eh]
	 Same-Spin Energy          =      -0.6408054522887793 [Eh]
	 Opposite-Spin Energy      =      -1.9783361464741533 [Eh]
	 Correlation Energy        =      -2.6191415987629325 [Eh]
	 Total Energy              =    -573.1145320095838542 [Eh]

	 ================> DF-SCS-MP2 Energies <==================
	-----------------------------------------------------------
	 SCS Same-Spin Scale       =       0.3333333333333333 [-]
	 SCS Opposite-Spin Scale   =       1.2000000000000000 [-]
	 SCS Same-Spin Energy      =      -0.2136018174295931 [Eh]
	 SCS Opposite-Spin Energy  =      -2.3740033757689840 [Eh]
	 SCS Correlation Energy    =      -2.5876051931985771 [Eh]
	 SCS Total Energy          =    -573.0829956040195157 [Eh]
	-----------------------------------------------------------

  Dipole Moment: [D]
     X:    -1.1509      Y:    -0.9212      Z:     0.0240     Total:     1.4744

*** Psi4 exiting successfully. Buy a developer a beer!
