                               Psi4 1.4a3.dev225

  ==> Input File <==

--------------------------------------------------------------------------
#psi4
#
memory 32 gb

molecule  {
0 1
  N        0.0801310     2.5312230    -0.3913130
  N       -1.9006720     0.7782080     0.6229160
  C        0.3499640     0.1224320    -0.0065570
  C        0.8960730     1.4188800    -0.1658420
  C        2.6063130    -0.8406050     0.1180930
  C        1.2173430    -0.9692250     0.1590540
  C       -1.1077440    -0.1233710    -0.0042630
  C        2.2932590     1.5435480    -0.2281840
  C        3.1306880     0.4434260    -0.0762550
  C        3.5085210    -2.0251140     0.3469700
  C       -1.6410700    -1.2638430    -0.6279320
  C       -3.0109220    -1.5027310    -0.5649580
  C       -3.2228950     0.5407920     0.6622730
  C       -3.8232840    -0.5849970     0.1005040
  H        0.7834850    -1.9532010     0.3364590
  H        2.7242150     2.5332940    -0.3759070
  H        4.2098530     0.5856070    -0.1209690
  H        3.7995893    -2.0832660     1.2974630
  H        2.9990460    -2.9607700     0.0984840
  H        4.4097140    -1.9577250    -0.2701360
  H       -0.9841790    -1.9393540    -1.1680850
  H        0.5549050     3.4095210    -0.2083710
  H       -0.8007830     2.4663430     0.1128890
  H       -3.4393090    -2.3812410    -1.0417430
  H       -3.8215100     1.2923600     1.1747000
  H       -4.8979480    -0.7268890     0.1711280
units angstrom
no_reorient  #important for SAPT in psi4, default
symmetry c1  #important for SAPT in psi4, default
}

set PROPERTIES_ORIGIN ["COM"]
properties('MP2/aug-cc-pvtz', properties = ['dipole'])
--------------------------------------------------------------------------

    Molecular point group: c1
  Charge       = 0
  Multiplicity = 1
  Basis Set: AUG-CC-PVTZ
    Blend: AUG-CC-PVTZ
  Basis Set: (AUG-CC-PVTZ AUX)
    Blend: AUG-CC-PVTZ-JKFIT

    Orbital Energies [Eh]
    ---------------------

    Doubly Occupied:

       1A    -15.567371     2A    -15.547394     3A    -11.288490
       4A    -11.280084     5A    -11.274973     6A    -11.262258
       7A    -11.241475     8A    -11.240671     9A    -11.233095
      10A    -11.232164    11A    -11.231927    12A    -11.226032
      13A    -11.222424    14A    -11.207155    15A     -1.260833
      16A     -1.210337    17A     -1.131690    18A     -1.087690
      19A     -1.063202    20A     -1.019054    21A     -0.992350
      22A     -0.922516    23A     -0.870326    24A     -0.862099
      25A     -0.814499    26A     -0.784549    27A     -0.709344
      28A     -0.689550    29A     -0.681275    30A     -0.660360
      31A     -0.650102    32A     -0.614285    33A     -0.600466
      34A     -0.590445    35A     -0.587200    36A     -0.580877
      37A     -0.571771    38A     -0.549217    39A     -0.531713
      40A     -0.528865    41A     -0.513275    42A     -0.493331
      43A     -0.485328    44A     -0.435750    45A     -0.418759
      46A     -0.387431    47A     -0.366460    48A     -0.316277
      49A     -0.278624

  @DF-RHF Final Energy:  -570.49576363591609

   => Energetics <=

    Nuclear Repulsion Energy =            812.4900646733267422
    One-Electron Energy =               -2385.3409316752613449
    Two-Electron Energy =                1002.3551033660185112
    Total Energy =                       -570.4957636359160915
  Basis Set: (AUG-CC-PVTZ AUX)
    Blend: AUG-CC-PVTZ-RI
    Molecular point group: c1

    Geometry (in Angstrom), charge = 0, multiplicity = 1:

       Center              X                  Y                   Z               Mass
    ------------   -----------------  -----------------  -----------------  -----------------
         N            0.110320086224     2.511081138380    -0.390248080183    14.003074004430
         N           -1.870482913776     0.758066138380     0.623980919817    14.003074004430
         C            0.380153086224     0.102290138380    -0.005492080183    12.000000000000
         C            0.926262086224     1.398738138380    -0.164777080183    12.000000000000
         C            2.636502086224    -0.860746861620     0.119157919817    12.000000000000
         C            1.247532086224    -0.989366861620     0.160118919817    12.000000000000
         C           -1.077554913776    -0.143512861620    -0.003198080183    12.000000000000
         C            2.323448086224     1.523406138380    -0.227119080183    12.000000000000
         C            3.160877086224     0.423284138380    -0.075190080183    12.000000000000
         C            3.538710086224    -2.045255861620     0.348034919817    12.000000000000
         C           -1.610880913776    -1.283984861620    -0.626867080183    12.000000000000
         C           -2.980732913776    -1.522872861620    -0.563893080183    12.000000000000
         C           -3.192705913776     0.520650138380     0.663337919817    12.000000000000
         C           -3.793094913776    -0.605138861620     0.101568919817    12.000000000000
         H            0.813674086224    -1.973342861620     0.337523919817     1.007825032230
         H            2.754404086224     2.513152138380    -0.374842080183     1.007825032230
         H            4.240042086224     0.565465138380    -0.119904080183     1.007825032230
         H            3.829778386224    -2.103407861620     1.298527919817     1.007825032230
         H            3.029235086224    -2.980911861620     0.099548919817     1.007825032230
         H            4.439903086224    -1.977866861620    -0.269071080183     1.007825032230
         H           -0.953989913776    -1.959495861620    -1.167020080183     1.007825032230
         H            0.585094086224     3.389379138380    -0.207306080183     1.007825032230
         H           -0.770593913776     2.446201138380     0.113953919817     1.007825032230
         H           -3.409119913776    -2.401382861620    -1.040678080183     1.007825032230
         H           -3.791320913776     1.272218138380     1.175764919817     1.007825032230
         H           -4.867758913776    -0.747030861620     0.172192919817     1.007825032230

  Basis Set: AUG-CC-PVTZ
    Blend: AUG-CC-PVTZ
  Basis Set: (AUG-CC-PVTZ AUX)
    Blend: AUG-CC-PVTZ-JKFIT
	 Reference Energy          =    -570.4957636359160915 [Eh]
	 Singles Energy            =      -0.0000000000000000 [Eh]
	 Same-Spin Energy          =      -0.6408801145269156 [Eh]
	 Opposite-Spin Energy      =      -1.9772435336985725 [Eh]
	 Correlation Energy        =      -2.6181236482254882 [Eh]
	 Total Energy              =    -573.1138872841415832 [Eh]

	 ================> DF-SCS-MP2 Energies <==================
	-----------------------------------------------------------
	 SCS Same-Spin Scale       =       0.3333333333333333 [-]
	 SCS Opposite-Spin Scale   =       1.2000000000000000 [-]
	 SCS Same-Spin Energy      =      -0.2136267048423052 [Eh]
	 SCS Opposite-Spin Energy  =      -2.3726922404382869 [Eh]
	 SCS Correlation Energy    =      -2.5863189452805919 [Eh]
	 SCS Total Energy          =    -573.0820825811966870 [Eh]
	-----------------------------------------------------------

  Dipole Moment: [D]
     X:    -1.0610      Y:    -0.9926      Z:     0.1131     Total:     1.4573

*** Psi4 exiting successfully. Buy a developer a beer!
