                               Psi4 1.4a3.dev225

  ==> Input File <==

--------------------------------------------------------------------------
#psi4
#
memory 32 gb

molecule  {
0 1
  N        0.0801310     2.5312230    -0.3913130
  N       -1.9006720     0.7782080     0.6229160
  C        0.3499640     0.1224320    -0.0065570
  C        0.8960730     1.4188800    -0.1658420
  C        2.6063130    -0.8406050     0.1180930
  C        1.2372492    -0.9673817     0.1584670
  C       -1.1077440    -0.1233710    -0.0042630
  C        2.2932590     1.5435480    -0.2281840
  C        3.1306880     0.4434260    -0.0762550
  C        3.5085210    -2.0251140     0.3469700
  C       -1.6410700    -1.2638430    -0.6279320
  C       -3.0109220    -1.5027310    -0.5649580
  C       -3.2228950     0.5407920     0.6622730
  C       -3.8232840    -0.5849970     0.1005040
  H        0.7834850    -1.9532010     0.3364590
  H        2.7242150     2.5332940    -0.3759070
  H        4.2098530     0.5856070    -0.1209690
  H        3.8288200    -2.0891060     1.3929170
  H        2.9990460    -2.9607700     0.0984840
  H        4.4097140    -1.9577250    -0.2701360
  H       -0.9841790    -1.9393540    -1.1680850
  H        0.5549050     3.4095210    -0.2083710
  H       -0.8007830     2.4663430     0.1128890
  H       -3.4393090    -2.3812410    -1.0417430
  H       -3.8215100     1.2923600     1.1747000
  H       -4.8979480    -0.7268890     0.1711280
units angstrom
no_reorient  #important for SAPT in psi4, default
symmetry c1  #important for SAPT in psi4, default
}

set PROPERTIES_ORIGIN ["COM"]
properties('MP2/aug-cc-pvtz', properties = ['dipole'])
--------------------------------------------------------------------------

    Molecular point group: c1
  Charge       = 0
  Multiplicity = 1
  Basis Set: AUG-CC-PVTZ
    Blend: AUG-CC-PVTZ
  Basis Set: (AUG-CC-PVTZ AUX)
    Blend: AUG-CC-PVTZ-JKFIT

    Orbital Energies [Eh]
    ---------------------

    Doubly Occupied:

       1A    -15.567449     2A    -15.547739     3A    -11.288796
       4A    -11.280158     5A    -11.275397     6A    -11.262284
       7A    -11.241494     8A    -11.240717     9A    -11.233238
      10A    -11.233174    11A    -11.232064    12A    -11.224714
      13A    -11.223276    14A    -11.219485    15A     -1.260842
      16A     -1.210701    17A     -1.133104    18A     -1.087721
      19A     -1.062426    20A     -1.017302    21A     -0.991247
      22A     -0.916434    23A     -0.870881    24A     -0.862034
      25A     -0.814509    26A     -0.783500    27A     -0.708817
      28A     -0.689925    29A     -0.680757    30A     -0.660348
      31A     -0.650461    32A     -0.613483    33A     -0.600960
      34A     -0.588895    35A     -0.580867    36A     -0.573908
      37A     -0.570299    38A     -0.547937    39A     -0.531963
      40A     -0.529363    41A     -0.512922    42A     -0.492837
      43A     -0.485414    44A     -0.435891    45A     -0.418910
      46A     -0.387388    47A     -0.366156    48A     -0.316682
      49A     -0.279429

  @DF-RHF Final Energy:  -570.50141345189309

   => Energetics <=

    Nuclear Repulsion Energy =            812.0384923245396749
    One-Electron Energy =               -2384.4712159602781867
    Two-Electron Energy =                1001.9313101838454259
    Total Energy =                       -570.5014134518930859
  Basis Set: (AUG-CC-PVTZ AUX)
    Blend: AUG-CC-PVTZ-RI
    Molecular point group: c1

    Geometry (in Angstrom), charge = 0, multiplicity = 1:

       Center              X                  Y                   Z               Mass
    ------------   -----------------  -----------------  -----------------  -----------------
         N            0.108862542712     2.510992958600    -0.390732365394    14.003074004430
         N           -1.871940457288     0.757977958600     0.623496634606    14.003074004430
         C            0.378695542712     0.102201958600    -0.005976365394    12.000000000000
         C            0.924804542712     1.398649958600    -0.165261365394    12.000000000000
         C            2.635044542712    -0.860835041400     0.118673634606    12.000000000000
         C            1.265980742712    -0.987611741400     0.159047634606    12.000000000000
         C           -1.079012457288    -0.143601041400    -0.003682365394    12.000000000000
         C            2.321990542712     1.523317958600    -0.227603365394    12.000000000000
         C            3.159419542712     0.423195958600    -0.075674365394    12.000000000000
         C            3.537252542712    -2.045344041400     0.347550634606    12.000000000000
         C           -1.612338457288    -1.284073041400    -0.627351365394    12.000000000000
         C           -2.982190457288    -1.522961041400    -0.564377365394    12.000000000000
         C           -3.194163457288     0.520561958600     0.662853634606    12.000000000000
         C           -3.794552457288    -0.605227041400     0.101084634606    12.000000000000
         H            0.812216542712    -1.973431041400     0.337039634606     1.007825032230
         H            2.752946542712     2.513063958600    -0.375326365394     1.007825032230
         H            4.238584542712     0.565376958600    -0.120388365394     1.007825032230
         H            3.857551542712    -2.109336041400     1.393497634606     1.007825032230
         H            3.027777542712    -2.981000041400     0.099064634606     1.007825032230
         H            4.438445542712    -1.977955041400    -0.269555365394     1.007825032230
         H           -0.955447457288    -1.959584041400    -1.167504365394     1.007825032230
         H            0.583636542712     3.389290958600    -0.207790365394     1.007825032230
         H           -0.772051457288     2.446112958600     0.113469634606     1.007825032230
         H           -3.410577457288    -2.401471041400    -1.041162365394     1.007825032230
         H           -3.792778457288     1.272129958600     1.175280634606     1.007825032230
         H           -4.869216457288    -0.747119041400     0.171708634606     1.007825032230

  Basis Set: AUG-CC-PVTZ
    Blend: AUG-CC-PVTZ
  Basis Set: (AUG-CC-PVTZ AUX)
    Blend: AUG-CC-PVTZ-JKFIT
	 Reference Energy          =    -570.5014134518930859 [Eh]
	 Singles Energy            =      -0.0000000000000000 [Eh]
	 Same-Spin Energy          =      -0.6407962548542827 [Eh]
	 Opposite-Spin Energy      =      -1.9776371375250950 [Eh]
	 Correlation Energy        =      -2.6184333923793774 [Eh]
	 Total Energy              =    -573.1198468442725016 [Eh]

	 ================> DF-SCS-MP2 Energies <==================
	-----------------------------------------------------------
	 SCS Same-Spin Scale       =       0.3333333333333333 [-]
	 SCS Opposite-Spin Scale   =       1.2000000000000000 [-]
	 SCS Same-Spin Energy      =      -0.2135987516180942 [Eh]
	 SCS Opposite-Spin Energy  =      -2.3731645650301139 [Eh]
	 SCS Correlation Energy    =      -2.5867633166482080 [Eh]
	 SCS Total Energy          =    -573.0881767685413024 [Eh]
	-----------------------------------------------------------

  Dipole Moment: [D]
     X:    -1.0917      Y:    -0.9531      Z:     0.0739     Total:     1.4511

*** Psi4 exiting successfully. Buy a developer a beer!
