                               Psi4 1.4a3.dev225

  ==> Input File <==

--------------------------------------------------------------------------
#psi4
#
memory 32 gb

molecule  {
0 1
  N        0.0801310     2.5312230    -0.3913130
  N       -1.9006720     0.7782080     0.6229160
  C        0.3610143     0.0347455    -0.0598085
  C        0.8960730     1.4188800    -0.1658420
  C        2.6063130    -0.8406050     0.1180930
  C        1.2173430    -0.9692250     0.1590540
  C       -1.1077440    -0.1233710    -0.0042630
  C        2.2932590     1.5435480    -0.2281840
  C        3.1306880     0.4434260    -0.0762550
  C        3.5085210    -2.0251140     0.3469700
  C       -1.6410700    -1.2638430    -0.6279320
  C       -3.0109220    -1.5027310    -0.5649580
  C       -3.2228950     0.5407920     0.6622730
  C       -3.8232840    -0.5849970     0.1005040
  H        0.7834850    -1.9532010     0.3364590
  H        2.7242150     2.5332940    -0.3759070
  H        4.2098530     0.5856070    -0.1209690
  H        3.8288200    -2.0891060     1.3929170
  H        2.9990460    -2.9607700     0.0984840
  H        4.4097140    -1.9577250    -0.2701360
  H       -0.9841790    -1.9393540    -1.1680850
  H        0.5549050     3.4095210    -0.2083710
  H       -0.8007830     2.4663430     0.1128890
  H       -3.4393090    -2.3812410    -1.0417430
  H       -3.8215100     1.2923600     1.1747000
  H       -4.8979480    -0.7268890     0.1711280
units angstrom
no_reorient  #important for SAPT in psi4, default
symmetry c1  #important for SAPT in psi4, default
}

set PROPERTIES_ORIGIN ["COM"]
properties('MP2/aug-cc-pvtz', properties = ['dipole'])
--------------------------------------------------------------------------

    Molecular point group: c1
  Charge       = 0
  Multiplicity = 1
  Basis Set: AUG-CC-PVTZ
    Blend: AUG-CC-PVTZ
  Basis Set: (AUG-CC-PVTZ AUX)
    Blend: AUG-CC-PVTZ-JKFIT

    Orbital Energies [Eh]
    ---------------------

    Doubly Occupied:

       1A    -15.569821     2A    -15.551146     3A    -11.289374
       4A    -11.282261     5A    -11.281669     6A    -11.262056
       7A    -11.242138     8A    -11.239563     9A    -11.234844
      10A    -11.231360    11A    -11.227149    12A    -11.224273
      13A    -11.218852    14A    -11.218402    15A     -1.261302
      16A     -1.209245    17A     -1.136082    18A     -1.087954
      19A     -1.065298    20A     -1.013456    21A     -0.997354
      22A     -0.911973    23A     -0.870154    24A     -0.862664
      25A     -0.806774    26A     -0.788450    27A     -0.710917
      28A     -0.690377    29A     -0.681102    30A     -0.659239
      31A     -0.654959    32A     -0.612730    33A     -0.602605
      34A     -0.588705    35A     -0.582918    36A     -0.572150
      37A     -0.567643    38A     -0.548285    39A     -0.532318
      40A     -0.527655    41A     -0.512781    42A     -0.497400
      43A     -0.476653    44A     -0.439396    45A     -0.417478
      46A     -0.388050    47A     -0.369479    48A     -0.321216
      49A     -0.272072

  @DF-RHF Final Energy:  -570.49162788159333

   => Energetics <=

    Nuclear Repulsion Energy =            811.8454674646039848
    One-Electron Energy =               -2384.0547022256578202
    Two-Electron Energy =                1001.7176068794603907
    Total Energy =                       -570.4916278815933310
  Basis Set: (AUG-CC-PVTZ AUX)
    Blend: AUG-CC-PVTZ-RI
    Molecular point group: c1

    Geometry (in Angstrom), charge = 0, multiplicity = 1:

       Center              X                  Y                   Z               Mass
    ------------   -----------------  -----------------  -----------------  -----------------
         N            0.109439787536     2.516828685474    -0.387299590631    14.003074004430
         N           -1.871363212464     0.763813685474     0.626929409369    14.003074004430
         C            0.390323087536     0.020351185474    -0.055795090631    12.000000000000
         C            0.925381787536     1.404485685474    -0.161828590631    12.000000000000
         C            2.635621787536    -0.854999314526     0.122106409369    12.000000000000
         C            1.246651787536    -0.983619314526     0.163067409369    12.000000000000
         C           -1.078435212464    -0.137765314526    -0.000249590631    12.000000000000
         C            2.322567787536     1.529153685474    -0.224170590631    12.000000000000
         C            3.159996787536     0.429031685474    -0.072241590631    12.000000000000
         C            3.537829787536    -2.039508314526     0.350983409369    12.000000000000
         C           -1.611761212464    -1.278237314526    -0.623918590631    12.000000000000
         C           -2.981613212464    -1.517125314526    -0.560944590631    12.000000000000
         C           -3.193586212464     0.526397685474     0.666286409369    12.000000000000
         C           -3.793975212464    -0.599391314526     0.104517409369    12.000000000000
         H            0.812793787536    -1.967595314526     0.340472409369     1.007825032230
         H            2.753523787536     2.518899685474    -0.371893590631     1.007825032230
         H            4.239161787536     0.571212685474    -0.116955590631     1.007825032230
         H            3.858128787536    -2.103500314526     1.396930409369     1.007825032230
         H            3.028354787536    -2.975164314526     0.102497409369     1.007825032230
         H            4.439022787536    -1.972119314526    -0.266122590631     1.007825032230
         H           -0.954870212464    -1.953748314526    -1.164071590631     1.007825032230
         H            0.584213787536     3.395126685474    -0.204357590631     1.007825032230
         H           -0.771474212464     2.451948685474     0.116902409369     1.007825032230
         H           -3.410000212464    -2.395635314526    -1.037729590631     1.007825032230
         H           -3.792201212464     1.277965685474     1.178713409369     1.007825032230
         H           -4.868639212464    -0.741283314526     0.175141409369     1.007825032230

  Basis Set: AUG-CC-PVTZ
    Blend: AUG-CC-PVTZ
  Basis Set: (AUG-CC-PVTZ AUX)
    Blend: AUG-CC-PVTZ-JKFIT
	 Reference Energy          =    -570.4916278815933310 [Eh]
	 Singles Energy            =      -0.0000000000000000 [Eh]
	 Same-Spin Energy          =      -0.6408819449552167 [Eh]
	 Opposite-Spin Energy      =      -1.9780643780837326 [Eh]
	 Correlation Energy        =      -2.6189463230389491 [Eh]
	 Total Energy              =    -573.1105742046322575 [Eh]

	 ================> DF-SCS-MP2 Energies <==================
	-----------------------------------------------------------
	 SCS Same-Spin Scale       =       0.3333333333333333 [-]
	 SCS Opposite-Spin Scale   =       1.2000000000000000 [-]
	 SCS Same-Spin Energy      =      -0.2136273149850722 [Eh]
	 SCS Opposite-Spin Energy  =      -2.3736772537004791 [Eh]
	 SCS Correlation Energy    =      -2.5873045686855511 [Eh]
	 SCS Total Energy          =    -573.0789324502788986 [Eh]
	-----------------------------------------------------------

  Dipole Moment: [D]
     X:    -1.1905      Y:    -0.9058      Z:     0.0827     Total:     1.4982

*** Psi4 exiting successfully. Buy a developer a beer!
