                               Psi4 1.4a3.dev225

  ==> Input File <==

--------------------------------------------------------------------------
#psi4
#
memory 32 gb

molecule  {
0 1
  N        0.0801310     2.5312230    -0.3913130
  N       -1.9006720     0.7782080     0.6229160
  C        0.3499640     0.1224320    -0.0065570
  C        0.8960730     1.4188800    -0.1658420
  C        2.6063130    -0.8406050     0.1180930
  C        1.2173430    -0.9692250     0.1590540
  C       -1.1077440    -0.1233710    -0.0042630
  C        2.2932590     1.5435480    -0.2281840
  C        3.1306880     0.4434260    -0.0762550
  C        3.5085210    -2.0251140     0.3469700
  C       -1.6410700    -1.2638430    -0.6279320
  C       -3.0109220    -1.5027310    -0.5649580
  C       -3.2228950     0.5407920     0.6622730
  C       -3.8232840    -0.5849970     0.1005040
  H        0.7834850    -1.9532010     0.3364590
  H        2.7242150     2.5332940    -0.3759070
  H        4.1107933     0.5725558    -0.1168646
  H        3.8288200    -2.0891060     1.3929170
  H        2.9990460    -2.9607700     0.0984840
  H        4.4097140    -1.9577250    -0.2701360
  H       -0.9841790    -1.9393540    -1.1680850
  H        0.5549050     3.4095210    -0.2083710
  H       -0.8007830     2.4663430     0.1128890
  H       -3.4393090    -2.3812410    -1.0417430
  H       -3.8215100     1.2923600     1.1747000
  H       -4.8979480    -0.7268890     0.1711280
units angstrom
no_reorient  #important for SAPT in psi4, default
symmetry c1  #important for SAPT in psi4, default
}

set PROPERTIES_ORIGIN ["COM"]
properties('MP2/aug-cc-pvtz', properties = ['dipole'])
--------------------------------------------------------------------------

    Molecular point group: c1
  Charge       = 0
  Multiplicity = 1
  Basis Set: AUG-CC-PVTZ
    Blend: AUG-CC-PVTZ
  Basis Set: (AUG-CC-PVTZ AUX)
    Blend: AUG-CC-PVTZ-JKFIT

    Orbital Energies [Eh]
    ---------------------

    Doubly Occupied:

       1A    -15.567336     2A    -15.547318     3A    -11.288456
       4A    -11.280050     5A    -11.274737     6A    -11.262227
       7A    -11.241443     8A    -11.240639     9A    -11.232956
      10A    -11.231783    11A    -11.225874    12A    -11.222154
      13A    -11.220042    14A    -11.219572    15A     -1.260792
      16A     -1.210256    17A     -1.132086    18A     -1.087657
      19A     -1.063801    20A     -1.015892    21A     -0.994334
      22A     -0.916130    23A     -0.874214    24A     -0.861978
      25A     -0.815924    26A     -0.785513    27A     -0.708716
      28A     -0.692913    29A     -0.686924    30A     -0.660277
      31A     -0.652106    32A     -0.613374    33A     -0.600791
      34A     -0.593709    35A     -0.581989    36A     -0.574400
      37A     -0.570419    38A     -0.548048    39A     -0.535350
      40A     -0.529285    41A     -0.512673    42A     -0.493566
      43A     -0.487037    44A     -0.434687    45A     -0.418632
      46A     -0.387357    47A     -0.366320    48A     -0.316077
      49A     -0.278086

  @DF-RHF Final Energy:  -570.49604625257257

   => Energetics <=

    Nuclear Repulsion Energy =            812.5918231946311607
    One-Electron Energy =               -2385.5439376473050288
    Two-Electron Energy =                1002.4560682001012992
    Total Energy =                       -570.4960462525725688
  Basis Set: (AUG-CC-PVTZ AUX)
    Blend: AUG-CC-PVTZ-RI
    Molecular point group: c1

    Geometry (in Angstrom), charge = 0, multiplicity = 1:

       Center              X                  Y                   Z               Mass
    ------------   -----------------  -----------------  -----------------  -----------------
         N            0.110702353447     2.511184555106    -0.390793096052    14.003074004430
         N           -1.870100646553     0.758169555106     0.623435903948    14.003074004430
         C            0.380535353447     0.102393555106    -0.006037096052    12.000000000000
         C            0.926644353447     1.398841555106    -0.165322096052    12.000000000000
         C            2.636884353447    -0.860643444894     0.118612903948    12.000000000000
         C            1.247914353447    -0.989263444894     0.159573903948    12.000000000000
         C           -1.077172646553    -0.143409444894    -0.003743096052    12.000000000000
         C            2.323830353447     1.523509555106    -0.227664096052    12.000000000000
         C            3.161259353447     0.423387555106    -0.075735096052    12.000000000000
         C            3.539092353447    -2.045152444894     0.347489903948    12.000000000000
         C           -1.610498646553    -1.283881444894    -0.627412096052    12.000000000000
         C           -2.980350646553    -1.522769444894    -0.564438096052    12.000000000000
         C           -3.192323646553     0.520753555106     0.662792903948    12.000000000000
         C           -3.792712646553    -0.605035444894     0.101023903948    12.000000000000
         H            0.814056353447    -1.973239444894     0.336978903948     1.007825032230
         H            2.754786353447     2.513255555106    -0.375387096052     1.007825032230
         H            4.141364653447     0.552517355106    -0.116344696052     1.007825032230
         H            3.859391353447    -2.109144444894     1.393436903948     1.007825032230
         H            3.029617353447    -2.980808444894     0.099003903948     1.007825032230
         H            4.440285353447    -1.977763444894    -0.269616096052     1.007825032230
         H           -0.953607646553    -1.959392444894    -1.167565096052     1.007825032230
         H            0.585476353447     3.389482555106    -0.207851096052     1.007825032230
         H           -0.770211646553     2.446304555106     0.113408903948     1.007825032230
         H           -3.408737646553    -2.401279444894    -1.041223096052     1.007825032230
         H           -3.790938646553     1.272321555106     1.175219903948     1.007825032230
         H           -4.867376646553    -0.746927444894     0.171647903948     1.007825032230

  Basis Set: AUG-CC-PVTZ
    Blend: AUG-CC-PVTZ
  Basis Set: (AUG-CC-PVTZ AUX)
    Blend: AUG-CC-PVTZ-JKFIT
	 Reference Energy          =    -570.4960462525725688 [Eh]
	 Singles Energy            =      -0.0000000000000000 [Eh]
	 Same-Spin Energy          =      -0.6406634204803007 [Eh]
	 Opposite-Spin Energy      =      -1.9771391221137340 [Eh]
	 Correlation Energy        =      -2.6178025425940348 [Eh]
	 Total Energy              =    -573.1138487951666320 [Eh]

	 ================> DF-SCS-MP2 Energies <==================
	-----------------------------------------------------------
	 SCS Same-Spin Scale       =       0.3333333333333333 [-]
	 SCS Opposite-Spin Scale   =       1.2000000000000000 [-]
	 SCS Same-Spin Energy      =      -0.2135544734934335 [Eh]
	 SCS Opposite-Spin Energy  =      -2.3725669465364807 [Eh]
	 SCS Correlation Energy    =      -2.5861214200299143 [Eh]
	 SCS Total Energy          =    -573.0821676726025089 [Eh]
	-----------------------------------------------------------

  Dipole Moment: [D]
     X:    -1.0525      Y:    -0.9620      Z:     0.0765     Total:     1.4280

*** Psi4 exiting successfully. Buy a developer a beer!
