                               Psi4 1.4a3.dev225

  ==> Input File <==

--------------------------------------------------------------------------
#psi4
#
memory 32 gb

molecule  {
0 1
  N        0.0801310     2.5312230    -0.3913130
  N       -1.9006720     0.7782080     0.6229160
  C        0.3499640     0.1224320    -0.0065570
  C        0.8960730     1.4188800    -0.1658420
  C        2.6063130    -0.8406050     0.1180930
  C        1.2173430    -0.9692250     0.1590540
  C       -1.1077440    -0.1233710    -0.0042630
  C        2.2932590     1.5435480    -0.2281840
  C        3.1306880     0.4434260    -0.0762550
  C        3.5085210    -2.0251140     0.3469700
  C       -1.6410700    -1.2638430    -0.6279320
  C       -3.0109220    -1.5027310    -0.5649580
  C       -3.2228950     0.5407920     0.6622730
  C       -3.8232840    -0.5849970     0.1005040
  H        0.7834850    -1.9532010     0.3364590
  H        2.7242150     2.5332940    -0.3759070
  H        4.3089127     0.5986582    -0.1250734
  H        3.8288200    -2.0891060     1.3929170
  H        2.9990460    -2.9607700     0.0984840
  H        4.4097140    -1.9577250    -0.2701360
  H       -0.9841790    -1.9393540    -1.1680850
  H        0.5549050     3.4095210    -0.2083710
  H       -0.8007830     2.4663430     0.1128890
  H       -3.4393090    -2.3812410    -1.0417430
  H       -3.8215100     1.2923600     1.1747000
  H       -4.8979480    -0.7268890     0.1711280
units angstrom
no_reorient  #important for SAPT in psi4, default
symmetry c1  #important for SAPT in psi4, default
}

set PROPERTIES_ORIGIN ["COM"]
properties('MP2/aug-cc-pvtz', properties = ['dipole'])
--------------------------------------------------------------------------

    Molecular point group: c1
  Charge       = 0
  Multiplicity = 1
  Basis Set: AUG-CC-PVTZ
    Blend: AUG-CC-PVTZ
  Basis Set: (AUG-CC-PVTZ AUX)
    Blend: AUG-CC-PVTZ-JKFIT

    Orbital Energies [Eh]
    ---------------------

    Doubly Occupied:

       1A    -15.567828     2A    -15.548220     3A    -11.288990
       4A    -11.280485     5A    -11.276179     6A    -11.262657
       7A    -11.243904     8A    -11.241870     9A    -11.241123
      10A    -11.234210    11A    -11.232915    12A    -11.227829
      13A    -11.223806    14A    -11.219462    15A     -1.261313
      16A     -1.211164    17A     -1.131760    18A     -1.088104
      19A     -1.062712    20A     -1.016575    21A     -0.991237
      22A     -0.915381    23A     -0.868258    24A     -0.862302
      25A     -0.814201    26A     -0.781948    27A     -0.709242
      28A     -0.689863    29A     -0.675711    30A     -0.660743
      31A     -0.647884    32A     -0.613940    33A     -0.600823
      34A     -0.585653    35A     -0.581483    36A     -0.572676
      37A     -0.568972    38A     -0.548501    39A     -0.529619
      40A     -0.528167    41A     -0.513356    42A     -0.492814
      43A     -0.482442    44A     -0.435572    45A     -0.419097
      46A     -0.387858    47A     -0.367022    48A     -0.317037
      49A     -0.279114

  @DF-RHF Final Energy:  -570.49436532780010

   => Energetics <=

    Nuclear Repulsion Energy =            811.4951973331400268
    One-Electron Energy =               -2383.3750733337651582
    Two-Electron Energy =                1001.3855106728251485
    Total Energy =                       -570.4943653278000966
  Basis Set: (AUG-CC-PVTZ AUX)
    Blend: AUG-CC-PVTZ-RI
    Molecular point group: c1

    Geometry (in Angstrom), charge = 0, multiplicity = 1:

       Center              X                  Y                   Z               Mass
    ------------   -----------------  -----------------  -----------------  -----------------
         N            0.109617781811     2.511041661868    -0.390748158344    14.003074004430
         N           -1.871185218189     0.758026661868     0.623480841656    14.003074004430
         C            0.379450781811     0.102250661868    -0.005992158344    12.000000000000
         C            0.925559781811     1.398698661868    -0.165277158344    12.000000000000
         C            2.635799781811    -0.860786338132     0.118657841656    12.000000000000
         C            1.246829781811    -0.989406338132     0.159618841656    12.000000000000
         C           -1.078257218189    -0.143552338132    -0.003698158344    12.000000000000
         C            2.322745781811     1.523366661868    -0.227619158344    12.000000000000
         C            3.160174781811     0.423244661868    -0.075690158344    12.000000000000
         C            3.538007781811    -2.045295338132     0.347534841656    12.000000000000
         C           -1.611583218189    -1.284024338132    -0.627367158344    12.000000000000
         C           -2.981435218189    -1.522912338132    -0.564393158344    12.000000000000
         C           -3.193408218189     0.520610661868     0.662837841656    12.000000000000
         C           -3.793797218189    -0.605178338132     0.101068841656    12.000000000000
         H            0.812971781811    -1.973382338132     0.337023841656     1.007825032230
         H            2.753701781811     2.513112661868    -0.375342158344     1.007825032230
         H            4.338399481811     0.578476861868    -0.124508558344     1.007825032230
         H            3.858306781811    -2.109287338132     1.393481841656     1.007825032230
         H            3.028532781811    -2.980951338132     0.099048841656     1.007825032230
         H            4.439200781811    -1.977906338132    -0.269571158344     1.007825032230
         H           -0.954692218189    -1.959535338132    -1.167520158344     1.007825032230
         H            0.584391781811     3.389339661868    -0.207806158344     1.007825032230
         H           -0.771296218189     2.446161661868     0.113453841656     1.007825032230
         H           -3.409822218189    -2.401422338132    -1.041178158344     1.007825032230
         H           -3.792023218189     1.272178661868     1.175264841656     1.007825032230
         H           -4.868461218189    -0.747070338132     0.171692841656     1.007825032230

  Basis Set: AUG-CC-PVTZ
    Blend: AUG-CC-PVTZ
  Basis Set: (AUG-CC-PVTZ AUX)
    Blend: AUG-CC-PVTZ-JKFIT
	 Reference Energy          =    -570.4943653278000966 [Eh]
	 Singles Energy            =      -0.0000000000000000 [Eh]
	 Same-Spin Energy          =      -0.6410883195245828 [Eh]
	 Opposite-Spin Energy      =      -1.9786648994560139 [Eh]
	 Correlation Energy        =      -2.6197532189805965 [Eh]
	 Total Energy              =    -573.1141185467806736 [Eh]

	 ================> DF-SCS-MP2 Energies <==================
	-----------------------------------------------------------
	 SCS Same-Spin Scale       =       0.3333333333333333 [-]
	 SCS Opposite-Spin Scale   =       1.2000000000000000 [-]
	 SCS Same-Spin Energy      =      -0.2136961065081943 [Eh]
	 SCS Opposite-Spin Energy  =      -2.3743978793472165 [Eh]
	 SCS Correlation Energy    =      -2.5880939858554108 [Eh]
	 SCS Total Energy          =    -573.0824593136554768 [Eh]
	-----------------------------------------------------------

  Dipole Moment: [D]
     X:    -1.1615      Y:    -0.9677      Z:     0.0792     Total:     1.5139

*** Psi4 exiting successfully. Buy a developer a beer!
