                               Psi4 1.4a3.dev225

  ==> Input File <==

--------------------------------------------------------------------------
#psi4
#
memory 32 gb

molecule  {
0 1
  N        0.0801310     2.5312230    -0.3913130
  N       -1.9006720     0.7782080     0.6229160
  C        0.3499640     0.1224320    -0.0065570
  C        0.8960730     1.4188800    -0.1658420
  C        2.6063130    -0.8406050     0.1180930
  C        1.2173430    -0.9692250     0.1590540
  C       -1.1077440    -0.1233710    -0.0042630
  C        2.2932590     1.5435480    -0.2281840
  C        3.1306880     0.4434260    -0.0762550
  C        3.5085210    -2.0251140     0.3469700
  C       -1.6410700    -1.2638430    -0.6279320
  C       -3.0109220    -1.5027310    -0.5649580
  C       -3.2228950     0.5407920     0.6622730
  C       -3.7802169    -0.5042419     0.1408008
  H        0.7834850    -1.9532010     0.3364590
  H        2.7242150     2.5332940    -0.3759070
  H        4.2098530     0.5856070    -0.1209690
  H        3.8288200    -2.0891060     1.3929170
  H        2.9990460    -2.9607700     0.0984840
  H        4.4097140    -1.9577250    -0.2701360
  H       -0.9841790    -1.9393540    -1.1680850
  H        0.5549050     3.4095210    -0.2083710
  H       -0.8007830     2.4663430     0.1128890
  H       -3.4393090    -2.3812410    -1.0417430
  H       -3.8215100     1.2923600     1.1747000
  H       -4.8979480    -0.7268890     0.1711280
units angstrom
no_reorient  #important for SAPT in psi4, default
symmetry c1  #important for SAPT in psi4, default
}

set PROPERTIES_ORIGIN ["COM"]
properties('MP2/aug-cc-pvtz', properties = ['dipole'])
--------------------------------------------------------------------------

    Molecular point group: c1
  Charge       = 0
  Multiplicity = 1
  Basis Set: AUG-CC-PVTZ
    Blend: AUG-CC-PVTZ
  Basis Set: (AUG-CC-PVTZ AUX)
    Blend: AUG-CC-PVTZ-JKFIT

    Orbital Energies [Eh]
    ---------------------

    Doubly Occupied:

       1A    -15.563875     2A    -15.547636     3A    -11.290187
       4A    -11.276009     5A    -11.268801     6A    -11.262761
       7A    -11.242562     8A    -11.237975     9A    -11.234244
      10A    -11.233198    11A    -11.232963    12A    -11.227183
      13A    -11.223148    14A    -11.219947    15A     -1.263301
      16A     -1.211171    17A     -1.132388    18A     -1.082628
      19A     -1.069652    20A     -1.016850    21A     -0.998605
      22A     -0.915902    23A     -0.875200    24A     -0.859332
      25A     -0.812866    26A     -0.784741    27A     -0.709042
      28A     -0.690449    29A     -0.681292    30A     -0.661221
      31A     -0.644909    32A     -0.615147    33A     -0.601578
      34A     -0.595682    35A     -0.581384    36A     -0.575093
      37A     -0.570775    38A     -0.550785    39A     -0.531668
      40A     -0.518299    41A     -0.508840    42A     -0.490568
      43A     -0.485161    44A     -0.435550    45A     -0.420484
      46A     -0.381760    47A     -0.373924    48A     -0.319963
      49A     -0.279772

  @DF-RHF Final Energy:  -570.48831981494061

   => Energetics <=

    Nuclear Repulsion Energy =            813.2776327712300599
    One-Electron Energy =               -2386.9189624228019966
    Two-Electron Energy =                1003.1530098366314405
    Total Energy =                       -570.4883198149406098
  Basis Set: (AUG-CC-PVTZ AUX)
    Blend: AUG-CC-PVTZ-RI
    Molecular point group: c1

    Geometry (in Angstrom), charge = 0, multiplicity = 1:

       Center              X                  Y                   Z               Mass
    ------------   -----------------  -----------------  -----------------  -----------------
         N            0.107352870105     2.505849333662    -0.393397251168    14.003074004430
         N           -1.873450129895     0.752834333662     0.620831748832    14.003074004430
         C            0.377185870105     0.097058333662    -0.008641251168    12.000000000000
         C            0.923294870105     1.393506333662    -0.167926251168    12.000000000000
         C            2.633534870105    -0.865978666338     0.116008748832    12.000000000000
         C            1.244564870105    -0.994598666338     0.156969748832    12.000000000000
         C           -1.080522129895    -0.148744666338    -0.006347251168    12.000000000000
         C            2.320480870105     1.518174333662    -0.230268251168    12.000000000000
         C            3.157909870105     0.418052333662    -0.078339251168    12.000000000000
         C            3.535742870105    -2.050487666338     0.344885748832    12.000000000000
         C           -1.613848129895    -1.289216666338    -0.630016251168    12.000000000000
         C           -2.983700129895    -1.528104666338    -0.567042251168    12.000000000000
         C           -3.195673129895     0.515418333662     0.660188748832    12.000000000000
         C           -3.752995029895    -0.529615566338     0.138716548832    12.000000000000
         H            0.810706870105    -1.978574666338     0.334374748832     1.007825032230
         H            2.751436870105     2.507920333662    -0.377991251168     1.007825032230
         H            4.237074870105     0.560233333662    -0.123053251168     1.007825032230
         H            3.856041870105    -2.114479666338     1.390832748832     1.007825032230
         H            3.026267870105    -2.986143666338     0.096399748832     1.007825032230
         H            4.436935870105    -1.983098666338    -0.272220251168     1.007825032230
         H           -0.956957129895    -1.964727666338    -1.170169251168     1.007825032230
         H            0.582126870105     3.384147333662    -0.210455251168     1.007825032230
         H           -0.773561129895     2.440969333662     0.110804748832     1.007825032230
         H           -3.412087129895    -2.406614666338    -1.043827251168     1.007825032230
         H           -3.794288129895     1.266986333662     1.172615748832     1.007825032230
         H           -4.870726129895    -0.752262666338     0.169043748832     1.007825032230

  Basis Set: AUG-CC-PVTZ
    Blend: AUG-CC-PVTZ
  Basis Set: (AUG-CC-PVTZ AUX)
    Blend: AUG-CC-PVTZ-JKFIT
	 Reference Energy          =    -570.4883198149406098 [Eh]
	 Singles Energy            =      -0.0000000000000000 [Eh]
	 Same-Spin Energy          =      -0.6406639347573378 [Eh]
	 Opposite-Spin Energy      =      -1.9779126311585715 [Eh]
	 Correlation Energy        =      -2.6185765659159093 [Eh]
	 Total Energy              =    -573.1068963808564831 [Eh]

	 ================> DF-SCS-MP2 Energies <==================
	-----------------------------------------------------------
	 SCS Same-Spin Scale       =       0.3333333333333333 [-]
	 SCS Opposite-Spin Scale   =       1.2000000000000000 [-]
	 SCS Same-Spin Energy      =      -0.2135546449191126 [Eh]
	 SCS Opposite-Spin Energy  =      -2.3734951573902858 [Eh]
	 SCS Correlation Energy    =      -2.5870498023093984 [Eh]
	 SCS Total Energy          =    -573.0753696172499758 [Eh]
	-----------------------------------------------------------

  Dipole Moment: [D]
     X:    -0.9980      Y:    -1.0173      Z:     0.0309     Total:     1.4254

*** Psi4 exiting successfully. Buy a developer a beer!
