                               Psi4 1.4a3.dev225

  ==> Input File <==

--------------------------------------------------------------------------
#psi4
#
memory 32 gb

molecule  {
0 1
  N        0.0801310     2.5312230    -0.3913130
  N       -1.9006720     0.7782080     0.6229160
  C        0.3499640     0.1224320    -0.0065570
  C        0.8960730     1.4188800    -0.1658420
  C        2.6063130    -0.8406050     0.1180930
  C        1.2173430    -0.9692250     0.1590540
  C       -1.1077440    -0.1233710    -0.0042630
  C        2.2932590     1.5435480    -0.2281840
  C        3.1306880     0.4434260    -0.0762550
  C        3.5085210    -2.0251140     0.3469700
  C       -1.6410700    -1.2638430    -0.6279320
  C       -3.0109220    -1.5027310    -0.5649580
  C       -3.2228950     0.5407920     0.6622730
  C       -3.8232840    -0.5849970     0.1005040
  H        0.7834850    -1.9532010     0.3364590
  H        2.7242150     2.5332940    -0.3759070
  H        4.2098530     0.5856070    -0.1209690
  H        3.8288200    -2.0891060     1.3929170
  H        2.9990460    -2.9607700     0.0984840
  H        4.2450084    -1.9700413    -0.1573513
  H       -0.9841790    -1.9393540    -1.1680850
  H        0.5549050     3.4095210    -0.2083710
  H       -0.8007830     2.4663430     0.1128890
  H       -3.4393090    -2.3812410    -1.0417430
  H       -3.8215100     1.2923600     1.1747000
  H       -4.8979480    -0.7268890     0.1711280
units angstrom
no_reorient  #important for SAPT in psi4, default
symmetry c1  #important for SAPT in psi4, default
}

set PROPERTIES_ORIGIN ["COM"]
properties('MP2/aug-cc-pvtz', properties = ['dipole'])
--------------------------------------------------------------------------

    Molecular point group: c1
  Charge       = 0
  Multiplicity = 1
  Basis Set: AUG-CC-PVTZ
    Blend: AUG-CC-PVTZ
  Basis Set: (AUG-CC-PVTZ AUX)
    Blend: AUG-CC-PVTZ-JKFIT

    Orbital Energies [Eh]
    ---------------------

    Doubly Occupied:

       1A    -15.567237     2A    -15.547310     3A    -11.288327
       4A    -11.279956     5A    -11.274854     6A    -11.262132
       7A    -11.241353     8A    -11.240537     9A    -11.232703
      10A    -11.232312    11A    -11.231486    12A    -11.225362
      13A    -11.222375    14A    -11.194664    15A     -1.260696
      16A     -1.210235    17A     -1.132054    18A     -1.087562
      19A     -1.063955    20A     -1.023752    21A     -0.992689
      22A     -0.931523    23A     -0.870175    24A     -0.862151
      25A     -0.814249    26A     -0.786417    27A     -0.710504
      28A     -0.689511    29A     -0.681517    30A     -0.660505
      31A     -0.651579    32A     -0.614574    33A     -0.608622
      34A     -0.591001    35A     -0.586382    36A     -0.578409
      37A     -0.572034    38A     -0.547797    39A     -0.541482
      40A     -0.531007    41A     -0.513726    42A     -0.492299
      43A     -0.485660    44A     -0.435323    45A     -0.418515
      46A     -0.387290    47A     -0.366313    48A     -0.315970
      49A     -0.278332

  @DF-RHF Final Energy:  -570.46792748550729

   => Energetics <=

    Nuclear Repulsion Energy =            813.0509249659844500
    One-Electron Energy =               -2386.3688694461088744
    Two-Electron Energy =                1002.8500169946171354
    Total Energy =                       -570.4679274855072890
  Basis Set: (AUG-CC-PVTZ AUX)
    Blend: AUG-CC-PVTZ-RI
    Molecular point group: c1

    Geometry (in Angstrom), charge = 0, multiplicity = 1:

       Center              X                  Y                   Z               Mass
    ------------   -----------------  -----------------  -----------------  -----------------
         N            0.111061720986     2.511180532019    -0.391388048241    14.003074004430
         N           -1.869741279014     0.758165532019     0.622840951759    14.003074004430
         C            0.380894720986     0.102389532019    -0.006632048241    12.000000000000
         C            0.927003720986     1.398837532019    -0.165917048241    12.000000000000
         C            2.637243720986    -0.860647467981     0.118017951759    12.000000000000
         C            1.248273720986    -0.989267467981     0.158978951759    12.000000000000
         C           -1.076813279014    -0.143413467981    -0.004338048241    12.000000000000
         C            2.324189720986     1.523505532019    -0.228259048241    12.000000000000
         C            3.161618720986     0.423383532019    -0.076330048241    12.000000000000
         C            3.539451720986    -2.045156467981     0.346894951759    12.000000000000
         C           -1.610139279014    -1.283885467981    -0.628007048241    12.000000000000
         C           -2.979991279014    -1.522773467981    -0.565033048241    12.000000000000
         C           -3.191964279014     0.520749532019     0.662197951759    12.000000000000
         C           -3.792353279014    -0.605039467981     0.100428951759    12.000000000000
         H            0.814415720986    -1.973243467981     0.336383951759     1.007825032230
         H            2.755145720986     2.513251532019    -0.375982048241     1.007825032230
         H            4.240783720986     0.565564532019    -0.121044048241     1.007825032230
         H            3.859750720986    -2.109148467981     1.392841951759     1.007825032230
         H            3.029976720986    -2.980812467981     0.098408951759     1.007825032230
         H            4.275939120986    -1.990083767981    -0.157426348241     1.007825032230
         H           -0.953248279014    -1.959396467981    -1.168160048241     1.007825032230
         H            0.585835720986     3.389478532019    -0.208446048241     1.007825032230
         H           -0.769852279014     2.446300532019     0.112813951759     1.007825032230
         H           -3.408378279014    -2.401283467981    -1.041818048241     1.007825032230
         H           -3.790579279014     1.272317532019     1.174624951759     1.007825032230
         H           -4.867017279014    -0.746931467981     0.171052951759     1.007825032230

  Basis Set: AUG-CC-PVTZ
    Blend: AUG-CC-PVTZ
  Basis Set: (AUG-CC-PVTZ AUX)
    Blend: AUG-CC-PVTZ-JKFIT
	 Reference Energy          =    -570.4679274855072890 [Eh]
	 Singles Energy            =      -0.0000000000000000 [Eh]
	 Same-Spin Energy          =      -0.6409316005116691 [Eh]
	 Opposite-Spin Energy      =      -1.9770450804306925 [Eh]
	 Correlation Energy        =      -2.6179766809423617 [Eh]
	 Total Energy              =    -573.0859041664496090 [Eh]

	 ================> DF-SCS-MP2 Energies <==================
	-----------------------------------------------------------
	 SCS Same-Spin Scale       =       0.3333333333333333 [-]
	 SCS Opposite-Spin Scale   =       1.2000000000000000 [-]
	 SCS Same-Spin Energy      =      -0.2136438668372230 [Eh]
	 SCS Opposite-Spin Energy  =      -2.3724540965168308 [Eh]
	 SCS Correlation Energy    =      -2.5860979633540540 [Eh]
	 SCS Total Energy          =    -573.0540254488613527 [Eh]
	-----------------------------------------------------------

  Dipole Moment: [D]
     X:    -1.0079      Y:    -0.9985      Z:     0.0533     Total:     1.4197

*** Psi4 exiting successfully. Buy a developer a beer!
