                               Psi4 1.4a3.dev225

  ==> Input File <==

--------------------------------------------------------------------------
#psi4
#
memory 32 gb

molecule  {
0 1
  N        0.0801310     2.5312230    -0.3913130
  N       -1.9006720     0.7782080     0.6229160
  C        0.3499640     0.1224320    -0.0065570
  C        0.8960730     1.4188800    -0.1658420
  C        2.6063130    -0.8406050     0.1180930
  C        1.2173430    -0.9692250     0.1590540
  C       -1.1077440    -0.1233710    -0.0042630
  C        2.2932590     1.5435480    -0.2281840
  C        3.1306880     0.4434260    -0.0762550
  C        3.5085210    -2.0251140     0.3469700
  C       -1.6410700    -1.2638430    -0.6279320
  C       -2.9724151    -1.4747519    -0.5547561
  C       -3.2228950     0.5407920     0.6622730
  C       -3.8232840    -0.5849970     0.1005040
  H        0.7834850    -1.9532010     0.3364590
  H        2.7242150     2.5332940    -0.3759070
  H        4.2098530     0.5856070    -0.1209690
  H        3.8288200    -2.0891060     1.3929170
  H        2.9990460    -2.9607700     0.0984840
  H        4.4097140    -1.9577250    -0.2701360
  H       -0.9841790    -1.9393540    -1.1680850
  H        0.5549050     3.4095210    -0.2083710
  H       -0.8007830     2.4663430     0.1128890
  H       -3.4393090    -2.3812410    -1.0417430
  H       -3.8215100     1.2923600     1.1747000
  H       -4.8979480    -0.7268890     0.1711280
units angstrom
no_reorient  #important for SAPT in psi4, default
symmetry c1  #important for SAPT in psi4, default
}

set PROPERTIES_ORIGIN ["COM"]
properties('MP2/aug-cc-pvtz', properties = ['dipole'])
--------------------------------------------------------------------------

    Molecular point group: c1
  Charge       = 0
  Multiplicity = 1
  Basis Set: AUG-CC-PVTZ
    Blend: AUG-CC-PVTZ
  Basis Set: (AUG-CC-PVTZ AUX)
    Blend: AUG-CC-PVTZ-JKFIT

    Orbital Energies [Eh]
    ---------------------

    Doubly Occupied:

       1A    -15.566571     2A    -15.548054     3A    -11.289820
       4A    -11.279064     5A    -11.275991     6A    -11.260191
       7A    -11.240376     8A    -11.236253     9A    -11.234079
      10A    -11.233165    11A    -11.232783    12A    -11.227159
      13A    -11.223181    14A    -11.219885    15A     -1.262218
      16A     -1.211138    17A     -1.132221    18A     -1.092522
      19A     -1.063853    20A     -1.016640    21A     -0.994474
      22A     -0.916077    23A     -0.873106    24A     -0.857762
      25A     -0.815822    26A     -0.782143    27A     -0.708368
      28A     -0.690421    29A     -0.681841    30A     -0.661515
      31A     -0.651375    32A     -0.612491    33A     -0.601359
      34A     -0.590211    35A     -0.582704    36A     -0.572216
      37A     -0.561073    38A     -0.548977    39A     -0.535553
      40A     -0.531009    41A     -0.513601    42A     -0.493717
      43A     -0.486301    44A     -0.435310    45A     -0.417009
      46A     -0.390784    47A     -0.367914    48A     -0.316977
      49A     -0.279033

  @DF-RHF Final Energy:  -570.49925073024451

   => Energetics <=

    Nuclear Repulsion Energy =            813.0138383456833253
    One-Electron Energy =               -2386.3975657073142429
    Two-Electron Energy =                1002.8844766313864056
    Total Energy =                       -570.4992507302445119
  Basis Set: (AUG-CC-PVTZ AUX)
    Blend: AUG-CC-PVTZ-RI
    Molecular point group: c1

    Geometry (in Angstrom), charge = 0, multiplicity = 1:

       Center              X                  Y                   Z               Mass
    ------------   -----------------  -----------------  -----------------  -----------------
         N            0.107650112830     2.509289376212    -0.391435606925    14.003074004430
         N           -1.873152887170     0.756274376212     0.622793393075    14.003074004430
         C            0.377483112830     0.100498376212    -0.006679606925    12.000000000000
         C            0.923592112830     1.396946376212    -0.165964606925    12.000000000000
         C            2.633832112830    -0.862538623788     0.117970393075    12.000000000000
         C            1.244862112830    -0.991158623788     0.158931393075    12.000000000000
         C           -1.080224887170    -0.145304623788    -0.004385606925    12.000000000000
         C            2.320778112830     1.521614376212    -0.228306606925    12.000000000000
         C            3.158207112830     0.421492376212    -0.076377606925    12.000000000000
         C            3.536040112830    -2.047047623788     0.346847393075    12.000000000000
         C           -1.613550887170    -1.285776623788    -0.628054606925    12.000000000000
         C           -2.944895987170    -1.496685523788    -0.554878706925    12.000000000000
         C           -3.195375887170     0.518858376212     0.662150393075    12.000000000000
         C           -3.795764887170    -0.606930623788     0.100381393075    12.000000000000
         H            0.811004112830    -1.975134623788     0.336336393075     1.007825032230
         H            2.751734112830     2.511360376212    -0.376029606925     1.007825032230
         H            4.237372112830     0.563673376212    -0.121091606925     1.007825032230
         H            3.856339112830    -2.111039623788     1.392794393075     1.007825032230
         H            3.026565112830    -2.982703623788     0.098361393075     1.007825032230
         H            4.437233112830    -1.979658623788    -0.270258606925     1.007825032230
         H           -0.956659887170    -1.961287623788    -1.168207606925     1.007825032230
         H            0.582424112830     3.387587376212    -0.208493606925     1.007825032230
         H           -0.773263887170     2.444409376212     0.112766393075     1.007825032230
         H           -3.411789887170    -2.403174623788    -1.041865606925     1.007825032230
         H           -3.793990887170     1.270426376212     1.174577393075     1.007825032230
         H           -4.870428887170    -0.748822623788     0.171005393075     1.007825032230

  Basis Set: AUG-CC-PVTZ
    Blend: AUG-CC-PVTZ
  Basis Set: (AUG-CC-PVTZ AUX)
    Blend: AUG-CC-PVTZ-JKFIT
	 Reference Energy          =    -570.4992507302445119 [Eh]
	 Singles Energy            =      -0.0000000000000000 [Eh]
	 Same-Spin Energy          =      -0.6407666739366182 [Eh]
	 Opposite-Spin Energy      =      -1.9774014042121382 [Eh]
	 Correlation Energy        =      -2.6181680781487566 [Eh]
	 Total Energy              =    -573.1174188083932677 [Eh]

	 ================> DF-SCS-MP2 Energies <==================
	-----------------------------------------------------------
	 SCS Same-Spin Scale       =       0.3333333333333333 [-]
	 SCS Opposite-Spin Scale   =       1.2000000000000000 [-]
	 SCS Same-Spin Energy      =      -0.2135888913122061 [Eh]
	 SCS Opposite-Spin Energy  =      -2.3728816850545655 [Eh]
	 SCS Correlation Energy    =      -2.5864705763667715 [Eh]
	 SCS Total Energy          =    -573.0857213066112763 [Eh]
	-----------------------------------------------------------

  Dipole Moment: [D]
     X:    -1.0611      Y:    -0.9293      Z:     0.0933     Total:     1.4136

*** Psi4 exiting successfully. Buy a developer a beer!
