                               Psi4 1.4a3.dev225

  ==> Input File <==

--------------------------------------------------------------------------
#psi4
#
memory 32 gb

molecule  {
0 1
  N        0.0801310     2.5312230    -0.3913130
  N       -1.9006720     0.7782080     0.6229160
  C        0.3499640     0.1224320    -0.0065570
  C        0.8960730     1.4188800    -0.1658420
  C        2.6063130    -0.8406050     0.1180930
  C        1.2173430    -0.9692250     0.1590540
  C       -1.1077440    -0.1233710    -0.0042630
  C        2.2932590     1.5435480    -0.2281840
  C        3.1306880     0.4434260    -0.0762550
  C        3.5085210    -2.0251140     0.3469700
  C       -1.6410700    -1.2638430    -0.6279320
  C       -3.0109220    -1.5027310    -0.5649580
  C       -3.2228950     0.5407920     0.6622730
  C       -3.8232840    -0.5849970     0.1005040
  H        0.7834850    -1.9532010     0.3364590
  H        2.7163044     2.5151262    -0.3731954
  H        4.2098530     0.5856070    -0.1209690
  H        3.8288200    -2.0891060     1.3929170
  H        2.9990460    -2.9607700     0.0984840
  H        4.4097140    -1.9577250    -0.2701360
  H       -0.9841790    -1.9393540    -1.1680850
  H        0.5549050     3.4095210    -0.2083710
  H       -0.8007830     2.4663430     0.1128890
  H       -3.4393090    -2.3812410    -1.0417430
  H       -3.8215100     1.2923600     1.1747000
  H       -4.8979480    -0.7268890     0.1711280
units angstrom
no_reorient  #important for SAPT in psi4, default
symmetry c1  #important for SAPT in psi4, default
}

set PROPERTIES_ORIGIN ["COM"]
properties('MP2/aug-cc-pvtz', properties = ['dipole'])
--------------------------------------------------------------------------

    Molecular point group: c1
  Charge       = 0
  Multiplicity = 1
  Basis Set: AUG-CC-PVTZ
    Blend: AUG-CC-PVTZ
  Basis Set: (AUG-CC-PVTZ AUX)
    Blend: AUG-CC-PVTZ-JKFIT

    Orbital Energies [Eh]
    ---------------------

    Doubly Occupied:

       1A    -15.567485     2A    -15.547753     3A    -11.288604
       4A    -11.280189     5A    -11.275175     6A    -11.262360
       7A    -11.241568     8A    -11.240777     9A    -11.233360
      10A    -11.232354    11A    -11.232158    12A    -11.226481
      13A    -11.220317    14A    -11.219413    15A     -1.260957
      16A     -1.210681    17A     -1.131597    18A     -1.087793
      19A     -1.063014    20A     -1.016508    21A     -0.992489
      22A     -0.915488    23A     -0.870524    24A     -0.862136
      25A     -0.815831    26A     -0.783569    27A     -0.709099
      28A     -0.689744    29A     -0.681471    30A     -0.660640
      31A     -0.650377    32A     -0.615227    33A     -0.600549
      34A     -0.589201    35A     -0.582914    36A     -0.573682
      37A     -0.569997    38A     -0.548183    39A     -0.532125
      40A     -0.529372    41A     -0.512915    42A     -0.492917
      43A     -0.486415    44A     -0.435016    45A     -0.418782
      46A     -0.387516    47A     -0.366529    48A     -0.316392
      49A     -0.278432

  @DF-RHF Final Energy:  -570.50187746303550

   => Energetics <=

    Nuclear Repulsion Energy =            812.1243088578304423
    One-Electron Energy =               -2384.6402225486453972
    Two-Electron Energy =                1002.0140362277795703
    Total Energy =                       -570.5018774630354983
  Basis Set: (AUG-CC-PVTZ AUX)
    Blend: AUG-CC-PVTZ-RI
    Molecular point group: c1

    Geometry (in Angstrom), charge = 0, multiplicity = 1:

       Center              X                  Y                   Z               Mass
    ------------   -----------------  -----------------  -----------------  -----------------
         N            0.110203372890     2.511212565080    -0.390785471400    14.003074004430
         N           -1.870599627110     0.758197565080     0.623443528600    14.003074004430
         C            0.380036372890     0.102421565080    -0.006029471400    12.000000000000
         C            0.926145372890     1.398869565080    -0.165314471400    12.000000000000
         C            2.636385372890    -0.860615434920     0.118620528600    12.000000000000
         C            1.247415372890    -0.989235434920     0.159581528600    12.000000000000
         C           -1.077671627110    -0.143381434920    -0.003735471400    12.000000000000
         C            2.323331372890     1.523537565080    -0.227656471400    12.000000000000
         C            3.160760372890     0.423415565080    -0.075727471400    12.000000000000
         C            3.538593372890    -2.045124434920     0.347497528600    12.000000000000
         C           -1.610997627110    -1.283853434920    -0.627404471400    12.000000000000
         C           -2.980849627110    -1.522741434920    -0.564430471400    12.000000000000
         C           -3.192822627110     0.520781565080     0.662800528600    12.000000000000
         C           -3.793211627110    -0.605007434920     0.101031528600    12.000000000000
         H            0.813557372890    -1.973211434920     0.336986528600     1.007825032230
         H            2.746376772890     2.495115765080    -0.372667871400     1.007825032230
         H            4.239925372890     0.565596565080    -0.120441471400     1.007825032230
         H            3.858892372890    -2.109116434920     1.393444528600     1.007825032230
         H            3.029118372890    -2.980780434920     0.099011528600     1.007825032230
         H            4.439786372890    -1.977735434920    -0.269608471400     1.007825032230
         H           -0.954106627110    -1.959364434920    -1.167557471400     1.007825032230
         H            0.584977372890     3.389510565080    -0.207843471400     1.007825032230
         H           -0.770710627110     2.446332565080     0.113416528600     1.007825032230
         H           -3.409236627110    -2.401251434920    -1.041215471400     1.007825032230
         H           -3.791437627110     1.272349565080     1.175227528600     1.007825032230
         H           -4.867875627110    -0.746899434920     0.171655528600     1.007825032230

  Basis Set: AUG-CC-PVTZ
    Blend: AUG-CC-PVTZ
  Basis Set: (AUG-CC-PVTZ AUX)
    Blend: AUG-CC-PVTZ-JKFIT
	 Reference Energy          =    -570.5018774630354983 [Eh]
	 Singles Energy            =      -0.0000000000000000 [Eh]
	 Same-Spin Energy          =      -0.6407903729304670 [Eh]
	 Opposite-Spin Energy      =      -1.9775368401972226 [Eh]
	 Correlation Energy        =      -2.6183272131276896 [Eh]
	 Total Energy              =    -573.1202046761632118 [Eh]

	 ================> DF-SCS-MP2 Energies <==================
	-----------------------------------------------------------
	 SCS Same-Spin Scale       =       0.3333333333333333 [-]
	 SCS Opposite-Spin Scale   =       1.2000000000000000 [-]
	 SCS Same-Spin Energy      =      -0.2135967909768223 [Eh]
	 SCS Opposite-Spin Energy  =      -2.3730442082366672 [Eh]
	 SCS Correlation Energy    =      -2.5866409992134893 [Eh]
	 SCS Total Energy          =    -573.0885184622489987 [Eh]
	-----------------------------------------------------------

  Dipole Moment: [D]
     X:    -1.0929      Y:    -0.9542      Z:     0.0763     Total:     1.4528

*** Psi4 exiting successfully. Buy a developer a beer!
