                               Psi4 1.4a3.dev225

  ==> Input File <==

--------------------------------------------------------------------------
#psi4
#
memory 32 gb

molecule  {
0 1
  N        0.0801310     2.5312230    -0.3913130
  N       -1.9006720     0.7782080     0.6229160
  C        0.3499640     0.1224320    -0.0065570
  C        0.8960730     1.4188800    -0.1658420
  C        2.6063130    -0.8406050     0.1180930
  C        1.2173430    -0.9692250     0.1590540
  C       -1.1077440    -0.1233710    -0.0042630
  C        2.2932590     1.5435480    -0.2281840
  C        3.1306880     0.4434260    -0.0762550
  C        3.5085210    -2.0251140     0.3469700
  C       -1.6410700    -1.2638430    -0.6279320
  C       -3.1321875    -1.5798301    -0.5906545
  C       -3.2228950     0.5407920     0.6622730
  C       -3.8232840    -0.5849970     0.1005040
  H        0.7834850    -1.9532010     0.3364590
  H        2.7242150     2.5332940    -0.3759070
  H        4.2098530     0.5856070    -0.1209690
  H        3.8288200    -2.0891060     1.3929170
  H        2.9990460    -2.9607700     0.0984840
  H        4.4097140    -1.9577250    -0.2701360
  H       -0.9841790    -1.9393540    -1.1680850
  H        0.5549050     3.4095210    -0.2083710
  H       -0.8007830     2.4663430     0.1128890
  H       -3.4393090    -2.3812410    -1.0417430
  H       -3.8215100     1.2923600     1.1747000
  H       -4.8979480    -0.7268890     0.1711280
units angstrom
no_reorient  #important for SAPT in psi4, default
symmetry c1  #important for SAPT in psi4, default
}

set PROPERTIES_ORIGIN ["COM"]
properties('MP2/aug-cc-pvtz', properties = ['dipole'])
--------------------------------------------------------------------------

    Molecular point group: c1
  Charge       = 0
  Multiplicity = 1
  Basis Set: AUG-CC-PVTZ
    Blend: AUG-CC-PVTZ
  Basis Set: (AUG-CC-PVTZ AUX)
    Blend: AUG-CC-PVTZ-JKFIT

    Orbital Energies [Eh]
    ---------------------

    Doubly Occupied:

       1A    -15.571036     2A    -15.547004     3A    -11.285742
       4A    -11.284505     5A    -11.273829     6A    -11.269480
       7A    -11.253222     8A    -11.247460     9A    -11.232223
      10A    -11.230967    11A    -11.230773    12A    -11.225287
      13A    -11.221546    14A    -11.218529    15A     -1.259193
      16A     -1.209598    17A     -1.130333    18A     -1.079832
      19A     -1.059775    20A     -1.014837    21A     -0.986965
      22A     -0.914195    23A     -0.878265    24A     -0.864135
      25A     -0.812936    26A     -0.787835    27A     -0.714658
      28A     -0.687933    29A     -0.680981    30A     -0.663161
      31A     -0.646061    32A     -0.622132    33A     -0.599264
      34A     -0.597925    35A     -0.582394    36A     -0.578950
      37A     -0.570269    38A     -0.544883    39A     -0.529849
      40A     -0.514547    41A     -0.507630    42A     -0.489120
      43A     -0.483113    44A     -0.434729    45A     -0.422441
      46A     -0.384126    47A     -0.360305    48A     -0.314972
      49A     -0.277228

  @DF-RHF Final Energy:  -570.47136102278478

   => Energetics <=

    Nuclear Repulsion Energy =            809.2377187830696812
    One-Electron Energy =               -2378.8258077439327280
    Two-Electron Energy =                 999.1167279380781565
    Total Energy =                       -570.4713610227847767
  Basis Set: (AUG-CC-PVTZ AUX)
    Blend: AUG-CC-PVTZ-RI
    Molecular point group: c1

    Geometry (in Angstrom), charge = 0, multiplicity = 1:

       Center              X                  Y                   Z               Mass
    ------------   -----------------  -----------------  -----------------  -----------------
         N            0.118064389288     2.516138578106    -0.389095679240    14.003074004430
         N           -1.862738610712     0.763123578106     0.625133320760    14.003074004430
         C            0.387897389288     0.107347578106    -0.004339679240    12.000000000000
         C            0.934006389288     1.403795578106    -0.163624679240    12.000000000000
         C            2.644246389288    -0.855689421894     0.120310320760    12.000000000000
         C            1.255276389288    -0.984309421894     0.161271320760    12.000000000000
         C           -1.069810610712    -0.138455421894    -0.002045679240    12.000000000000
         C            2.331192389288     1.528463578106    -0.225966679240    12.000000000000
         C            3.168621389288     0.428341578106    -0.074037679240    12.000000000000
         C            3.546454389288    -2.040198421894     0.349187320760    12.000000000000
         C           -1.603136610712    -1.278927421894    -0.625714679240    12.000000000000
         C           -3.094254110712    -1.594914521894    -0.588437179240    12.000000000000
         C           -3.184961610712     0.525707578106     0.664490320760    12.000000000000
         C           -3.785350610712    -0.600081421894     0.102721320760    12.000000000000
         H            0.821418389288    -1.968285421894     0.338676320760     1.007825032230
         H            2.762148389288     2.518209578106    -0.373689679240     1.007825032230
         H            4.247786389288     0.570522578106    -0.118751679240     1.007825032230
         H            3.866753389288    -2.104190421894     1.395134320760     1.007825032230
         H            3.036979389288    -2.975854421894     0.100701320760     1.007825032230
         H            4.447647389288    -1.972809421894    -0.267918679240     1.007825032230
         H           -0.946245610712    -1.954438421894    -1.165867679240     1.007825032230
         H            0.592838389288     3.394436578106    -0.206153679240     1.007825032230
         H           -0.762849610712     2.451258578106     0.115106320760     1.007825032230
         H           -3.401375610712    -2.396325421894    -1.039525679240     1.007825032230
         H           -3.783576610712     1.277275578106     1.176917320760     1.007825032230
         H           -4.860014610712    -0.741973421894     0.173345320760     1.007825032230

  Basis Set: AUG-CC-PVTZ
    Blend: AUG-CC-PVTZ
  Basis Set: (AUG-CC-PVTZ AUX)
    Blend: AUG-CC-PVTZ-JKFIT
	 Reference Energy          =    -570.4713610227847767 [Eh]
	 Singles Energy            =      -0.0000000000000000 [Eh]
	 Same-Spin Energy          =      -0.6414749265971557 [Eh]
	 Opposite-Spin Energy      =      -1.9805624276004947 [Eh]
	 Correlation Energy        =      -2.6220373541976505 [Eh]
	 Total Energy              =    -573.0933983769824636 [Eh]

	 ================> DF-SCS-MP2 Energies <==================
	-----------------------------------------------------------
	 SCS Same-Spin Scale       =       0.3333333333333333 [-]
	 SCS Opposite-Spin Scale   =       1.2000000000000000 [-]
	 SCS Same-Spin Energy      =      -0.2138249755323852 [Eh]
	 SCS Opposite-Spin Energy  =      -2.3766749131205938 [Eh]
	 SCS Correlation Energy    =      -2.5904998886529791 [Eh]
	 SCS Total Energy          =    -573.0618609114377477 [Eh]
	-----------------------------------------------------------

  Dipole Moment: [D]
     X:    -1.1625      Y:    -1.0052      Z:     0.0620     Total:     1.5381

*** Psi4 exiting successfully. Buy a developer a beer!
