                               Psi4 1.4a3.dev225

  ==> Input File <==

--------------------------------------------------------------------------
#psi4
#
memory 32 gb

molecule  {
0 1
  N        0.0801310     2.5312230    -0.3913130
  N       -1.9006720     0.7782080     0.6229160
  C        0.3499640     0.1224320    -0.0065570
  C        0.8960730     1.4188800    -0.1658420
  C        2.6063130    -0.8406050     0.1180930
  C        1.2173430    -0.9692250     0.1590540
  C       -1.1077440    -0.1233710    -0.0042630
  C        2.2932590     1.5435480    -0.2281840
  C        3.1306880     0.4434260    -0.0762550
  C        3.5085210    -2.0251140     0.3469700
  C       -1.6410700    -1.2638430    -0.6279320
  C       -3.0109220    -1.5027310    -0.5649580
  C       -3.2228950     0.5407920     0.6622730
  C       -3.8232840    -0.5849970     0.1005040
  H        0.7834850    -1.9532010     0.3364590
  H        2.7242150     2.5332940    -0.3759070
  H        4.2098530     0.5856070    -0.1209690
  H        3.8723937    -1.9838333     1.3797256
  H        2.9990460    -2.9607700     0.0984840
  H        4.4097140    -1.9577250    -0.2701360
  H       -0.9841790    -1.9393540    -1.1680850
  H        0.5549050     3.4095210    -0.2083710
  H       -0.8007830     2.4663430     0.1128890
  H       -3.4393090    -2.3812410    -1.0417430
  H       -3.8215100     1.2923600     1.1747000
  H       -4.8979480    -0.7268890     0.1711280
units angstrom
no_reorient  #important for SAPT in psi4, default
symmetry c1  #important for SAPT in psi4, default
}

set PROPERTIES_ORIGIN ["COM"]
properties('MP2/aug-cc-pvtz', properties = ['dipole'])
--------------------------------------------------------------------------

    Molecular point group: c1
  Charge       = 0
  Multiplicity = 1
  Basis Set: AUG-CC-PVTZ
    Blend: AUG-CC-PVTZ
  Basis Set: (AUG-CC-PVTZ AUX)
    Blend: AUG-CC-PVTZ-JKFIT

    Orbital Energies [Eh]
    ---------------------

    Doubly Occupied:

       1A    -15.567403     2A    -15.547388     3A    -11.288528
       4A    -11.280113     5A    -11.274888     6A    -11.262298
       7A    -11.241508     8A    -11.240726     9A    -11.233104
      10A    -11.232194    11A    -11.231934    12A    -11.226342
      13A    -11.222766    14A    -11.219928    15A     -1.260861
      16A     -1.210351    17A     -1.131621    18A     -1.087727
      19A     -1.062999    20A     -1.016441    21A     -0.992277
      22A     -0.915415    23A     -0.870380    24A     -0.861982
      25A     -0.814483    26A     -0.782940    27A     -0.708647
      28A     -0.689486    29A     -0.681185    30A     -0.660303
      31A     -0.650083    32A     -0.612844    33A     -0.601651
      34A     -0.588811    35A     -0.581722    36A     -0.573210
      37A     -0.572094    38A     -0.549324    39A     -0.531979
      40A     -0.529839    41A     -0.512839    42A     -0.491293
      43A     -0.485511    44A     -0.434755    45A     -0.418646
      46A     -0.387415    47A     -0.366411    48A     -0.316386
      49A     -0.277918

  @DF-RHF Final Energy:  -570.50046026398581

   => Energetics <=

    Nuclear Repulsion Energy =            812.1004193271743361
    One-Electron Energy =               -2384.6038522394128449
    Two-Electron Energy =                1002.0029726482528076
    Total Energy =                       -570.5004602639858149
  Basis Set: (AUG-CC-PVTZ AUX)
    Blend: AUG-CC-PVTZ-RI
    Molecular point group: c1

    Geometry (in Angstrom), charge = 0, multiplicity = 1:

       Center              X                  Y                   Z               Mass
    ------------   -----------------  -----------------  -----------------  -----------------
         N            0.109921530670     2.510536810636    -0.390698413077    14.003074004430
         N           -1.870881469330     0.757521810636     0.623530586923    14.003074004430
         C            0.379754530670     0.101745810636    -0.005942413077    12.000000000000
         C            0.925863530670     1.398193810636    -0.165227413077    12.000000000000
         C            2.636103530670    -0.861291189364     0.118707586923    12.000000000000
         C            1.247133530670    -0.989911189364     0.159668586923    12.000000000000
         C           -1.077953469330    -0.144057189364    -0.003648413077    12.000000000000
         C            2.323049530670     1.522861810636    -0.227569413077    12.000000000000
         C            3.160478530670     0.422739810636    -0.075640413077    12.000000000000
         C            3.538311530670    -2.045800189364     0.347584586923    12.000000000000
         C           -1.611279469330    -1.284529189364    -0.627317413077    12.000000000000
         C           -2.981131469330    -1.523417189364    -0.564343413077    12.000000000000
         C           -3.193104469330     0.520105810636     0.662887586923    12.000000000000
         C           -3.793493469330    -0.605683189364     0.101118586923    12.000000000000
         H            0.813275530670    -1.973887189364     0.337073586923     1.007825032230
         H            2.754005530670     2.512607810636    -0.375292413077     1.007825032230
         H            4.239643530670     0.564920810636    -0.120354413077     1.007825032230
         H            3.902184230670    -2.004519489364     1.380340186923     1.007825032230
         H            3.028836530670    -2.981456189364     0.099098586923     1.007825032230
         H            4.439504530670    -1.978411189364    -0.269521413077     1.007825032230
         H           -0.954388469330    -1.960040189364    -1.167470413077     1.007825032230
         H            0.584695530670     3.388834810636    -0.207756413077     1.007825032230
         H           -0.770992469330     2.445656810636     0.113503586923     1.007825032230
         H           -3.409518469330    -2.401927189364    -1.041128413077     1.007825032230
         H           -3.791719469330     1.271673810636     1.175314586923     1.007825032230
         H           -4.868157469330    -0.747575189364     0.171742586923     1.007825032230

  Basis Set: AUG-CC-PVTZ
    Blend: AUG-CC-PVTZ
  Basis Set: (AUG-CC-PVTZ AUX)
    Blend: AUG-CC-PVTZ-JKFIT
	 Reference Energy          =    -570.5004602639858149 [Eh]
	 Singles Energy            =      -0.0000000000000000 [Eh]
	 Same-Spin Energy          =      -0.6409419249924224 [Eh]
	 Opposite-Spin Energy      =      -1.9778802624798644 [Eh]
	 Correlation Energy        =      -2.6188221874722868 [Eh]
	 Total Energy              =    -573.1192824514580479 [Eh]

	 ================> DF-SCS-MP2 Energies <==================
	-----------------------------------------------------------
	 SCS Same-Spin Scale       =       0.3333333333333333 [-]
	 SCS Opposite-Spin Scale   =       1.2000000000000000 [-]
	 SCS Same-Spin Energy      =      -0.2136473083308075 [Eh]
	 SCS Opposite-Spin Energy  =      -2.3734563149758370 [Eh]
	 SCS Correlation Energy    =      -2.5871036233066445 [Eh]
	 SCS Total Energy          =    -573.0875638872925038 [Eh]
	-----------------------------------------------------------

  Dipole Moment: [D]
     X:    -1.0535      Y:    -0.9570      Z:     0.0682     Total:     1.4249

*** Psi4 exiting successfully. Buy a developer a beer!
