                               Psi4 1.4a3.dev225

  ==> Input File <==

--------------------------------------------------------------------------
#psi4
#
memory 32 gb

molecule  {
0 1
  N        0.0801310     2.5312230    -0.3913130
  N       -1.9006720     0.7782080     0.6229160
  C        0.3499640     0.1224320    -0.0065570
  C        0.8960730     1.4188800    -0.1658420
  C        2.6063130    -0.8406050     0.1180930
  C        1.2173430    -0.9692250     0.1590540
  C       -1.1077440    -0.1233710    -0.0042630
  C        2.2932590     1.5435480    -0.2281840
  C        3.1306880     0.4434260    -0.0762550
  C        3.5085210    -2.0251140     0.3469700
  C       -1.6410700    -1.2638430    -0.6279320
  C       -3.0109220    -1.5027310    -0.5649580
  C       -3.2228950     0.5407920     0.6622730
  C       -3.8232840    -0.5849970     0.1005040
  H        0.7834850    -1.9532010     0.3364590
  H        2.7637682     2.6241330    -0.3894650
  H        4.2098530     0.5856070    -0.1209690
  H        3.8288200    -2.0891060     1.3929170
  H        2.9990460    -2.9607700     0.0984840
  H        4.4097140    -1.9577250    -0.2701360
  H       -0.9841790    -1.9393540    -1.1680850
  H        0.5549050     3.4095210    -0.2083710
  H       -0.8007830     2.4663430     0.1128890
  H       -3.4393090    -2.3812410    -1.0417430
  H       -3.8215100     1.2923600     1.1747000
  H       -4.8979480    -0.7268890     0.1711280
units angstrom
no_reorient  #important for SAPT in psi4, default
symmetry c1  #important for SAPT in psi4, default
}

set PROPERTIES_ORIGIN ["COM"]
properties('MP2/aug-cc-pvtz', properties = ['dipole'])
--------------------------------------------------------------------------

    Molecular point group: c1
  Charge       = 0
  Multiplicity = 1
  Basis Set: AUG-CC-PVTZ
    Blend: AUG-CC-PVTZ
  Basis Set: (AUG-CC-PVTZ AUX)
    Blend: AUG-CC-PVTZ-JKFIT

    Orbital Energies [Eh]
    ---------------------

    Doubly Occupied:

       1A    -15.567817     2A    -15.547570     3A    -11.289081
       4A    -11.280457     5A    -11.276574     6A    -11.262652
       7A    -11.241880     8A    -11.241164     9A    -11.234627
      10A    -11.234150    11A    -11.233254    12A    -11.232975
      13A    -11.227456    14A    -11.220013    15A     -1.261289
      16A     -1.210548    17A     -1.132176    18A     -1.088102
      19A     -1.063192    20A     -1.014878    21A     -0.991952
      22A     -0.915909    23A     -0.870786    24A     -0.862122
      25A     -0.810415    26A     -0.782718    27A     -0.708262
      28A     -0.690057    29A     -0.681232    30A     -0.659963
      31A     -0.649341    32A     -0.607548    33A     -0.600708
      34A     -0.588700    35A     -0.576000    36A     -0.573064
      37A     -0.569860    38A     -0.548522    39A     -0.532759
      40A     -0.529641    41A     -0.513412    42A     -0.493197
      43A     -0.481007    44A     -0.435394    45A     -0.419064
      46A     -0.387832    47A     -0.367042    48A     -0.317015
      49A     -0.279085

  @DF-RHF Final Energy:  -570.49438541856887

   => Energetics <=

    Nuclear Repulsion Energy =            811.4916816861966709
    One-Electron Energy =               -2383.3672104251782002
    Two-Electron Energy =                1001.3811433204126615
    Total Energy =                       -570.4943854185688679
  Basis Set: (AUG-CC-PVTZ AUX)
    Blend: AUG-CC-PVTZ-RI
    Molecular point group: c1

    Geometry (in Angstrom), charge = 0, multiplicity = 1:

       Center              X                  Y                   Z               Mass
    ------------   -----------------  -----------------  -----------------  -----------------
         N            0.109943540228     2.510615825521    -0.390696406186    14.003074004430
         N           -1.870859459772     0.757600825521     0.623532593814    14.003074004430
         C            0.379776540228     0.101824825521    -0.005940406186    12.000000000000
         C            0.925885540228     1.398272825521    -0.165225406186    12.000000000000
         C            2.636125540228    -0.861212174479     0.118709593814    12.000000000000
         C            1.247155540228    -0.989832174479     0.159670593814    12.000000000000
         C           -1.077931459772    -0.143978174479    -0.003646406186    12.000000000000
         C            2.323071540228     1.522940825521    -0.227567406186    12.000000000000
         C            3.160500540228     0.422818825521    -0.075638406186    12.000000000000
         C            3.538333540228    -2.045721174479     0.347586593814    12.000000000000
         C           -1.611257459772    -1.284450174479    -0.627315406186    12.000000000000
         C           -2.981109459772    -1.523338174479    -0.564341406186    12.000000000000
         C           -3.193082459772     0.520184825521     0.662889593814    12.000000000000
         C           -3.793471459772    -0.605604174479     0.101120593814    12.000000000000
         H            0.813297540228    -1.973808174479     0.337075593814     1.007825032230
         H            2.793580740228     2.603525825521    -0.388848406186     1.007825032230
         H            4.239665540228     0.564999825521    -0.120352406186     1.007825032230
         H            3.858632540228    -2.109713174479     1.393533593814     1.007825032230
         H            3.028858540228    -2.981377174479     0.099100593814     1.007825032230
         H            4.439526540228    -1.978332174479    -0.269519406186     1.007825032230
         H           -0.954366459772    -1.959961174479    -1.167468406186     1.007825032230
         H            0.584717540228     3.388913825521    -0.207754406186     1.007825032230
         H           -0.770970459772     2.445735825521     0.113505593814     1.007825032230
         H           -3.409496459772    -2.401848174479    -1.041126406186     1.007825032230
         H           -3.791697459772     1.271752825521     1.175316593814     1.007825032230
         H           -4.868135459772    -0.747496174479     0.171744593814     1.007825032230

  Basis Set: AUG-CC-PVTZ
    Blend: AUG-CC-PVTZ
  Basis Set: (AUG-CC-PVTZ AUX)
    Blend: AUG-CC-PVTZ-JKFIT
	 Reference Energy          =    -570.4943854185688679 [Eh]
	 Singles Energy            =      -0.0000000000000000 [Eh]
	 Same-Spin Energy          =      -0.6410945260973029 [Eh]
	 Opposite-Spin Energy      =      -1.9786730762402158 [Eh]
	 Correlation Energy        =      -2.6197676023375189 [Eh]
	 Total Energy              =    -573.1141530209064285 [Eh]

	 ================> DF-SCS-MP2 Energies <==================
	-----------------------------------------------------------
	 SCS Same-Spin Scale       =       0.3333333333333333 [-]
	 SCS Opposite-Spin Scale   =       1.2000000000000000 [-]
	 SCS Same-Spin Energy      =      -0.2136981753657676 [Eh]
	 SCS Opposite-Spin Energy  =      -2.3744076914882588 [Eh]
	 SCS Correlation Energy    =      -2.5881058668540264 [Eh]
	 SCS Total Energy          =    -573.0824912854228614 [Eh]
	-----------------------------------------------------------

  Dipole Moment: [D]
     X:    -1.1229      Y:    -1.0205      Z:     0.0848     Total:     1.5197

*** Psi4 exiting successfully. Buy a developer a beer!
