                               Psi4 1.4a3.dev225

  ==> Input File <==

--------------------------------------------------------------------------
#psi4
#
memory 32 gb

molecule  {
0 1
  N        0.0801310     2.5312230    -0.3913130
  N       -1.9006720     0.7782080     0.6229160
  C        0.3499640     0.1224320    -0.0065570
  C        0.8960730     1.4188800    -0.1658420
  C        2.6063130    -0.8406050     0.1180930
  C        1.2173430    -0.9692250     0.1590540
  C       -1.1077440    -0.1233710    -0.0042630
  C        2.2932590     1.5435480    -0.2281840
  C        3.1306880     0.4434260    -0.0762550
  C        3.5085210    -2.0251140     0.3469700
  C       -1.6410700    -1.2638430    -0.6279320
  C       -3.0109220    -1.5027310    -0.5649580
  C       -3.2228950     0.5407920     0.6622730
  C       -3.8232840    -0.5849970     0.1005040
  H        0.7834850    -1.9532010     0.3364590
  H        2.7242150     2.5332940    -0.3759070
  H        4.2098530     0.5856070    -0.1209690
  H        3.8288200    -2.0891060     1.3929170
  H        2.9990460    -2.9607700     0.0984840
  H        4.4261846    -1.9564934    -0.2814145
  H       -0.9841790    -1.9393540    -1.1680850
  H        0.5549050     3.4095210    -0.2083710
  H       -0.8007830     2.4663430     0.1128890
  H       -3.4393090    -2.3812410    -1.0417430
  H       -3.8215100     1.2923600     1.1747000
  H       -4.8979480    -0.7268890     0.1711280
units angstrom
no_reorient  #important for SAPT in psi4, default
symmetry c1  #important for SAPT in psi4, default
}

set PROPERTIES_ORIGIN ["COM"]
properties('MP2/aug-cc-pvtz', properties = ['dipole'])
--------------------------------------------------------------------------

    Molecular point group: c1
  Charge       = 0
  Multiplicity = 1
  Basis Set: AUG-CC-PVTZ
    Blend: AUG-CC-PVTZ
  Basis Set: (AUG-CC-PVTZ AUX)
    Blend: AUG-CC-PVTZ-JKFIT

    Orbital Energies [Eh]
    ---------------------

    Doubly Occupied:

       1A    -15.567578     2A    -15.547781     3A    -11.288725
       4A    -11.280268     5A    -11.275463     6A    -11.262442
       7A    -11.241652     8A    -11.240878     9A    -11.233590
      10A    -11.232602    11A    -11.232388    12A    -11.226805
      13A    -11.222762    14A    -11.221930    15A     -1.261051
      16A     -1.210704    17A     -1.131704    18A     -1.087879
      19A     -1.063006    20A     -1.015746    21A     -0.992367
      22A     -0.914366    23A     -0.870594    24A     -0.862126
      25A     -0.814789    26A     -0.783210    27A     -0.708831
      28A     -0.689833    29A     -0.681429    30A     -0.660491
      31A     -0.650074    32A     -0.613638    33A     -0.600323
      34A     -0.589022    35A     -0.581925    36A     -0.573481
      37A     -0.569250    38A     -0.548300    39A     -0.532034
      40A     -0.527930    41A     -0.512716    42A     -0.492994
      43A     -0.485686    44A     -0.435033    45A     -0.418870
      46A     -0.387602    47A     -0.366647    48A     -0.316550
      49A     -0.278571

  @DF-RHF Final Energy:  -570.50121009484735

   => Energetics <=

    Nuclear Repulsion Energy =            811.9232634620856288
    One-Electron Energy =               -2384.2416773300965360
    Two-Electron Energy =                1001.8172037731634418
    Total Energy =                       -570.5012100948473517
  Basis Set: (AUG-CC-PVTZ AUX)
    Blend: AUG-CC-PVTZ-RI
    Molecular point group: c1

    Geometry (in Angstrom), charge = 0, multiplicity = 1:

       Center              X                  Y                   Z               Mass
    ------------   -----------------  -----------------  -----------------  -----------------
         N            0.110069902074     2.511106366298    -0.390708884929    14.003074004430
         N           -1.870733097926     0.758091366298     0.623520115071    14.003074004430
         C            0.379902902074     0.102315366298    -0.005952884929    12.000000000000
         C            0.926011902074     1.398763366298    -0.165237884929    12.000000000000
         C            2.636251902074    -0.860721633702     0.118697115071    12.000000000000
         C            1.247281902074    -0.989341633702     0.159658115071    12.000000000000
         C           -1.077805097926    -0.143487633702    -0.003658884929    12.000000000000
         C            2.323197902074     1.523431366298    -0.227579884929    12.000000000000
         C            3.160626902074     0.423309366298    -0.075650884929    12.000000000000
         C            3.538459902074    -2.045230633702     0.347574115071    12.000000000000
         C           -1.611131097926    -1.283959633702    -0.627327884929    12.000000000000
         C           -2.980983097926    -1.522847633702    -0.564353884929    12.000000000000
         C           -3.192956097926     0.520675366298     0.662877115071    12.000000000000
         C           -3.793345097926    -0.605113633702     0.101108115071    12.000000000000
         H            0.813423902074    -1.973317633702     0.337063115071     1.007825032230
         H            2.754153902074     2.513177366298    -0.375302884929     1.007825032230
         H            4.239791902074     0.565490366298    -0.120364884929     1.007825032230
         H            3.858758902074    -2.109222633702     1.393521115071     1.007825032230
         H            3.028984902074    -2.980886633702     0.099088115071     1.007825032230
         H            4.456123502074    -1.976610033702    -0.280810384929     1.007825032230
         H           -0.954240097926    -1.959470633702    -1.167480884929     1.007825032230
         H            0.584843902074     3.389404366298    -0.207766884929     1.007825032230
         H           -0.770844097926     2.446226366298     0.113493115071     1.007825032230
         H           -3.409370097926    -2.401357633702    -1.041138884929     1.007825032230
         H           -3.791571097926     1.272243366298     1.175304115071     1.007825032230
         H           -4.868009097926    -0.747005633702     0.171732115071     1.007825032230

  Basis Set: AUG-CC-PVTZ
    Blend: AUG-CC-PVTZ
  Basis Set: (AUG-CC-PVTZ AUX)
    Blend: AUG-CC-PVTZ-JKFIT
	 Reference Energy          =    -570.5012100948473517 [Eh]
	 Singles Energy            =      -0.0000000000000000 [Eh]
	 Same-Spin Energy          =      -0.6408344094353754 [Eh]
	 Opposite-Spin Energy      =      -1.9778184932309124 [Eh]
	 Correlation Energy        =      -2.6186529026662879 [Eh]
	 Total Energy              =    -573.1198629975136782 [Eh]

	 ================> DF-SCS-MP2 Energies <==================
	-----------------------------------------------------------
	 SCS Same-Spin Scale       =       0.3333333333333333 [-]
	 SCS Opposite-Spin Scale   =       1.2000000000000000 [-]
	 SCS Same-Spin Energy      =      -0.2136114698117918 [Eh]
	 SCS Opposite-Spin Energy  =      -2.3733821918770950 [Eh]
	 SCS Correlation Energy    =      -2.5869936616888869 [Eh]
	 SCS Total Energy          =    -573.0882037565362452 [Eh]
	-----------------------------------------------------------

  Dipole Moment: [D]
     X:    -1.1100      Y:    -0.9588      Z:     0.0814     Total:     1.4690

*** Psi4 exiting successfully. Buy a developer a beer!
