                               Psi4 1.4a3.dev225

  ==> Input File <==

--------------------------------------------------------------------------
#psi4
#
memory 32 gb

molecule  {
0 1
  N        0.0801310     2.5312230    -0.3913130
  N       -1.9006720     0.7782080     0.6229160
  C        0.3499640     0.1224320    -0.0065570
  C        0.8960730     1.4188800    -0.1658420
  C        2.6063130    -0.8406050     0.1180930
  C        1.2173430    -0.9692250     0.1590540
  C       -1.1077440    -0.1233710    -0.0042630
  C        2.2932590     1.5435480    -0.2281840
  C        3.1306880     0.4434260    -0.0762550
  C        3.5085210    -2.0251140     0.3469700
  C       -1.6410700    -1.2638430    -0.6279320
  C       -3.0109220    -1.5027310    -0.5649580
  C       -3.2228950     0.5407920     0.6622730
  C       -3.8232840    -0.5849970     0.1005040
  H        0.7834850    -1.9532010     0.3364590
  H        2.7242150     2.5332940    -0.3759070
  H        4.2098530     0.5856070    -0.1209690
  H        3.7817371    -2.1936776     1.3946488
  H        2.9990460    -2.9607700     0.0984840
  H        4.4097140    -1.9577250    -0.2701360
  H       -0.9841790    -1.9393540    -1.1680850
  H        0.5549050     3.4095210    -0.2083710
  H       -0.8007830     2.4663430     0.1128890
  H       -3.4393090    -2.3812410    -1.0417430
  H       -3.8215100     1.2923600     1.1747000
  H       -4.8979480    -0.7268890     0.1711280
units angstrom
no_reorient  #important for SAPT in psi4, default
symmetry c1  #important for SAPT in psi4, default
}

set PROPERTIES_ORIGIN ["COM"]
properties('MP2/aug-cc-pvtz', properties = ['dipole'])
--------------------------------------------------------------------------

    Molecular point group: c1
  Charge       = 0
  Multiplicity = 1
  Basis Set: AUG-CC-PVTZ
    Blend: AUG-CC-PVTZ
  Basis Set: (AUG-CC-PVTZ AUX)
    Blend: AUG-CC-PVTZ-JKFIT

    Orbital Energies [Eh]
    ---------------------

    Doubly Occupied:

       1A    -15.567661     2A    -15.547995     3A    -11.288814
       4A    -11.280338     5A    -11.275789     6A    -11.262504
       7A    -11.241718     8A    -11.240941     9A    -11.233826
      10A    -11.232889    11A    -11.232585    12A    -11.227093
      13A    -11.222693    14A    -11.219212    15A     -1.261141
      16A     -1.210889    17A     -1.131770    18A     -1.087946
      19A     -1.063074    20A     -1.015991    21A     -0.992471
      22A     -0.915952    23A     -0.870710    24A     -0.862248
      25A     -0.814985    26A     -0.783938    27A     -0.709201
      28A     -0.690170    29A     -0.681592    30A     -0.660627
      31A     -0.650202    32A     -0.614852    33A     -0.600538
      34A     -0.589263    35A     -0.582284    36A     -0.574596
      37A     -0.568005    38A     -0.547439    39A     -0.531694
      40A     -0.527864    41A     -0.512718    42A     -0.494320
      43A     -0.485621    44A     -0.435020    45A     -0.418946
      46A     -0.387692    47A     -0.366766    48A     -0.316553
      49A     -0.278941

  @DF-RHF Final Energy:  -570.50050090665150

   => Energetics <=

    Nuclear Repulsion Energy =            811.9427359606354457
    One-Electron Energy =               -2384.2663193408466213
    Two-Electron Energy =                1001.8230824735596798
    Total Energy =                       -570.5005009066514958
  Basis Set: (AUG-CC-PVTZ AUX)
    Blend: AUG-CC-PVTZ-RI
    Molecular point group: c1

    Geometry (in Angstrom), charge = 0, multiplicity = 1:

       Center              X                  Y                   Z               Mass
    ------------   -----------------  -----------------  -----------------  -----------------
         N            0.110417815118     2.511685568283    -0.390780107648    14.003074004430
         N           -1.870385184882     0.758670568283     0.623448892352    14.003074004430
         C            0.380250815118     0.102894568283    -0.006024107648    12.000000000000
         C            0.926359815118     1.399342568283    -0.165309107648    12.000000000000
         C            2.636599815118    -0.860142431717     0.118625892352    12.000000000000
         C            1.247629815118    -0.988762431717     0.159586892352    12.000000000000
         C           -1.077457184882    -0.142908431717    -0.003730107648    12.000000000000
         C            2.323545815118     1.524010568283    -0.227651107648    12.000000000000
         C            3.160974815118     0.423888568283    -0.075722107648    12.000000000000
         C            3.538807815118    -2.044651431717     0.347502892352    12.000000000000
         C           -1.610783184882    -1.283380431717    -0.627399107648    12.000000000000
         C           -2.980635184882    -1.522268431717    -0.564425107648    12.000000000000
         C           -3.192608184882     0.521254568283     0.662805892352    12.000000000000
         C           -3.792997184882    -0.604534431717     0.101036892352    12.000000000000
         H            0.813771815118    -1.972738431717     0.336991892352     1.007825032230
         H            2.754501815118     2.513756568283    -0.375374107648     1.007825032230
         H            4.240139815118     0.566069568283    -0.120436107648     1.007825032230
         H            3.812023915118    -2.213215031717     1.395181692352     1.007825032230
         H            3.029332815118    -2.980307431717     0.099016892352     1.007825032230
         H            4.440000815118    -1.977262431717    -0.269603107648     1.007825032230
         H           -0.953892184882    -1.958891431717    -1.167552107648     1.007825032230
         H            0.585191815118     3.389983568283    -0.207838107648     1.007825032230
         H           -0.770496184882     2.446805568283     0.113421892352     1.007825032230
         H           -3.409022184882    -2.400778431717    -1.041210107648     1.007825032230
         H           -3.791223184882     1.272822568283     1.175232892352     1.007825032230
         H           -4.867661184882    -0.746426431717     0.171660892352     1.007825032230

  Basis Set: AUG-CC-PVTZ
    Blend: AUG-CC-PVTZ
  Basis Set: (AUG-CC-PVTZ AUX)
    Blend: AUG-CC-PVTZ-JKFIT
	 Reference Energy          =    -570.5005009066514958 [Eh]
	 Singles Energy            =      -0.0000000000000000 [Eh]
	 Same-Spin Energy          =      -0.6408590074276599 [Eh]
	 Opposite-Spin Energy      =      -1.9776735846346325 [Eh]
	 Correlation Energy        =      -2.6185325920622926 [Eh]
	 Total Energy              =    -573.1190334987137476 [Eh]

	 ================> DF-SCS-MP2 Energies <==================
	-----------------------------------------------------------
	 SCS Same-Spin Scale       =       0.3333333333333333 [-]
	 SCS Opposite-Spin Scale   =       1.2000000000000000 [-]
	 SCS Same-Spin Energy      =      -0.2136196691425533 [Eh]
	 SCS Opposite-Spin Energy  =      -2.3732083015615588 [Eh]
	 SCS Correlation Energy    =      -2.5868279707041122 [Eh]
	 SCS Total Energy          =    -573.0873288773556169 [Eh]
	-----------------------------------------------------------

  Dipole Moment: [D]
     X:    -1.1402      Y:    -0.9775      Z:     0.0819     Total:     1.5041

*** Psi4 exiting successfully. Buy a developer a beer!
