                               Psi4 1.4a3.dev225

  ==> Input File <==

--------------------------------------------------------------------------
#psi4
#
memory 32 gb

molecule  {
0 1
  N        0.0801310     2.5312230    -0.3913130
  N       -1.9006720     0.7782080     0.6229160
  C        0.3499640     0.1224320    -0.0065570
  C        0.8960730     1.4188800    -0.1658420
  C        2.6063130    -0.8406050     0.1180930
  C        1.2173430    -0.9692250     0.1590540
  C       -1.1077440    -0.1233710    -0.0042630
  C        2.2932590     1.5435480    -0.2281840
  C        3.1306880     0.4434260    -0.0762550
  C        3.5085210    -2.0251140     0.3469700
  C       -1.6410700    -1.2638430    -0.6279320
  C       -3.0109220    -1.5027310    -0.5649580
  C       -3.2228950     0.5407920     0.6622730
  C       -3.8146706    -0.5688460     0.1085634
  H        0.7834850    -1.9532010     0.3364590
  H        2.7242150     2.5332940    -0.3759070
  H        4.2098530     0.5856070    -0.1209690
  H        3.8288200    -2.0891060     1.3929170
  H        2.9990460    -2.9607700     0.0984840
  H        4.4097140    -1.9577250    -0.2701360
  H       -0.9841790    -1.9393540    -1.1680850
  H        0.5549050     3.4095210    -0.2083710
  H       -0.8007830     2.4663430     0.1128890
  H       -3.4393090    -2.3812410    -1.0417430
  H       -3.8215100     1.2923600     1.1747000
  H       -4.8979480    -0.7268890     0.1711280
units angstrom
no_reorient  #important for SAPT in psi4, default
symmetry c1  #important for SAPT in psi4, default
}

set PROPERTIES_ORIGIN ["COM"]
properties('MP2/aug-cc-pvtz', properties = ['dipole'])
--------------------------------------------------------------------------

    Molecular point group: c1
  Charge       = 0
  Multiplicity = 1
  Basis Set: AUG-CC-PVTZ
    Blend: AUG-CC-PVTZ
  Basis Set: (AUG-CC-PVTZ AUX)
    Blend: AUG-CC-PVTZ-JKFIT

    Orbital Energies [Eh]
    ---------------------

    Doubly Occupied:

       1A    -15.566827     2A    -15.547694     3A    -11.288949
       4A    -11.277003     5A    -11.275492     6A    -11.263712
       7A    -11.241182     8A    -11.240993     9A    -11.233610
      10A    -11.232667    11A    -11.232413    12A    -11.226731
      13A    -11.222790    14A    -11.219586    15A     -1.261373
      16A     -1.210726    17A     -1.131796    18A     -1.086752
      19A     -1.064137    20A     -1.016248    21A     -0.993488
      22A     -0.915589    23A     -0.870550    24A     -0.862513
      25A     -0.814424    26A     -0.783685    27A     -0.708879
      28A     -0.689851    29A     -0.681325    30A     -0.660270
      31A     -0.649355    32A     -0.613881    33A     -0.600682
      34A     -0.590309    35A     -0.581755    36A     -0.574265
      37A     -0.570326    38A     -0.548582    39A     -0.531496
      40A     -0.527294    41A     -0.512841    42A     -0.492724
      43A     -0.485768    44A     -0.435167    45A     -0.419330
      46A     -0.386129    47A     -0.367965    48A     -0.317166
      49A     -0.278771

  @DF-RHF Final Energy:  -570.50133465759677

   => Energetics <=

    Nuclear Repulsion Energy =            812.2544191032220624
    One-Electron Energy =               -2384.9013880663205782
    Two-Electron Energy =                1002.1456343055017442
    Total Energy =                       -570.5013346575967716
  Basis Set: (AUG-CC-PVTZ AUX)
    Blend: AUG-CC-PVTZ-RI
    Molecular point group: c1

    Geometry (in Angstrom), charge = 0, multiplicity = 1:

       Center              X                  Y                   Z               Mass
    ------------   -----------------  -----------------  -----------------  -----------------
         N            0.109598629428     2.510060354826    -0.391295954599    14.003074004430
         N           -1.871204370572     0.757045354826     0.622933045401    14.003074004430
         C            0.379431629428     0.101269354826    -0.006539954599    12.000000000000
         C            0.925540629428     1.397717354826    -0.165824954599    12.000000000000
         C            2.635780629428    -0.861767645174     0.118110045401    12.000000000000
         C            1.246810629428    -0.990387645174     0.159071045401    12.000000000000
         C           -1.078276370572    -0.144533645174    -0.004245954599    12.000000000000
         C            2.322726629428     1.522385354826    -0.228166954599    12.000000000000
         C            3.160155629428     0.422263354826    -0.076237954599    12.000000000000
         C            3.537988629428    -2.046276645174     0.346987045401    12.000000000000
         C           -1.611602370572    -1.285005645174    -0.627914954599    12.000000000000
         C           -2.981454370572    -1.523893645174    -0.564940954599    12.000000000000
         C           -3.193427370572     0.519629354826     0.662290045401    12.000000000000
         C           -3.785202970572    -0.590008645174     0.108580445401    12.000000000000
         H            0.812952629428    -1.974363645174     0.336476045401     1.007825032230
         H            2.753682629428     2.512131354826    -0.375889954599     1.007825032230
         H            4.239320629428     0.564444354826    -0.120951954599     1.007825032230
         H            3.858287629428    -2.110268645174     1.392934045401     1.007825032230
         H            3.028513629428    -2.981932645174     0.098501045401     1.007825032230
         H            4.439181629428    -1.978887645174    -0.270118954599     1.007825032230
         H           -0.954711370572    -1.960516645174    -1.168067954599     1.007825032230
         H            0.584372629428     3.388358354826    -0.208353954599     1.007825032230
         H           -0.771315370572     2.445180354826     0.112906045401     1.007825032230
         H           -3.409841370572    -2.402403645174    -1.041725954599     1.007825032230
         H           -3.792042370572     1.271197354826     1.174717045401     1.007825032230
         H           -4.868480370572    -0.748051645174     0.171145045401     1.007825032230

  Basis Set: AUG-CC-PVTZ
    Blend: AUG-CC-PVTZ
  Basis Set: (AUG-CC-PVTZ AUX)
    Blend: AUG-CC-PVTZ-JKFIT
	 Reference Energy          =    -570.5013346575967716 [Eh]
	 Singles Energy            =      -0.0000000000000000 [Eh]
	 Same-Spin Energy          =      -0.6408243359263267 [Eh]
	 Opposite-Spin Energy      =      -1.9776618327517919 [Eh]
	 Correlation Energy        =      -2.6184861686781185 [Eh]
	 Total Energy              =    -573.1198208262749176 [Eh]

	 ================> DF-SCS-MP2 Energies <==================
	-----------------------------------------------------------
	 SCS Same-Spin Scale       =       0.3333333333333333 [-]
	 SCS Opposite-Spin Scale   =       1.2000000000000000 [-]
	 SCS Same-Spin Energy      =      -0.2136081119754422 [Eh]
	 SCS Opposite-Spin Energy  =      -2.3731941993021501 [Eh]
	 SCS Correlation Energy    =      -2.5868023112775922 [Eh]
	 SCS Total Energy          =    -573.0881369688743234 [Eh]
	-----------------------------------------------------------

  Dipole Moment: [D]
     X:    -1.0807      Y:    -0.9754      Z:     0.0681     Total:     1.4573

*** Psi4 exiting successfully. Buy a developer a beer!
