                               Psi4 1.4a3.dev225

  ==> Input File <==

--------------------------------------------------------------------------
#psi4
#
memory 32 gb

molecule  {
0 1
  N        0.0801310     2.5312230    -0.3913130
  N       -1.9006720     0.7782080     0.6229160
  C        0.3499640     0.1224320    -0.0065570
  C        0.8960730     1.4188800    -0.1658420
  C        2.6063130    -0.8406050     0.1180930
  C        1.2173430    -0.9692250     0.1590540
  C       -1.1077440    -0.1233710    -0.0042630
  C        2.2932590     1.5435480    -0.2281840
  C        3.1306880     0.4434260    -0.0762550
  C        3.5085210    -2.0251140     0.3469700
  C       -1.6410700    -1.2638430    -0.6279320
  C       -3.0109220    -1.5027310    -0.5649580
  C       -3.2228950     0.5407920     0.6622730
  C       -3.8232840    -0.5849970     0.1005040
  H        0.7755237    -1.9712570     0.3397144
  H        2.7242150     2.5332940    -0.3759070
  H        4.2098530     0.5856070    -0.1209690
  H        3.8288200    -2.0891060     1.3929170
  H        2.9990460    -2.9607700     0.0984840
  H        4.4097140    -1.9577250    -0.2701360
  H       -0.9841790    -1.9393540    -1.1680850
  H        0.5549050     3.4095210    -0.2083710
  H       -0.8007830     2.4663430     0.1128890
  H       -3.4393090    -2.3812410    -1.0417430
  H       -3.8215100     1.2923600     1.1747000
  H       -4.8979480    -0.7268890     0.1711280
units angstrom
no_reorient  #important for SAPT in psi4, default
symmetry c1  #important for SAPT in psi4, default
}

set PROPERTIES_ORIGIN ["COM"]
properties('MP2/aug-cc-pvtz', properties = ['dipole'])
--------------------------------------------------------------------------

    Molecular point group: c1
  Charge       = 0
  Multiplicity = 1
  Basis Set: AUG-CC-PVTZ
    Blend: AUG-CC-PVTZ
  Basis Set: (AUG-CC-PVTZ AUX)
    Blend: AUG-CC-PVTZ-JKFIT

    Orbital Energies [Eh]
    ---------------------

    Doubly Occupied:

       1A    -15.567533     2A    -15.547808     3A    -11.288672
       4A    -11.280193     5A    -11.275542     6A    -11.262353
       7A    -11.241593     8A    -11.240783     9A    -11.235438
      10A    -11.232861    11A    -11.232704    12A    -11.226845
      13A    -11.222800    14A    -11.219489    15A     -1.260996
      16A     -1.210731    17A     -1.131592    18A     -1.087806
      19A     -1.063015    20A     -1.016032    21A     -0.992116
      22A     -0.915332    23A     -0.870347    24A     -0.862087
      25A     -0.813928    26A     -0.783311    27A     -0.708860
      28A     -0.689843    29A     -0.680147    30A     -0.660430
      31A     -0.649964    32A     -0.613434    33A     -0.600471
      34A     -0.589031    35A     -0.580573    36A     -0.573735
      37A     -0.570046    38A     -0.548077    39A     -0.531678
      40A     -0.529426    41A     -0.513043    42A     -0.492870
      43A     -0.485195    44A     -0.435169    45A     -0.418824
      46A     -0.387543    47A     -0.366597    48A     -0.316547
      49A     -0.278638

  @DF-RHF Final Energy:  -570.50102788139725

   => Energetics <=

    Nuclear Repulsion Energy =            811.9124977207598022
    One-Electron Energy =               -2384.2229570368749592
    Two-Electron Energy =                1001.8094314347179079
    Total Energy =                       -570.5010278813972491
  Basis Set: (AUG-CC-PVTZ AUX)
    Blend: AUG-CC-PVTZ-RI
    Molecular point group: c1

    Geometry (in Angstrom), charge = 0, multiplicity = 1:

       Center              X                  Y                   Z               Mass
    ------------   -----------------  -----------------  -----------------  -----------------
         N            0.110203650439     2.511211953050    -0.390788448343    14.003074004430
         N           -1.870599349561     0.758196953050     0.623440551657    14.003074004430
         C            0.380036650439     0.102420953050    -0.006032448343    12.000000000000
         C            0.926145650439     1.398868953050    -0.165317448343    12.000000000000
         C            2.636385650439    -0.860616046950     0.118617551657    12.000000000000
         C            1.247415650439    -0.989236046950     0.159578551657    12.000000000000
         C           -1.077671349561    -0.143382046950    -0.003738448343    12.000000000000
         C            2.323331650439     1.523536953050    -0.227659448343    12.000000000000
         C            3.160760650439     0.423414953050    -0.075730448343    12.000000000000
         C            3.538593650439    -2.045125046950     0.347494551657    12.000000000000
         C           -1.610997349561    -1.283854046950    -0.627407448343    12.000000000000
         C           -2.980849349561    -1.522742046950    -0.564433448343    12.000000000000
         C           -3.192822349561     0.520780953050     0.662797551657    12.000000000000
         C           -3.793211349561    -0.605008046950     0.101028551657    12.000000000000
         H            0.805596350439    -1.991268046950     0.340238951657     1.007825032230
         H            2.754287650439     2.513282953050    -0.375382448343     1.007825032230
         H            4.239925650439     0.565595953050    -0.120444448343     1.007825032230
         H            3.858892650439    -2.109117046950     1.393441551657     1.007825032230
         H            3.029118650439    -2.980781046950     0.099008551657     1.007825032230
         H            4.439786650439    -1.977736046950    -0.269611448343     1.007825032230
         H           -0.954106349561    -1.959365046950    -1.167560448343     1.007825032230
         H            0.584977650439     3.389509953050    -0.207846448343     1.007825032230
         H           -0.770710349561     2.446331953050     0.113413551657     1.007825032230
         H           -3.409236349561    -2.401252046950    -1.041218448343     1.007825032230
         H           -3.791437349561     1.272348953050     1.175224551657     1.007825032230
         H           -4.867875349561    -0.746900046950     0.171652551657     1.007825032230

  Basis Set: AUG-CC-PVTZ
    Blend: AUG-CC-PVTZ
  Basis Set: (AUG-CC-PVTZ AUX)
    Blend: AUG-CC-PVTZ-JKFIT
	 Reference Energy          =    -570.5010278813972491 [Eh]
	 Singles Energy            =      -0.0000000000000000 [Eh]
	 Same-Spin Energy          =      -0.6409095993139974 [Eh]
	 Opposite-Spin Energy      =      -1.9778844353880840 [Eh]
	 Correlation Energy        =      -2.6187940347020815 [Eh]
	 Total Energy              =    -573.1198219160993403 [Eh]

	 ================> DF-SCS-MP2 Energies <==================
	-----------------------------------------------------------
	 SCS Same-Spin Scale       =       0.3333333333333333 [-]
	 SCS Opposite-Spin Scale   =       1.2000000000000000 [-]
	 SCS Same-Spin Energy      =      -0.2136365331046658 [Eh]
	 SCS Opposite-Spin Energy  =      -2.3734613224657006 [Eh]
	 SCS Correlation Energy    =      -2.5870978555703665 [Eh]
	 SCS Total Energy          =    -573.0881257369676405 [Eh]
	-----------------------------------------------------------

  Dipole Moment: [D]
     X:    -1.0931      Y:    -0.9557      Z:     0.0759     Total:     1.4540

*** Psi4 exiting successfully. Buy a developer a beer!
