                               Psi4 1.4a3.dev225

  ==> Input File <==

--------------------------------------------------------------------------
#psi4
#
memory 32 gb

molecule  {
0 1
  N        0.0801310     2.5312230    -0.3913130
  N       -1.9006720     0.7782080     0.6229160
  C        0.3499640     0.1224320    -0.0065570
  C        0.8960730     1.4188800    -0.1658420
  C        2.6063130    -0.8406050     0.1180930
  C        1.2173430    -0.9692250     0.1590540
  C       -1.1077440    -0.1233710    -0.0042630
  C        2.2932590     1.5435480    -0.2281840
  C        3.1306880     0.4434260    -0.0762550
  C        3.5085210    -2.0251140     0.3469700
  C       -1.6410700    -1.2638430    -0.6279320
  C       -3.0109220    -1.5027310    -0.5649580
  C       -3.2228950     0.5407920     0.6622730
  C       -3.8232840    -0.5849970     0.1005040
  H        0.8033883    -1.9080610     0.3283205
  H        2.7242150     2.5332940    -0.3759070
  H        4.2098530     0.5856070    -0.1209690
  H        3.8288200    -2.0891060     1.3929170
  H        2.9990460    -2.9607700     0.0984840
  H        4.4097140    -1.9577250    -0.2701360
  H       -0.9841790    -1.9393540    -1.1680850
  H        0.5549050     3.4095210    -0.2083710
  H       -0.8007830     2.4663430     0.1128890
  H       -3.4393090    -2.3812410    -1.0417430
  H       -3.8215100     1.2923600     1.1747000
  H       -4.8979480    -0.7268890     0.1711280
units angstrom
no_reorient  #important for SAPT in psi4, default
symmetry c1  #important for SAPT in psi4, default
}

set PROPERTIES_ORIGIN ["COM"]
properties('MP2/aug-cc-pvtz', properties = ['dipole'])
--------------------------------------------------------------------------

    Molecular point group: c1
  Charge       = 0
  Multiplicity = 1
  Basis Set: AUG-CC-PVTZ
    Blend: AUG-CC-PVTZ
  Basis Set: (AUG-CC-PVTZ AUX)
    Blend: AUG-CC-PVTZ-JKFIT

    Orbital Energies [Eh]
    ---------------------

    Doubly Occupied:

       1A    -15.567539     2A    -15.547507     3A    -11.288684
       4A    -11.280311     5A    -11.274999     6A    -11.262518
       7A    -11.241664     8A    -11.240957     9A    -11.232346
      10A    -11.232158    11A    -11.227257    12A    -11.225873
      13A    -11.222516    14A    -11.219539    15A     -1.261030
      16A     -1.210434    17A     -1.131978    18A     -1.087914
      19A     -1.063044    20A     -1.016447    21A     -0.993116
      22A     -0.916172    23A     -0.871121    24A     -0.862174
      25A     -0.816984    26A     -0.783694    27A     -0.709088
      28A     -0.689654    29A     -0.684885    30A     -0.660537
      31A     -0.650545    32A     -0.614018    33A     -0.600952
      34A     -0.589082    35A     -0.585286    36A     -0.573685
      37A     -0.570044    38A     -0.548603    39A     -0.533406
      40A     -0.529382    41A     -0.512850    42A     -0.493105
      43A     -0.486705    44A     -0.434842    45A     -0.418823
      46A     -0.387604    47A     -0.366614    48A     -0.316332
      49A     -0.278267

  @DF-RHF Final Energy:  -570.50112805185006

   => Energetics <=

    Nuclear Repulsion Energy =            812.2749440833983954
    One-Electron Energy =               -2384.9275677468649519
    Two-Electron Energy =                1002.1514956116164967
    Total Energy =                       -570.5011280518500598
  Basis Set: (AUG-CC-PVTZ AUX)
    Blend: AUG-CC-PVTZ-RI
    Molecular point group: c1

    Geometry (in Angstrom), charge = 0, multiplicity = 1:

       Center              X                  Y                   Z               Mass
    ------------   -----------------  -----------------  -----------------  -----------------
         N            0.110051110330     2.510865997080    -0.390726074336    14.003074004430
         N           -1.870751889670     0.757850997080     0.623502925664    14.003074004430
         C            0.379884110330     0.102074997080    -0.005970074336    12.000000000000
         C            0.925993110330     1.398522997080    -0.165255074336    12.000000000000
         C            2.636233110330    -0.860962002920     0.118679925664    12.000000000000
         C            1.247263110330    -0.989582002920     0.159640925664    12.000000000000
         C           -1.077823889670    -0.143728002920    -0.003676074336    12.000000000000
         C            2.323179110330     1.523190997080    -0.227597074336    12.000000000000
         C            3.160608110330     0.423068997080    -0.075668074336    12.000000000000
         C            3.538441110330    -2.045471002920     0.347556925664    12.000000000000
         C           -1.611149889670    -1.284200002920    -0.627345074336    12.000000000000
         C           -2.981001889670    -1.523088002920    -0.564371074336    12.000000000000
         C           -3.192974889670     0.520434997080     0.662859925664    12.000000000000
         C           -3.793363889670    -0.605354002920     0.101090925664    12.000000000000
         H            0.833308410330    -1.928418002920     0.328907425664     1.007825032230
         H            2.754135110330     2.512936997080    -0.375320074336     1.007825032230
         H            4.239773110330     0.565249997080    -0.120382074336     1.007825032230
         H            3.858740110330    -2.109463002920     1.393503925664     1.007825032230
         H            3.028966110330    -2.981127002920     0.099070925664     1.007825032230
         H            4.439634110330    -1.978082002920    -0.269549074336     1.007825032230
         H           -0.954258889670    -1.959711002920    -1.167498074336     1.007825032230
         H            0.584825110330     3.389163997080    -0.207784074336     1.007825032230
         H           -0.770862889670     2.445985997080     0.113475925664     1.007825032230
         H           -3.409388889670    -2.401598002920    -1.041156074336     1.007825032230
         H           -3.791589889670     1.272002997080     1.175286925664     1.007825032230
         H           -4.868027889670    -0.747246002920     0.171714925664     1.007825032230

  Basis Set: AUG-CC-PVTZ
    Blend: AUG-CC-PVTZ
  Basis Set: (AUG-CC-PVTZ AUX)
    Blend: AUG-CC-PVTZ-JKFIT
	 Reference Energy          =    -570.5011280518500598 [Eh]
	 Singles Energy            =      -0.0000000000000000 [Eh]
	 Same-Spin Energy          =      -0.6406656419056618 [Eh]
	 Opposite-Spin Energy      =      -1.9772755153699686 [Eh]
	 Correlation Energy        =      -2.6179411572756304 [Eh]
	 Total Energy              =    -573.1190692091256551 [Eh]

	 ================> DF-SCS-MP2 Energies <==================
	-----------------------------------------------------------
	 SCS Same-Spin Scale       =       0.3333333333333333 [-]
	 SCS Opposite-Spin Scale   =       1.2000000000000000 [-]
	 SCS Same-Spin Energy      =      -0.2135552139685539 [Eh]
	 SCS Opposite-Spin Energy  =      -2.3727306184439620 [Eh]
	 SCS Correlation Energy    =      -2.5862858324125160 [Eh]
	 SCS Total Energy          =    -573.0874138842625598 [Eh]
	-----------------------------------------------------------

  Dipole Moment: [D]
     X:    -1.1059      Y:    -0.9812      Z:     0.0809     Total:     1.4807

*** Psi4 exiting successfully. Buy a developer a beer!
