                               Psi4 1.4a3.dev225

  ==> Input File <==

--------------------------------------------------------------------------
#psi4
#
memory 32 gb

molecule  {
0 1
  N        0.0801310     2.5312230    -0.3913130
  N       -1.9006720     0.7782080     0.6229160
  C        0.3499640     0.1224320    -0.0065570
  C        0.8960730     1.4188800    -0.1658420
  C        2.6063130    -0.8406050     0.1180930
  C        1.2173430    -0.9692250     0.1590540
  C       -1.1077440    -0.1233710    -0.0042630
  C        2.2932590     1.5435480    -0.2281840
  C        3.1306880     0.4434260    -0.0762550
  C        3.5085210    -2.0251140     0.3469700
  C       -1.6410700    -1.2638430    -0.6279320
  C       -3.0109220    -1.5027310    -0.5649580
  C       -3.2228950     0.5407920     0.6622730
  C       -3.8448176    -0.6253746     0.0803556
  H        0.7834850    -1.9532010     0.3364590
  H        2.7242150     2.5332940    -0.3759070
  H        4.2098530     0.5856070    -0.1209690
  H        3.8288200    -2.0891060     1.3929170
  H        2.9990460    -2.9607700     0.0984840
  H        4.4097140    -1.9577250    -0.2701360
  H       -0.9841790    -1.9393540    -1.1680850
  H        0.5549050     3.4095210    -0.2083710
  H       -0.8007830     2.4663430     0.1128890
  H       -3.4393090    -2.3812410    -1.0417430
  H       -3.8215100     1.2923600     1.1747000
  H       -4.8979480    -0.7268890     0.1711280
units angstrom
no_reorient  #important for SAPT in psi4, default
symmetry c1  #important for SAPT in psi4, default
}

set PROPERTIES_ORIGIN ["COM"]
properties('MP2/aug-cc-pvtz', properties = ['dipole'])
--------------------------------------------------------------------------

    Molecular point group: c1
  Charge       = 0
  Multiplicity = 1
  Basis Set: AUG-CC-PVTZ
    Blend: AUG-CC-PVTZ
  Basis Set: (AUG-CC-PVTZ AUX)
    Blend: AUG-CC-PVTZ-JKFIT

    Orbital Energies [Eh]
    ---------------------

    Doubly Occupied:

       1A    -15.569193     2A    -15.547785     3A    -11.288067
       4A    -11.287612     5A    -11.275134     6A    -11.259147
       7A    -11.242970     8A    -11.239978     9A    -11.233155
      10A    -11.232290    11A    -11.231988    12A    -11.226390
      13A    -11.222532    14A    -11.219309    15A     -1.260222
      16A     -1.210463    17A     -1.131396    18A     -1.090557
      19A     -1.060638    20A     -1.015855    21A     -0.989895
      22A     -0.915443    23A     -0.872335    24A     -0.859324
      25A     -0.815338    26A     -0.782747    27A     -0.709109
      28A     -0.689848    29A     -0.681686    30A     -0.662094
      31A     -0.651140    32A     -0.612795    33A     -0.600376
      34A     -0.586896    35A     -0.582476    36A     -0.572154
      37A     -0.568151    38A     -0.547880    39A     -0.537469
      40A     -0.530232    41A     -0.513014    42A     -0.493123
      43A     -0.485497    44A     -0.434820    45A     -0.417074
      46A     -0.391395    47A     -0.363630    48A     -0.314830
      49A     -0.277938

  @DF-RHF Final Energy:  -570.49850320120788

   => Energetics <=

    Nuclear Repulsion Energy =            811.4315888796649006
    One-Electron Energy =               -2383.2534010122381005
    Two-Electron Energy =                1001.3233089313652044
    Total Energy =                       -570.4985032012078818
  Basis Set: (AUG-CC-PVTZ AUX)
    Blend: AUG-CC-PVTZ-RI
    Molecular point group: c1

    Geometry (in Angstrom), charge = 0, multiplicity = 1:

       Center              X                  Y                   Z               Mass
    ------------   -----------------  -----------------  -----------------  -----------------
         N            0.111563669650     2.513744999158    -0.389457315213    14.003074004430
         N           -1.869239330350     0.760729999158     0.624771684787    14.003074004430
         C            0.381396669650     0.104953999158    -0.004701315213    12.000000000000
         C            0.927505669650     1.401401999158    -0.163986315213    12.000000000000
         C            2.637745669650    -0.858083000842     0.119948684787    12.000000000000
         C            1.248775669650    -0.986703000842     0.160909684787    12.000000000000
         C           -1.076311330350    -0.140849000842    -0.002407315213    12.000000000000
         C            2.324691669650     1.526069999158    -0.226328315213    12.000000000000
         C            3.162120669650     0.425947999158    -0.074399315213    12.000000000000
         C            3.539953669650    -2.042592000842     0.348825684787    12.000000000000
         C           -1.609637330350    -1.281321000842    -0.626076315213    12.000000000000
         C           -2.979489330350    -1.520209000842    -0.563102315213    12.000000000000
         C           -3.191462330350     0.523313999158     0.664128684787    12.000000000000
         C           -3.813384930350    -0.642852600842     0.082211284787    12.000000000000
         H            0.814917669650    -1.970679000842     0.338314684787     1.007825032230
         H            2.755647669650     2.515815999158    -0.374051315213     1.007825032230
         H            4.241285669650     0.568128999158    -0.119113315213     1.007825032230
         H            3.860252669650    -2.106584000842     1.394772684787     1.007825032230
         H            3.030478669650    -2.978248000842     0.100339684787     1.007825032230
         H            4.441146669650    -1.975203000842    -0.268280315213     1.007825032230
         H           -0.952746330350    -1.956832000842    -1.166229315213     1.007825032230
         H            0.586337669650     3.392042999158    -0.206515315213     1.007825032230
         H           -0.769350330350     2.448864999158     0.114744684787     1.007825032230
         H           -3.407876330350    -2.398719000842    -1.039887315213     1.007825032230
         H           -3.790077330350     1.274881999158     1.176555684787     1.007825032230
         H           -4.866515330350    -0.744367000842     0.172983684787     1.007825032230

  Basis Set: AUG-CC-PVTZ
    Blend: AUG-CC-PVTZ
  Basis Set: (AUG-CC-PVTZ AUX)
    Blend: AUG-CC-PVTZ-JKFIT
	 Reference Energy          =    -570.4985032012078818 [Eh]
	 Singles Energy            =      -0.0000000000000000 [Eh]
	 Same-Spin Energy          =      -0.6408127376983480 [Eh]
	 Opposite-Spin Energy      =      -1.9779106588311615 [Eh]
	 Correlation Energy        =      -2.6187233965295094 [Eh]
	 Total Energy              =    -573.1172265977373854 [Eh]

	 ================> DF-SCS-MP2 Energies <==================
	-----------------------------------------------------------
	 SCS Same-Spin Scale       =       0.3333333333333333 [-]
	 SCS Opposite-Spin Scale   =       1.2000000000000000 [-]
	 SCS Same-Spin Energy      =      -0.2136042458994493 [Eh]
	 SCS Opposite-Spin Energy  =      -2.3734927905973935 [Eh]
	 SCS Correlation Energy    =      -2.5870970364968429 [Eh]
	 SCS Total Energy          =    -573.0856002377047389 [Eh]
	-----------------------------------------------------------

  Dipole Moment: [D]
     X:    -1.1312      Y:    -0.9325      Z:     0.1012     Total:     1.4695

*** Psi4 exiting successfully. Buy a developer a beer!
