                               Psi4 1.4a3.dev225

  ==> Input File <==

--------------------------------------------------------------------------
#psi4
#
memory 32 gb

molecule  {
0 1
  N        0.0801310     2.5312230    -0.3913130
  N       -1.9006720     0.7782080     0.6229160
  C        0.3499640     0.1224320    -0.0065570
  C        0.8960730     1.4188800    -0.1658420
  C        2.6063130    -0.8406050     0.1180930
  C        1.2173430    -0.9692250     0.1590540
  C       -1.1077440    -0.1233710    -0.0042630
  C        2.2932590     1.5435480    -0.2281840
  C        3.1005844     0.4829728    -0.0817165
  C        3.5085210    -2.0251140     0.3469700
  C       -1.6410700    -1.2638430    -0.6279320
  C       -3.0109220    -1.5027310    -0.5649580
  C       -3.2228950     0.5407920     0.6622730
  C       -3.8232840    -0.5849970     0.1005040
  H        0.7834850    -1.9532010     0.3364590
  H        2.7242150     2.5332940    -0.3759070
  H        4.2098530     0.5856070    -0.1209690
  H        3.8288200    -2.0891060     1.3929170
  H        2.9990460    -2.9607700     0.0984840
  H        4.4097140    -1.9577250    -0.2701360
  H       -0.9841790    -1.9393540    -1.1680850
  H        0.5549050     3.4095210    -0.2083710
  H       -0.8007830     2.4663430     0.1128890
  H       -3.4393090    -2.3812410    -1.0417430
  H       -3.8215100     1.2923600     1.1747000
  H       -4.8979480    -0.7268890     0.1711280
units angstrom
no_reorient  #important for SAPT in psi4, default
symmetry c1  #important for SAPT in psi4, default
}

set PROPERTIES_ORIGIN ["COM"]
properties('MP2/aug-cc-pvtz', properties = ['dipole'])
--------------------------------------------------------------------------

    Molecular point group: c1
  Charge       = 0
  Multiplicity = 1
  Basis Set: AUG-CC-PVTZ
    Blend: AUG-CC-PVTZ
  Basis Set: (AUG-CC-PVTZ AUX)
    Blend: AUG-CC-PVTZ-JKFIT

    Orbital Energies [Eh]
    ---------------------

    Doubly Occupied:

       1A    -15.566780     2A    -15.548948     3A    -11.288005
       4A    -11.279694     5A    -11.276456     6A    -11.261867
       7A    -11.240894     8A    -11.240085     9A    -11.232440
      10A    -11.231891    11A    -11.230140    12A    -11.228113
      13A    -11.220593    14A    -11.219027    15A     -1.260405
      16A     -1.211938    17A     -1.132260    18A     -1.087216
      19A     -1.062946    20A     -1.021181    21A     -0.992783
      22A     -0.915068    23A     -0.868473    24A     -0.861701
      25A     -0.812694    26A     -0.785067    27A     -0.708723
      28A     -0.691098    29A     -0.680094    30A     -0.660088
      31A     -0.648924    32A     -0.615074    33A     -0.601173
      34A     -0.587907    35A     -0.581107    36A     -0.573030
      37A     -0.569475    38A     -0.547972    39A     -0.534990
      40A     -0.528760    41A     -0.514208    42A     -0.496742
      43A     -0.477382    44A     -0.435573    45A     -0.418191
      46A     -0.387555    47A     -0.368226    48A     -0.320926
      49A     -0.275131

  @DF-RHF Final Energy:  -570.49881248218389

   => Energetics <=

    Nuclear Repulsion Energy =            812.4575229270587897
    One-Electron Energy =               -2385.3146433676060951
    Two-Electron Energy =                1002.3583079583634117
    Total Energy =                       -570.4988124821838937
  Basis Set: (AUG-CC-PVTZ AUX)
    Blend: AUG-CC-PVTZ-RI
    Molecular point group: c1

    Geometry (in Angstrom), charge = 0, multiplicity = 1:

       Center              X                  Y                   Z               Mass
    ------------   -----------------  -----------------  -----------------  -----------------
         N            0.112122278955     2.508535370979    -0.390414635982    14.003074004430
         N           -1.868680721045     0.755520370979     0.623814364018    14.003074004430
         C            0.381955278955     0.099744370979    -0.005658635982    12.000000000000
         C            0.928064278955     1.396192370979    -0.164943635982    12.000000000000
         C            2.638304278955    -0.863292629021     0.118991364018    12.000000000000
         C            1.249334278955    -0.991912629021     0.159952364018    12.000000000000
         C           -1.075752721045    -0.146058629021    -0.003364635982    12.000000000000
         C            2.325250278955     1.520860370979    -0.227285635982    12.000000000000
         C            3.132575678955     0.460285170979    -0.080818135982    12.000000000000
         C            3.540512278955    -2.047801629021     0.347868364018    12.000000000000
         C           -1.609078721045    -1.286530629021    -0.627033635982    12.000000000000
         C           -2.978930721045    -1.525418629021    -0.564059635982    12.000000000000
         C           -3.190903721045     0.518104370979     0.663171364018    12.000000000000
         C           -3.791292721045    -0.607684629021     0.101402364018    12.000000000000
         H            0.815476278955    -1.975888629021     0.337357364018     1.007825032230
         H            2.756206278955     2.510606370979    -0.375008635982     1.007825032230
         H            4.241844278955     0.562919370979    -0.120070635982     1.007825032230
         H            3.860811278955    -2.111793629021     1.393815364018     1.007825032230
         H            3.031037278955    -2.983457629021     0.099382364018     1.007825032230
         H            4.441705278955    -1.980412629021    -0.269237635982     1.007825032230
         H           -0.952187721045    -1.962041629021    -1.167186635982     1.007825032230
         H            0.586896278955     3.386833370979    -0.207472635982     1.007825032230
         H           -0.768791721045     2.443655370979     0.113787364018     1.007825032230
         H           -3.407317721045    -2.403928629021    -1.040844635982     1.007825032230
         H           -3.789518721045     1.269672370979     1.175598364018     1.007825032230
         H           -4.865956721045    -0.749576629021     0.172026364018     1.007825032230

  Basis Set: AUG-CC-PVTZ
    Blend: AUG-CC-PVTZ
  Basis Set: (AUG-CC-PVTZ AUX)
    Blend: AUG-CC-PVTZ-JKFIT
	 Reference Energy          =    -570.4988124821838937 [Eh]
	 Singles Energy            =      -0.0000000000000000 [Eh]
	 Same-Spin Energy          =      -0.6407054473033089 [Eh]
	 Opposite-Spin Energy      =      -1.9775550820467385 [Eh]
	 Correlation Energy        =      -2.6182605293500476 [Eh]
	 Total Energy              =    -573.1170730115339893 [Eh]

	 ================> DF-SCS-MP2 Energies <==================
	-----------------------------------------------------------
	 SCS Same-Spin Scale       =       0.3333333333333333 [-]
	 SCS Opposite-Spin Scale   =       1.2000000000000000 [-]
	 SCS Same-Spin Energy      =      -0.2135684824344363 [Eh]
	 SCS Opposite-Spin Energy  =      -2.3730660984560861 [Eh]
	 SCS Correlation Energy    =      -2.5866345808905225 [Eh]
	 SCS Total Energy          =    -573.0854470630744117 [Eh]
	-----------------------------------------------------------

  Dipole Moment: [D]
     X:    -1.0514      Y:    -0.9435      Z:     0.0753     Total:     1.4147

*** Psi4 exiting successfully. Buy a developer a beer!
