                               Psi4 1.4a3.dev225

  ==> Input File <==

--------------------------------------------------------------------------
#psi4
#
memory 32 gb

molecule  {
0 1
  N        0.0801310     2.5312230    -0.3913130
  N       -1.9006720     0.7782080     0.6229160
  C        0.3499640     0.1224320    -0.0065570
  C        0.8960730     1.4188800    -0.1658420
  C        2.6063130    -0.8406050     0.1180930
  C        1.2173430    -0.9692250     0.1590540
  C       -1.1077440    -0.1233710    -0.0042630
  C        2.2932590     1.5435480    -0.2281840
  C        3.1306880     0.4434260    -0.0762550
  C        3.5085210    -2.0251140     0.3469700
  C       -1.6410700    -1.2638430    -0.6279320
  C       -3.0109220    -1.5027310    -0.5649580
  C       -3.2228950     0.5407920     0.6622730
  C       -3.8232840    -0.5849970     0.1005040
  H        0.7834850    -1.9532010     0.3364590
  H        2.7242150     2.5332940    -0.3759070
  H        4.2098530     0.5856070    -0.1209690
  H        3.8288200    -2.0891060     1.3929170
  H        2.9990460    -2.9607700     0.0984840
  H        4.4097140    -1.9577250    -0.2701360
  H       -0.9841790    -1.9393540    -1.1680850
  H        0.5549050     3.4095210    -0.2083710
  H       -0.8007830     2.4663430     0.1128890
  H       -3.4393090    -2.3812410    -1.0417430
  H       -3.8215100     1.2923600     1.1747000
  H       -5.0958077    -0.7530132     0.1841308
units angstrom
no_reorient  #important for SAPT in psi4, default
symmetry c1  #important for SAPT in psi4, default
}

set PROPERTIES_ORIGIN ["COM"]
properties('MP2/aug-cc-pvtz', properties = ['dipole'])
--------------------------------------------------------------------------

    Molecular point group: c1
  Charge       = 0
  Multiplicity = 1
  Basis Set: AUG-CC-PVTZ
    Blend: AUG-CC-PVTZ
  Basis Set: (AUG-CC-PVTZ AUX)
    Blend: AUG-CC-PVTZ-JKFIT

    Orbital Energies [Eh]
    ---------------------

    Doubly Occupied:

       1A    -15.569276     2A    -15.548297     3A    -11.289770
       4A    -11.282395     5A    -11.275966     6A    -11.264870
       7A    -11.262651     8A    -11.242447     9A    -11.234080
      10A    -11.233068    11A    -11.232899    12A    -11.227131
      13A    -11.223214    14A    -11.219876    15A     -1.262461
      16A     -1.211277    17A     -1.132227    18A     -1.087469
      19A     -1.062776    20A     -1.016541    21A     -0.990760
      22A     -0.915784    23A     -0.866165    24A     -0.863456
      25A     -0.813732    26A     -0.783937    27A     -0.705029
      28A     -0.690343    29A     -0.680211    30A     -0.655100
      31A     -0.640150    32A     -0.613973    33A     -0.601177
      34A     -0.584753    35A     -0.576492    36A     -0.574714
      37A     -0.570749    38A     -0.549112    39A     -0.531332
      40A     -0.518807    41A     -0.511064    42A     -0.492516
      43A     -0.486268    44A     -0.435581    45A     -0.419114
      46A     -0.389059    47A     -0.367690    48A     -0.317242
      49A     -0.279135

  @DF-RHF Final Energy:  -570.47939559811925

   => Energetics <=

    Nuclear Repulsion Energy =            811.0509734360766743
    One-Electron Energy =               -2382.4564638300280421
    Two-Electron Energy =                1000.9260947958321140
    Total Energy =                       -570.4793955981192539
  Basis Set: (AUG-CC-PVTZ AUX)
    Blend: AUG-CC-PVTZ-RI
    Molecular point group: c1

    Geometry (in Angstrom), charge = 0, multiplicity = 1:

       Center              X                  Y                   Z               Mass
    ------------   -----------------  -----------------  -----------------  -----------------
         N            0.111243217581     2.511256121066    -0.390841808859    14.003074004430
         N           -1.869559782419     0.758241121066     0.623387191141    14.003074004430
         C            0.381076217581     0.102465121066    -0.006085808859    12.000000000000
         C            0.927185217581     1.398913121066    -0.165370808859    12.000000000000
         C            2.637425217581    -0.860571878934     0.118564191141    12.000000000000
         C            1.248455217581    -0.989191878934     0.159525191141    12.000000000000
         C           -1.076631782419    -0.143337878934    -0.003791808859    12.000000000000
         C            2.324371217581     1.523581121066    -0.227712808859    12.000000000000
         C            3.161800217581     0.423459121066    -0.075783808859    12.000000000000
         C            3.539633217581    -2.045080878934     0.347441191141    12.000000000000
         C           -1.609957782419    -1.283809878934    -0.627460808859    12.000000000000
         C           -2.979809782419    -1.522697878934    -0.564486808859    12.000000000000
         C           -3.191782782419     0.520825121066     0.662744191141    12.000000000000
         C           -3.792171782419    -0.604963878934     0.100975191141    12.000000000000
         H            0.814597217581    -1.973167878934     0.336930191141     1.007825032230
         H            2.755327217581     2.513327121066    -0.375435808859     1.007825032230
         H            4.240965217581     0.565640121066    -0.120497808859     1.007825032230
         H            3.859932217581    -2.109072878934     1.393388191141     1.007825032230
         H            3.030158217581    -2.980736878934     0.098955191141     1.007825032230
         H            4.440826217581    -1.977691878934    -0.269664808859     1.007825032230
         H           -0.953066782419    -1.959320878934    -1.167613808859     1.007825032230
         H            0.586017217581     3.389554121066    -0.207899808859     1.007825032230
         H           -0.769670782419     2.446376121066     0.113360191141     1.007825032230
         H           -3.408196782419    -2.401207878934    -1.041271808859     1.007825032230
         H           -3.790397782419     1.272393121066     1.175171191141     1.007825032230
         H           -5.064695482419    -0.772980078934     0.184601991141     1.007825032230

  Basis Set: AUG-CC-PVTZ
    Blend: AUG-CC-PVTZ
  Basis Set: (AUG-CC-PVTZ AUX)
    Blend: AUG-CC-PVTZ-JKFIT
	 Reference Energy          =    -570.4793955981192539 [Eh]
	 Singles Energy            =      -0.0000000000000000 [Eh]
	 Same-Spin Energy          =      -0.6413112099709666 [Eh]
	 Opposite-Spin Energy      =      -1.9798426625455809 [Eh]
	 Correlation Energy        =      -2.6211538725165475 [Eh]
	 Total Energy              =    -573.1005494706357695 [Eh]

	 ================> DF-SCS-MP2 Energies <==================
	-----------------------------------------------------------
	 SCS Same-Spin Scale       =       0.3333333333333333 [-]
	 SCS Opposite-Spin Scale   =       1.2000000000000000 [-]
	 SCS Same-Spin Energy      =      -0.2137704033236555 [Eh]
	 SCS Opposite-Spin Energy  =      -2.3758111950546970 [Eh]
	 SCS Correlation Energy    =      -2.5895815983783526 [Eh]
	 SCS Total Energy          =    -573.0689771964975989 [Eh]
	-----------------------------------------------------------

  Dipole Moment: [D]
     X:    -0.9912      Y:    -0.9528      Z:     0.0680     Total:     1.3766

*** Psi4 exiting successfully. Buy a developer a beer!
