                               Psi4 1.4a3.dev225

  ==> Input File <==

--------------------------------------------------------------------------
#psi4
#
memory 32 gb

molecule  {
0 1
  N        0.0801310     2.5312230    -0.3913130
  N       -1.9006720     0.7782080     0.6229160
  C        0.3499640     0.1224320    -0.0065570
  C        0.8960730     1.4188800    -0.1658420
  C        2.6037675    -0.8167369     0.1139641
  C        1.2173430    -0.9692250     0.1590540
  C       -1.1077440    -0.1233710    -0.0042630
  C        2.2932590     1.5435480    -0.2281840
  C        3.1306880     0.4434260    -0.0762550
  C        3.5085210    -2.0251140     0.3469700
  C       -1.6410700    -1.2638430    -0.6279320
  C       -3.0109220    -1.5027310    -0.5649580
  C       -3.2228950     0.5407920     0.6622730
  C       -3.8232840    -0.5849970     0.1005040
  H        0.7834850    -1.9532010     0.3364590
  H        2.7242150     2.5332940    -0.3759070
  H        4.2098530     0.5856070    -0.1209690
  H        3.8288200    -2.0891060     1.3929170
  H        2.9990460    -2.9607700     0.0984840
  H        4.4097140    -1.9577250    -0.2701360
  H       -0.9841790    -1.9393540    -1.1680850
  H        0.5549050     3.4095210    -0.2083710
  H       -0.8007830     2.4663430     0.1128890
  H       -3.4393090    -2.3812410    -1.0417430
  H       -3.8215100     1.2923600     1.1747000
  H       -4.8979480    -0.7268890     0.1711280
units angstrom
no_reorient  #important for SAPT in psi4, default
symmetry c1  #important for SAPT in psi4, default
}

set PROPERTIES_ORIGIN ["COM"]
properties('MP2/aug-cc-pvtz', properties = ['dipole'])
--------------------------------------------------------------------------

    Molecular point group: c1
  Charge       = 0
  Multiplicity = 1
  Basis Set: AUG-CC-PVTZ
    Blend: AUG-CC-PVTZ
  Basis Set: (AUG-CC-PVTZ AUX)
    Blend: AUG-CC-PVTZ-JKFIT

    Orbital Energies [Eh]
    ---------------------

    Doubly Occupied:

       1A    -15.567808     2A    -15.547301     3A    -11.288829
       4A    -11.280457     5A    -11.274891     6A    -11.262662
       7A    -11.241911     8A    -11.241162     9A    -11.233846
      10A    -11.232681    11A    -11.229953    12A    -11.225336
      13A    -11.222143    14A    -11.219878    15A     -1.261254
      16A     -1.210566    17A     -1.133140    18A     -1.088109
      19A     -1.063659    20A     -1.013213    21A     -0.993163
      22A     -0.914756    23A     -0.871484    24A     -0.862384
      25A     -0.815891    26A     -0.783470    27A     -0.708690
      28A     -0.690173    29A     -0.681994    30A     -0.660608
      31A     -0.650032    32A     -0.612591    33A     -0.600526
      34A     -0.590026    35A     -0.581951    36A     -0.573650
      37A     -0.568938    38A     -0.548093    39A     -0.531548
      40A     -0.529502    41A     -0.512934    42A     -0.489453
      43A     -0.487500    44A     -0.436311    45A     -0.419166
      46A     -0.387886    47A     -0.367208    48A     -0.316103
      49A     -0.279857

  @DF-RHF Final Energy:  -570.50145451966898

   => Energetics <=

    Nuclear Repulsion Energy =            812.2462729410897282
    One-Electron Energy =               -2384.8860840102292968
    Two-Electron Energy =                1002.1383565494705863
    Total Energy =                       -570.5014545196689824
  Basis Set: (AUG-CC-PVTZ AUX)
    Blend: AUG-CC-PVTZ-RI
    Molecular point group: c1

    Geometry (in Angstrom), charge = 0, multiplicity = 1:

       Center              X                  Y                   Z               Mass
    ------------   -----------------  -----------------  -----------------  -----------------
         N            0.110325988281     2.509557339205    -0.390501497448    14.003074004430
         N           -1.870477011719     0.756542339205     0.623727502552    14.003074004430
         C            0.380158988281     0.100766339205    -0.005745497448    12.000000000000
         C            0.926267988281     1.397214339205    -0.165030497448    12.000000000000
         C            2.633962488281    -0.838402560795     0.114775602552    12.000000000000
         C            1.247537988281    -0.990890660795     0.159865502552    12.000000000000
         C           -1.077549011719    -0.145036660795    -0.003451497448    12.000000000000
         C            2.323453988281     1.521882339205    -0.227372497448    12.000000000000
         C            3.160882988281     0.421760339205    -0.075443497448    12.000000000000
         C            3.538715988281    -2.046779660795     0.347781502552    12.000000000000
         C           -1.610875011719    -1.285508660795    -0.627120497448    12.000000000000
         C           -2.980727011719    -1.524396660795    -0.564146497448    12.000000000000
         C           -3.192700011719     0.519126339205     0.663084502552    12.000000000000
         C           -3.793089011719    -0.606662660795     0.101315502552    12.000000000000
         H            0.813679988281    -1.974866660795     0.337270502552     1.007825032230
         H            2.754409988281     2.511628339205    -0.375095497448     1.007825032230
         H            4.240047988281     0.563941339205    -0.120157497448     1.007825032230
         H            3.859014988281    -2.110771660795     1.393728502552     1.007825032230
         H            3.029240988281    -2.982435660795     0.099295502552     1.007825032230
         H            4.439908988281    -1.979390660795    -0.269324497448     1.007825032230
         H           -0.953984011719    -1.961019660795    -1.167273497448     1.007825032230
         H            0.585099988281     3.387855339205    -0.207559497448     1.007825032230
         H           -0.770588011719     2.444677339205     0.113700502552     1.007825032230
         H           -3.409114011719    -2.402906660795    -1.040931497448     1.007825032230
         H           -3.791315011719     1.270694339205     1.175511502552     1.007825032230
         H           -4.867753011719    -0.748554660795     0.171939502552     1.007825032230

  Basis Set: AUG-CC-PVTZ
    Blend: AUG-CC-PVTZ
  Basis Set: (AUG-CC-PVTZ AUX)
    Blend: AUG-CC-PVTZ-JKFIT
	 Reference Energy          =    -570.5014545196689824 [Eh]
	 Singles Energy            =      -0.0000000000000000 [Eh]
	 Same-Spin Energy          =      -0.6407063162514723 [Eh]
	 Opposite-Spin Energy      =      -1.9774633094106919 [Eh]
	 Correlation Energy        =      -2.6181696256621643 [Eh]
	 Total Energy              =    -573.1196241453311586 [Eh]

	 ================> DF-SCS-MP2 Energies <==================
	-----------------------------------------------------------
	 SCS Same-Spin Scale       =       0.3333333333333333 [-]
	 SCS Opposite-Spin Scale   =       1.2000000000000000 [-]
	 SCS Same-Spin Energy      =      -0.2135687720838241 [Eh]
	 SCS Opposite-Spin Energy  =      -2.3729559712928303 [Eh]
	 SCS Correlation Energy    =      -2.5865247433766543 [Eh]
	 SCS Total Energy          =    -573.0879792630456677 [Eh]
	-----------------------------------------------------------

  Dipole Moment: [D]
     X:    -1.1287      Y:    -0.9548      Z:     0.0750     Total:     1.4803

*** Psi4 exiting successfully. Buy a developer a beer!
