                               Psi4 1.4a3.dev225

  ==> Input File <==

--------------------------------------------------------------------------
#psi4
#
memory 32 gb

molecule  {
0 1
  N        0.0801310     2.5312230    -0.3913130
  N       -1.9006720     0.7782080     0.6229160
  C        0.3499640     0.1224320    -0.0065570
  C        0.8960730     1.4188800    -0.1658420
  C        2.6027322    -0.8542855     0.0674475
  C        1.2173430    -0.9692250     0.1590540
  C       -1.1077440    -0.1233710    -0.0042630
  C        2.2932590     1.5435480    -0.2281840
  C        3.1306880     0.4434260    -0.0762550
  C        3.5085210    -2.0251140     0.3469700
  C       -1.6410700    -1.2638430    -0.6279320
  C       -3.0109220    -1.5027310    -0.5649580
  C       -3.2228950     0.5407920     0.6622730
  C       -3.8232840    -0.5849970     0.1005040
  H        0.7834850    -1.9532010     0.3364590
  H        2.7242150     2.5332940    -0.3759070
  H        4.2098530     0.5856070    -0.1209690
  H        3.8288200    -2.0891060     1.3929170
  H        2.9990460    -2.9607700     0.0984840
  H        4.4097140    -1.9577250    -0.2701360
  H       -0.9841790    -1.9393540    -1.1680850
  H        0.5549050     3.4095210    -0.2083710
  H       -0.8007830     2.4663430     0.1128890
  H       -3.4393090    -2.3812410    -1.0417430
  H       -3.8215100     1.2923600     1.1747000
  H       -4.8979480    -0.7268890     0.1711280
units angstrom
no_reorient  #important for SAPT in psi4, default
symmetry c1  #important for SAPT in psi4, default
}

set PROPERTIES_ORIGIN ["COM"]
properties('MP2/aug-cc-pvtz', properties = ['dipole'])
--------------------------------------------------------------------------

    Molecular point group: c1
  Charge       = 0
  Multiplicity = 1
  Basis Set: AUG-CC-PVTZ
    Blend: AUG-CC-PVTZ
  Basis Set: (AUG-CC-PVTZ AUX)
    Blend: AUG-CC-PVTZ-JKFIT

    Orbital Energies [Eh]
    ---------------------

    Doubly Occupied:

       1A    -15.567534     2A    -15.548215     3A    -11.288575
       4A    -11.280222     5A    -11.276041     6A    -11.262390
       7A    -11.241661     8A    -11.240831     9A    -11.233803
      10A    -11.233298    11A    -11.232066    12A    -11.226823
      13A    -11.223006    14A    -11.219341    15A     -1.261008
      16A     -1.210983    17A     -1.131342    18A     -1.087843
      19A     -1.062715    20A     -1.016413    21A     -0.992228
      22A     -0.915374    23A     -0.870363    24A     -0.862096
      25A     -0.814400    26A     -0.783536    27A     -0.709041
      28A     -0.689713    29A     -0.681517    30A     -0.660463
      31A     -0.650238    32A     -0.613607    33A     -0.600651
      34A     -0.588852    35A     -0.582480    36A     -0.573899
      37A     -0.569090    38A     -0.548558    39A     -0.532029
      40A     -0.529158    41A     -0.512207    42A     -0.494058
      43A     -0.484568    44A     -0.434527    45A     -0.418948
      46A     -0.387555    47A     -0.366219    48A     -0.317074
      49A     -0.278565

  @DF-RHF Final Energy:  -570.50023671961321

   => Energetics <=

    Nuclear Repulsion Energy =            811.9431525148775108
    One-Electron Energy =               -2384.2765371805844552
    Two-Electron Energy =                1001.8331479460937317
    Total Energy =                       -570.5002367196132127
  Basis Set: (AUG-CC-PVTZ AUX)
    Blend: AUG-CC-PVTZ-RI
    Molecular point group: c1

    Geometry (in Angstrom), charge = 0, multiplicity = 1:

       Center              X                  Y                   Z               Mass
    ------------   -----------------  -----------------  -----------------  -----------------
         N            0.110393471153     2.512004830143    -0.387469454790    14.003074004430
         N           -1.870409528847     0.758989830143     0.626759545210    14.003074004430
         C            0.380226471153     0.103213830143    -0.002713454790    12.000000000000
         C            0.926335471153     1.399661830143    -0.161998454790    12.000000000000
         C            2.632994671153    -0.873503669857     0.071291045210    12.000000000000
         C            1.247605471153    -0.988443169857     0.162897545210    12.000000000000
         C           -1.077481528847    -0.142589169857    -0.000419454790    12.000000000000
         C            2.323521471153     1.524329830143    -0.224340454790    12.000000000000
         C            3.160950471153     0.424207830143    -0.072411454790    12.000000000000
         C            3.538783471153    -2.044332169857     0.350813545210    12.000000000000
         C           -1.610807528847    -1.283061169857    -0.624088454790    12.000000000000
         C           -2.980659528847    -1.521949169857    -0.561114454790    12.000000000000
         C           -3.192632528847     0.521573830143     0.666116545210    12.000000000000
         C           -3.793021528847    -0.604215169857     0.104347545210    12.000000000000
         H            0.813747471153    -1.972419169857     0.340302545210     1.007825032230
         H            2.754477471153     2.514075830143    -0.372063454790     1.007825032230
         H            4.240115471153     0.566388830143    -0.117125454790     1.007825032230
         H            3.859082471153    -2.108324169857     1.396760545210     1.007825032230
         H            3.029308471153    -2.979988169857     0.102327545210     1.007825032230
         H            4.439976471153    -1.976943169857    -0.266292454790     1.007825032230
         H           -0.953916528847    -1.958572169857    -1.164241454790     1.007825032230
         H            0.585167471153     3.390302830143    -0.204527454790     1.007825032230
         H           -0.770520528847     2.447124830143     0.116732545210     1.007825032230
         H           -3.409046528847    -2.400459169857    -1.037899454790     1.007825032230
         H           -3.791247528847     1.273141830143     1.178543545210     1.007825032230
         H           -4.867685528847    -0.746107169857     0.174971545210     1.007825032230

  Basis Set: AUG-CC-PVTZ
    Blend: AUG-CC-PVTZ
  Basis Set: (AUG-CC-PVTZ AUX)
    Blend: AUG-CC-PVTZ-JKFIT
	 Reference Energy          =    -570.5002367196132127 [Eh]
	 Singles Energy            =      -0.0000000000000000 [Eh]
	 Same-Spin Energy          =      -0.6408934315217359 [Eh]
	 Opposite-Spin Energy      =      -1.9778898254812192 [Eh]
	 Correlation Energy        =      -2.6187832570029550 [Eh]
	 Total Energy              =    -573.1190199766161868 [Eh]

	 ================> DF-SCS-MP2 Energies <==================
	-----------------------------------------------------------
	 SCS Same-Spin Scale       =       0.3333333333333333 [-]
	 SCS Opposite-Spin Scale   =       1.2000000000000000 [-]
	 SCS Same-Spin Energy      =      -0.2136311438405786 [Eh]
	 SCS Opposite-Spin Energy  =      -2.3734677905774628 [Eh]
	 SCS Correlation Energy    =      -2.5870989344180413 [Eh]
	 SCS Total Energy          =    -573.0873356540312216 [Eh]
	-----------------------------------------------------------

  Dipole Moment: [D]
     X:    -1.1217      Y:    -0.9325      Z:     0.0988     Total:     1.4620

*** Psi4 exiting successfully. Buy a developer a beer!
