                               Psi4 1.4a3.dev225

  ==> Input File <==

--------------------------------------------------------------------------
#psi4
#
memory 32 gb

molecule  {
0 1
  N        0.0801310     2.5312230    -0.3913130
  N       -1.9006720     0.7782080     0.6229160
  C        0.3499640     0.1224320    -0.0065570
  C        0.8960730     1.4188800    -0.1658420
  C        2.6063130    -0.8406050     0.1180930
  C        1.2173430    -0.9692250     0.1590540
  C       -1.1077440    -0.1233710    -0.0042630
  C        2.1818007     1.4513587    -0.2116163
  C        3.1306880     0.4434260    -0.0762550
  C        3.5085210    -2.0251140     0.3469700
  C       -1.6410700    -1.2638430    -0.6279320
  C       -3.0109220    -1.5027310    -0.5649580
  C       -3.2228950     0.5407920     0.6622730
  C       -3.8232840    -0.5849970     0.1005040
  H        0.7834850    -1.9532010     0.3364590
  H        2.7242150     2.5332940    -0.3759070
  H        4.2098530     0.5856070    -0.1209690
  H        3.8288200    -2.0891060     1.3929170
  H        2.9990460    -2.9607700     0.0984840
  H        4.4097140    -1.9577250    -0.2701360
  H       -0.9841790    -1.9393540    -1.1680850
  H        0.5549050     3.4095210    -0.2083710
  H       -0.8007830     2.4663430     0.1128890
  H       -3.4393090    -2.3812410    -1.0417430
  H       -3.8215100     1.2923600     1.1747000
  H       -4.8979480    -0.7268890     0.1711280
units angstrom
no_reorient  #important for SAPT in psi4, default
symmetry c1  #important for SAPT in psi4, default
}

set PROPERTIES_ORIGIN ["COM"]
properties('MP2/aug-cc-pvtz', properties = ['dipole'])
--------------------------------------------------------------------------

    Molecular point group: c1
  Charge       = 0
  Multiplicity = 1
  Basis Set: AUG-CC-PVTZ
    Blend: AUG-CC-PVTZ
  Basis Set: (AUG-CC-PVTZ AUX)
    Blend: AUG-CC-PVTZ-JKFIT

    Orbital Energies [Eh]
    ---------------------

    Doubly Occupied:

       1A    -15.568700     2A    -15.544147     3A    -11.288987
       4A    -11.280938     5A    -11.263058     6A    -11.258369
       7A    -11.242762     8A    -11.241877     9A    -11.237395
      10A    -11.232809    11A    -11.231718    12A    -11.229407
      13A    -11.220506    14A    -11.220221    15A     -1.262224
      16A     -1.215604    17A     -1.137274    18A     -1.088695
      19A     -1.063871    20A     -1.027526    21A     -0.990747
      22A     -0.924855    23A     -0.877470    24A     -0.862338
      25A     -0.810412    26A     -0.780688    27A     -0.709569
      28A     -0.692353    29A     -0.683848    30A     -0.660045
      31A     -0.650487    32A     -0.609753    33A     -0.604615
      34A     -0.591307    35A     -0.579301    36A     -0.573138
      37A     -0.562864    38A     -0.549941    39A     -0.538080
      40A     -0.530378    41A     -0.520950    42A     -0.498499
      43A     -0.459077    44A     -0.435899    45A     -0.419125
      46A     -0.388237    47A     -0.366869    48A     -0.318038
      49A     -0.287322

  @DF-RHF Final Energy:  -570.47482203962466

   => Energetics <=

    Nuclear Repulsion Energy =            815.0834411149459129
    One-Electron Energy =               -2390.4519416411485508
    Two-Electron Energy =                1004.8936784865780965
    Total Energy =                       -570.4748220396246552
  Basis Set: (AUG-CC-PVTZ AUX)
    Blend: AUG-CC-PVTZ-RI
    Molecular point group: c1

    Geometry (in Angstrom), charge = 0, multiplicity = 1:

       Center              X                  Y                   Z               Mass
    ------------   -----------------  -----------------  -----------------  -----------------
         N            0.117425136876     2.517122186755    -0.391850542177    14.003074004430
         N           -1.863377863124     0.764107186755     0.622378457823    14.003074004430
         C            0.387258136876     0.108331186755    -0.007094542177    12.000000000000
         C            0.933367136876     1.404779186755    -0.166379542177    12.000000000000
         C            2.643607136876    -0.854705813245     0.117555457823    12.000000000000
         C            1.254637136876    -0.983325813245     0.158516457823    12.000000000000
         C           -1.070449863124    -0.137471813245    -0.004800542177    12.000000000000
         C            2.219094836876     1.437257886755    -0.212153842177    12.000000000000
         C            3.167982136876     0.429325186755    -0.076792542177    12.000000000000
         C            3.545815136876    -2.039214813245     0.346432457823    12.000000000000
         C           -1.603775863124    -1.277943813245    -0.628469542177    12.000000000000
         C           -2.973627863124    -1.516831813245    -0.565495542177    12.000000000000
         C           -3.185600863124     0.526691186755     0.661735457823    12.000000000000
         C           -3.785989863124    -0.599097813245     0.099966457823    12.000000000000
         H            0.820779136876    -1.967301813245     0.335921457823     1.007825032230
         H            2.761509136876     2.519193186755    -0.376444542177     1.007825032230
         H            4.247147136876     0.571506186755    -0.121506542177     1.007825032230
         H            3.866114136876    -2.103206813245     1.392379457823     1.007825032230
         H            3.036340136876    -2.974870813245     0.097946457823     1.007825032230
         H            4.447008136876    -1.971825813245    -0.270673542177     1.007825032230
         H           -0.946884863124    -1.953454813245    -1.168622542177     1.007825032230
         H            0.592199136876     3.395420186755    -0.208908542177     1.007825032230
         H           -0.763488863124     2.452242186755     0.112351457823     1.007825032230
         H           -3.402014863124    -2.395341813245    -1.042280542177     1.007825032230
         H           -3.784215863124     1.278259186755     1.174162457823     1.007825032230
         H           -4.860653863124    -0.740989813245     0.170590457823     1.007825032230

  Basis Set: AUG-CC-PVTZ
    Blend: AUG-CC-PVTZ
  Basis Set: (AUG-CC-PVTZ AUX)
    Blend: AUG-CC-PVTZ-JKFIT
	 Reference Energy          =    -570.4748220396246552 [Eh]
	 Singles Energy            =      -0.0000000000000000 [Eh]
	 Same-Spin Energy          =      -0.6416481992137432 [Eh]
	 Opposite-Spin Energy      =      -1.9789595774484978 [Eh]
	 Correlation Energy        =      -2.6206077766622409 [Eh]
	 Total Energy              =    -573.0954298162869236 [Eh]

	 ================> DF-SCS-MP2 Energies <==================
	-----------------------------------------------------------
	 SCS Same-Spin Scale       =       0.3333333333333333 [-]
	 SCS Opposite-Spin Scale   =       1.2000000000000000 [-]
	 SCS Same-Spin Energy      =      -0.2138827330712477 [Eh]
	 SCS Opposite-Spin Energy  =      -2.3747514929381972 [Eh]
	 SCS Correlation Energy    =      -2.5886342260094448 [Eh]
	 SCS Total Energy          =    -573.0634562656340449 [Eh]
	-----------------------------------------------------------

  Dipole Moment: [D]
     X:    -1.0624      Y:    -1.2322      Z:     0.1293     Total:     1.6321

*** Psi4 exiting successfully. Buy a developer a beer!
