                               Psi4 1.4a3.dev225

  ==> Input File <==

--------------------------------------------------------------------------
#psi4
#
memory 32 gb

molecule  {
0 1
  N        0.0801310     2.5312230    -0.3913130
  N       -1.9006720     0.7782080     0.6229160
  C        0.3499640     0.1224320    -0.0065570
  C        0.8960730     1.4188800    -0.1658420
  C        2.6063130    -0.8406050     0.1180930
  C        1.2173430    -0.9692250     0.1590540
  C       -1.1077440    -0.1233710    -0.0042630
  C        2.2932590     1.5435480    -0.2281840
  C        3.1306880     0.4434260    -0.0762550
  C        3.5085210    -2.0251140     0.3469700
  C       -1.6410700    -1.2638430    -0.6279320
  C       -3.0109220    -1.5027310    -0.5649580
  C       -3.2228950     0.5407920     0.6622730
  C       -3.8232840    -0.5849970     0.1005040
  H        0.7834850    -1.9532010     0.3364590
  H        2.7242150     2.5332940    -0.3759070
  H        4.4079724     0.6117094    -0.1291779
  H        3.8288200    -2.0891060     1.3929170
  H        2.9990460    -2.9607700     0.0984840
  H        4.4097140    -1.9577250    -0.2701360
  H       -0.9841790    -1.9393540    -1.1680850
  H        0.5549050     3.4095210    -0.2083710
  H       -0.8007830     2.4663430     0.1128890
  H       -3.4393090    -2.3812410    -1.0417430
  H       -3.8215100     1.2923600     1.1747000
  H       -4.8979480    -0.7268890     0.1711280
units angstrom
no_reorient  #important for SAPT in psi4, default
symmetry c1  #important for SAPT in psi4, default
}

set PROPERTIES_ORIGIN ["COM"]
properties('MP2/aug-cc-pvtz', properties = ['dipole'])
--------------------------------------------------------------------------

    Molecular point group: c1
  Charge       = 0
  Multiplicity = 1
  Basis Set: AUG-CC-PVTZ
    Blend: AUG-CC-PVTZ
  Basis Set: (AUG-CC-PVTZ AUX)
    Blend: AUG-CC-PVTZ-JKFIT

    Orbital Energies [Eh]
    ---------------------

    Doubly Occupied:

       1A    -15.568224     2A    -15.548829     3A    -11.289407
       4A    -11.280826     5A    -11.277139     6A    -11.262995
       7A    -11.254359     8A    -11.242216     9A    -11.241510
      10A    -11.235163    11A    -11.233675    12A    -11.229268
      13A    -11.225147    14A    -11.219466    15A     -1.261721
      16A     -1.211825    17A     -1.132238    18A     -1.088458
      19A     -1.062766    20A     -1.017212    21A     -0.990739
      22A     -0.915526    23A     -0.867020    24A     -0.862542
      25A     -0.814208    26A     -0.781091    27A     -0.709690
      28A     -0.690393    29A     -0.672293    30A     -0.661122
      31A     -0.645809    32A     -0.614459    33A     -0.601319
      34A     -0.584917    35A     -0.580527    36A     -0.572022
      37A     -0.566616    38A     -0.548858    39A     -0.529862
      40A     -0.523867    41A     -0.513713    42A     -0.493289
      43A     -0.476323    44A     -0.436163    45A     -0.419441
      46A     -0.388252    47A     -0.367580    48A     -0.317757
      49A     -0.279853

  @DF-RHF Final Energy:  -570.47967827311118

   => Energetics <=

    Nuclear Repulsion Energy =            811.0256136651262295
    One-Electron Energy =               -2382.3951943950801251
    Two-Electron Energy =                1000.8899024568427194
    Total Energy =                       -570.4796782731111762
  Basis Set: (AUG-CC-PVTZ AUX)
    Blend: AUG-CC-PVTZ-RI
    Molecular point group: c1

    Geometry (in Angstrom), charge = 0, multiplicity = 1:

       Center              X                  Y                   Z               Mass
    ------------   -----------------  -----------------  -----------------  -----------------
         N            0.109075495993     2.510970215248    -0.390725688943    14.003074004430
         N           -1.871727504007     0.757955215248     0.623503311057    14.003074004430
         C            0.378908495993     0.102179215248    -0.005969688943    12.000000000000
         C            0.925017495993     1.398627215248    -0.165254688943    12.000000000000
         C            2.635257495993    -0.860857784752     0.118680311057    12.000000000000
         C            1.246287495993    -0.989477784752     0.159641311057    12.000000000000
         C           -1.078799504007    -0.143623784752    -0.003675688943    12.000000000000
         C            2.322203495993     1.523295215248    -0.227596688943    12.000000000000
         C            3.159632495993     0.423173215248    -0.075667688943    12.000000000000
         C            3.537465495993    -2.045366784752     0.347557311057    12.000000000000
         C           -1.612125504007    -1.284095784752    -0.627344688943    12.000000000000
         C           -2.981977504007    -1.522983784752    -0.564370688943    12.000000000000
         C           -3.193950504007     0.520539215248     0.662860311057    12.000000000000
         C           -3.794339504007    -0.605249784752     0.101091311057    12.000000000000
         H            0.812429495993    -1.973453784752     0.337046311057     1.007825032230
         H            2.753159495993     2.513041215248    -0.375319688943     1.007825032230
         H            4.436916895993     0.591456615248    -0.128590588943     1.007825032230
         H            3.857764495993    -2.109358784752     1.393504311057     1.007825032230
         H            3.027990495993    -2.981022784752     0.099071311057     1.007825032230
         H            4.438658495993    -1.977977784752    -0.269548688943     1.007825032230
         H           -0.955234504007    -1.959606784752    -1.167497688943     1.007825032230
         H            0.583849495993     3.389268215248    -0.207783688943     1.007825032230
         H           -0.771838504007     2.446090215248     0.113476311057     1.007825032230
         H           -3.410364504007    -2.401493784752    -1.041155688943     1.007825032230
         H           -3.792565504007     1.272107215248     1.175287311057     1.007825032230
         H           -4.869003504007    -0.747141784752     0.171715311057     1.007825032230

  Basis Set: AUG-CC-PVTZ
    Blend: AUG-CC-PVTZ
  Basis Set: (AUG-CC-PVTZ AUX)
    Blend: AUG-CC-PVTZ-JKFIT
	 Reference Energy          =    -570.4796782731111762 [Eh]
	 Singles Energy            =      -0.0000000000000000 [Eh]
	 Same-Spin Energy          =      -0.6413932074086260 [Eh]
	 Opposite-Spin Energy      =      -1.9799590325353911 [Eh]
	 Correlation Energy        =      -2.6213522399440170 [Eh]
	 Total Energy              =    -573.1010305130552069 [Eh]

	 ================> DF-SCS-MP2 Energies <==================
	-----------------------------------------------------------
	 SCS Same-Spin Scale       =       0.3333333333333333 [-]
	 SCS Opposite-Spin Scale   =       1.2000000000000000 [-]
	 SCS Same-Spin Energy      =      -0.2137977358028753 [Eh]
	 SCS Opposite-Spin Energy  =      -2.3759508390424693 [Eh]
	 SCS Correlation Energy    =      -2.5897485748453448 [Eh]
	 SCS Total Energy          =    -573.0694268479564926 [Eh]
	-----------------------------------------------------------

  Dipole Moment: [D]
     X:    -1.2454      Y:    -0.9743      Z:     0.0816     Total:     1.5834

*** Psi4 exiting successfully. Buy a developer a beer!
