                               Psi4 1.4a3.dev225

  ==> Input File <==

--------------------------------------------------------------------------
#psi4
#
memory 32 gb

molecule  {
0 1
  N        0.0801310     2.5312230    -0.3913130
  N       -1.9006720     0.7782080     0.6229160
  C        0.3499640     0.1224320    -0.0065570
  C        0.8960730     1.4188800    -0.1658420
  C        2.6063130    -0.8406050     0.1180930
  C        1.2173430    -0.9692250     0.1590540
  C       -1.1077440    -0.1233710    -0.0042630
  C        2.2932590     1.5435480    -0.2281840
  C        3.1306880     0.4434260    -0.0762550
  C        3.5085210    -2.0251140     0.3469700
  C       -1.6410700    -1.2638430    -0.6279320
  C       -3.0109220    -1.5027310    -0.5649580
  C       -3.2228950     0.5407920     0.6622730
  C       -3.8232840    -0.5849970     0.1005040
  H        0.7834850    -1.9532010     0.3364590
  H        2.7242150     2.5332940    -0.3759070
  H        4.2098530     0.5856070    -0.1209690
  H        3.7977902    -2.1589693     1.3953486
  H        2.9990460    -2.9607700     0.0984840
  H        4.4097140    -1.9577250    -0.2701360
  H       -0.9841790    -1.9393540    -1.1680850
  H        0.5549050     3.4095210    -0.2083710
  H       -0.8007830     2.4663430     0.1128890
  H       -3.4393090    -2.3812410    -1.0417430
  H       -3.8215100     1.2923600     1.1747000
  H       -4.8979480    -0.7268890     0.1711280
units angstrom
no_reorient  #important for SAPT in psi4, default
symmetry c1  #important for SAPT in psi4, default
}

set PROPERTIES_ORIGIN ["COM"]
properties('MP2/aug-cc-pvtz', properties = ['dipole'])
--------------------------------------------------------------------------

    Molecular point group: c1
  Charge       = 0
  Multiplicity = 1
  Basis Set: AUG-CC-PVTZ
    Blend: AUG-CC-PVTZ
  Basis Set: (AUG-CC-PVTZ AUX)
    Blend: AUG-CC-PVTZ-JKFIT

    Orbital Energies [Eh]
    ---------------------

    Doubly Occupied:

       1A    -15.567619     2A    -15.547909     3A    -11.288769
       4A    -11.280302     5A    -11.275663     6A    -11.262470
       7A    -11.241684     8A    -11.240906     9A    -11.233710
      10A    -11.232779    11A    -11.232490    12A    -11.226919
      13A    -11.222696    14A    -11.219294    15A     -1.261097
      16A     -1.210811    17A     -1.131733    18A     -1.087911
      19A     -1.063052    20A     -1.016015    21A     -0.992435
      22A     -0.915777    23A     -0.870653    24A     -0.862203
      25A     -0.814895    26A     -0.783757    27A     -0.709100
      28A     -0.690032    29A     -0.681530    30A     -0.660572
      31A     -0.650177    32A     -0.614363    33A     -0.600454
      34A     -0.589181    35A     -0.582191    36A     -0.574306
      37A     -0.568608    38A     -0.547636    39A     -0.531891
      40A     -0.528583    41A     -0.512875    42A     -0.493879
      43A     -0.485686    44A     -0.435079    45A     -0.418912
      46A     -0.387650    47A     -0.366714    48A     -0.316530
      49A     -0.278826

  @DF-RHF Final Energy:  -570.50118900256552

   => Energetics <=

    Nuclear Repulsion Energy =            811.9644168468644239
    One-Electron Energy =               -2384.3145677835391325
    Two-Electron Energy =                1001.8489619341091839
    Total Energy =                       -570.5011890025655248
  Basis Set: (AUG-CC-PVTZ AUX)
    Blend: AUG-CC-PVTZ-RI
    Molecular point group: c1

    Geometry (in Angstrom), charge = 0, multiplicity = 1:

       Center              X                  Y                   Z               Mass
    ------------   -----------------  -----------------  -----------------  -----------------
         N            0.110329935098     2.511495563479    -0.390783938587    14.003074004430
         N           -1.870473064902     0.758480563479     0.623445061413    14.003074004430
         C            0.380162935098     0.102704563479    -0.006027938587    12.000000000000
         C            0.926271935098     1.399152563479    -0.165312938587    12.000000000000
         C            2.636511935098    -0.860332436521     0.118622061413    12.000000000000
         C            1.247541935098    -0.988952436521     0.159583061413    12.000000000000
         C           -1.077545064902    -0.143098436521    -0.003733938587    12.000000000000
         C            2.323457935098     1.523820563479    -0.227654938587    12.000000000000
         C            3.160886935098     0.423698563479    -0.075725938587    12.000000000000
         C            3.538719935098    -2.044841436521     0.347499061413    12.000000000000
         C           -1.610871064902    -1.283570436521    -0.627402938587    12.000000000000
         C           -2.980723064902    -1.522458436521    -0.564428938587    12.000000000000
         C           -3.192696064902     0.521064563479     0.662802061413    12.000000000000
         C           -3.793085064902    -0.604724436521     0.101033061413    12.000000000000
         H            0.813683935098    -1.972928436521     0.336988061413     1.007825032230
         H            2.754413935098     2.513566563479    -0.375377938587     1.007825032230
         H            4.240051935098     0.565879563479    -0.120439938587     1.007825032230
         H            3.827989135098    -2.178696736521     1.395877661413     1.007825032230
         H            3.029244935098    -2.980497436521     0.099013061413     1.007825032230
         H            4.439912935098    -1.977452436521    -0.269606938587     1.007825032230
         H           -0.953980064902    -1.959081436521    -1.167555938587     1.007825032230
         H            0.585103935098     3.389793563479    -0.207841938587     1.007825032230
         H           -0.770584064902     2.446615563479     0.113418061413     1.007825032230
         H           -3.409110064902    -2.400968436521    -1.041213938587     1.007825032230
         H           -3.791311064902     1.272632563479     1.175229061413     1.007825032230
         H           -4.867749064902    -0.746616436521     0.171657061413     1.007825032230

  Basis Set: AUG-CC-PVTZ
    Blend: AUG-CC-PVTZ
  Basis Set: (AUG-CC-PVTZ AUX)
    Blend: AUG-CC-PVTZ-JKFIT
	 Reference Energy          =    -570.5011890025655248 [Eh]
	 Singles Energy            =      -0.0000000000000000 [Eh]
	 Same-Spin Energy          =      -0.6408362904066162 [Eh]
	 Opposite-Spin Energy      =      -1.9776579796850671 [Eh]
	 Correlation Energy        =      -2.6184942700916833 [Eh]
	 Total Energy              =    -573.1196832726571984 [Eh]

	 ================> DF-SCS-MP2 Energies <==================
	-----------------------------------------------------------
	 SCS Same-Spin Scale       =       0.3333333333333333 [-]
	 SCS Opposite-Spin Scale   =       1.2000000000000000 [-]
	 SCS Same-Spin Energy      =      -0.2136120968022054 [Eh]
	 SCS Opposite-Spin Energy  =      -2.3731895756220802 [Eh]
	 SCS Correlation Energy    =      -2.5868016724242855 [Eh]
	 SCS Total Energy          =    -573.0879906749897827 [Eh]
	-----------------------------------------------------------

  Dipole Moment: [D]
     X:    -1.1259      Y:    -0.9720      Z:     0.0810     Total:     1.4896

*** Psi4 exiting successfully. Buy a developer a beer!
