                               Psi4 1.4a3.dev225

  ==> Input File <==

--------------------------------------------------------------------------
#psi4
#
memory 32 gb

molecule  {
0 1
  N        0.0801310     2.5312230    -0.3913130
  N       -1.9006720     0.7782080     0.6229160
  C        0.3499640     0.1224320    -0.0065570
  C        0.8960730     1.4188800    -0.1658420
  C        2.6236264    -0.8082802     0.2714542
  C        1.2173430    -0.9692250     0.1590540
  C       -1.1077440    -0.1233710    -0.0042630
  C        2.2932590     1.5435480    -0.2281840
  C        3.1306880     0.4434260    -0.0762550
  C        3.5085210    -2.0251140     0.3469700
  C       -1.6410700    -1.2638430    -0.6279320
  C       -3.0109220    -1.5027310    -0.5649580
  C       -3.2228950     0.5407920     0.6622730
  C       -3.8232840    -0.5849970     0.1005040
  H        0.7834850    -1.9532010     0.3364590
  H        2.7242150     2.5332940    -0.3759070
  H        4.2098530     0.5856070    -0.1209690
  H        3.8288200    -2.0891060     1.3929170
  H        2.9990460    -2.9607700     0.0984840
  H        4.4097140    -1.9577250    -0.2701360
  H       -0.9841790    -1.9393540    -1.1680850
  H        0.5549050     3.4095210    -0.2083710
  H       -0.8007830     2.4663430     0.1128890
  H       -3.4393090    -2.3812410    -1.0417430
  H       -3.8215100     1.2923600     1.1747000
  H       -4.8979480    -0.7268890     0.1711280
units angstrom
no_reorient  #important for SAPT in psi4, default
symmetry c1  #important for SAPT in psi4, default
}

set PROPERTIES_ORIGIN ["COM"]
properties('MP2/aug-cc-pvtz', properties = ['dipole'])
--------------------------------------------------------------------------

    Molecular point group: c1
  Charge       = 0
  Multiplicity = 1
  Basis Set: AUG-CC-PVTZ
    Blend: AUG-CC-PVTZ
  Basis Set: (AUG-CC-PVTZ AUX)
    Blend: AUG-CC-PVTZ-JKFIT

    Orbital Energies [Eh]
    ---------------------

    Doubly Occupied:

       1A    -15.567602     2A    -15.547853     3A    -11.289169
       4A    -11.280357     5A    -11.275585     6A    -11.262503
       7A    -11.241463     8A    -11.240839     9A    -11.236855
      10A    -11.233440    11A    -11.232233    12A    -11.228742
      13A    -11.221619    14A    -11.219460    15A     -1.261159
      16A     -1.210647    17A     -1.130508    18A     -1.087881
      19A     -1.063580    20A     -1.015345    21A     -0.992327
      22A     -0.914706    23A     -0.870185    24A     -0.862110
      25A     -0.814671    26A     -0.782705    27A     -0.708696
      28A     -0.689477    29A     -0.681241    30A     -0.660636
      31A     -0.649962    32A     -0.614415    33A     -0.599622
      34A     -0.589212    35A     -0.580823    36A     -0.572854
      37A     -0.571561    38A     -0.547598    39A     -0.532669
      40A     -0.528848    41A     -0.516029    42A     -0.489329
      43A     -0.484153    44A     -0.434834    45A     -0.418345
      46A     -0.387588    47A     -0.367409    48A     -0.313926
      49A     -0.278608

  @DF-RHF Final Energy:  -570.49378028945478

   => Energetics <=

    Nuclear Repulsion Energy =            811.6639131066028767
    One-Electron Energy =               -2383.7126268706797418
    Two-Electron Energy =                1001.5549334746220893
    Total Energy =                       -570.4937802894547758
  Basis Set: (AUG-CC-PVTZ AUX)
    Blend: AUG-CC-PVTZ-RI
    Molecular point group: c1

    Geometry (in Angstrom), charge = 0, multiplicity = 1:

       Center              X                  Y                   Z               Mass
    ------------   -----------------  -----------------  -----------------  -----------------
         N            0.109031546470     2.509006115016    -0.400767009144    14.003074004430
         N           -1.871771453530     0.755991115016     0.613461990856    14.003074004430
         C            0.378864546470     0.100215115016    -0.016011009144    12.000000000000
         C            0.924973546470     1.396663115016    -0.175296009144    12.000000000000
         C            2.652526946470    -0.830497084984     0.262000190856    12.000000000000
         C            1.246243546470    -0.991441884984     0.149599990856    12.000000000000
         C           -1.078843453530    -0.145587884984    -0.013717009144    12.000000000000
         C            2.322159546470     1.521331115016    -0.237638009144    12.000000000000
         C            3.159588546470     0.421209115016    -0.085709009144    12.000000000000
         C            3.537421546470    -2.047330884984     0.337515990856    12.000000000000
         C           -1.612169453530    -1.286059884984    -0.637386009144    12.000000000000
         C           -2.982021453530    -1.524947884984    -0.574412009144    12.000000000000
         C           -3.193994453530     0.518575115016     0.652818990856    12.000000000000
         C           -3.794383453530    -0.607213884984     0.091049990856    12.000000000000
         H            0.812385546470    -1.975417884984     0.327004990856     1.007825032230
         H            2.753115546470     2.511077115016    -0.385361009144     1.007825032230
         H            4.238753546470     0.563390115016    -0.130423009144     1.007825032230
         H            3.857720546470    -2.111322884984     1.383462990856     1.007825032230
         H            3.027946546470    -2.982986884984     0.089029990856     1.007825032230
         H            4.438614546470    -1.979941884984    -0.279590009144     1.007825032230
         H           -0.955278453530    -1.961570884984    -1.177539009144     1.007825032230
         H            0.583805546470     3.387304115016    -0.217825009144     1.007825032230
         H           -0.771882453530     2.444126115016     0.103434990856     1.007825032230
         H           -3.410408453530    -2.403457884984    -1.051197009144     1.007825032230
         H           -3.792609453530     1.270143115016     1.165245990856     1.007825032230
         H           -4.869047453530    -0.749105884984     0.161673990856     1.007825032230

  Basis Set: AUG-CC-PVTZ
    Blend: AUG-CC-PVTZ
  Basis Set: (AUG-CC-PVTZ AUX)
    Blend: AUG-CC-PVTZ-JKFIT
	 Reference Energy          =    -570.4937802894547758 [Eh]
	 Singles Energy            =      -0.0000000000000000 [Eh]
	 Same-Spin Energy          =      -0.6411343610860297 [Eh]
	 Opposite-Spin Energy      =      -1.9786727081546254 [Eh]
	 Correlation Energy        =      -2.6198070692406552 [Eh]
	 Total Energy              =    -573.1135873586954403 [Eh]

	 ================> DF-SCS-MP2 Energies <==================
	-----------------------------------------------------------
	 SCS Same-Spin Scale       =       0.3333333333333333 [-]
	 SCS Opposite-Spin Scale   =       1.2000000000000000 [-]
	 SCS Same-Spin Energy      =      -0.2137114536953432 [Eh]
	 SCS Opposite-Spin Energy  =      -2.3744072497855502 [Eh]
	 SCS Correlation Energy    =      -2.5881187034808932 [Eh]
	 SCS Total Energy          =    -573.0818989929356349 [Eh]
	-----------------------------------------------------------

  Dipole Moment: [D]
     X:    -1.0919      Y:    -0.9855      Z:     0.0025     Total:     1.4709

*** Psi4 exiting successfully. Buy a developer a beer!
