                               Psi4 1.4a3.dev225

  ==> Input File <==

--------------------------------------------------------------------------
#psi4
#
memory 32 gb

molecule  {
0 1
  N        0.0801310     2.5312230    -0.3913130
  N       -1.9006720     0.7782080     0.6229160
  C        0.3499640     0.1224320    -0.0065570
  C        0.8668868     1.4586684    -0.1739071
  C        2.6063130    -0.8406050     0.1180930
  C        1.2173430    -0.9692250     0.1590540
  C       -1.1077440    -0.1233710    -0.0042630
  C        2.2932590     1.5435480    -0.2281840
  C        3.1306880     0.4434260    -0.0762550
  C        3.5085210    -2.0251140     0.3469700
  C       -1.6410700    -1.2638430    -0.6279320
  C       -3.0109220    -1.5027310    -0.5649580
  C       -3.2228950     0.5407920     0.6622730
  C       -3.8232840    -0.5849970     0.1005040
  H        0.7834850    -1.9532010     0.3364590
  H        2.7242150     2.5332940    -0.3759070
  H        4.2098530     0.5856070    -0.1209690
  H        3.8288200    -2.0891060     1.3929170
  H        2.9990460    -2.9607700     0.0984840
  H        4.4097140    -1.9577250    -0.2701360
  H       -0.9841790    -1.9393540    -1.1680850
  H        0.5549050     3.4095210    -0.2083710
  H       -0.8007830     2.4663430     0.1128890
  H       -3.4393090    -2.3812410    -1.0417430
  H       -3.8215100     1.2923600     1.1747000
  H       -4.8979480    -0.7268890     0.1711280
units angstrom
no_reorient  #important for SAPT in psi4, default
symmetry c1  #important for SAPT in psi4, default
}

set PROPERTIES_ORIGIN ["COM"]
properties('MP2/aug-cc-pvtz', properties = ['dipole'])
--------------------------------------------------------------------------

    Molecular point group: c1
  Charge       = 0
  Multiplicity = 1
  Basis Set: AUG-CC-PVTZ
    Blend: AUG-CC-PVTZ
  Basis Set: (AUG-CC-PVTZ AUX)
    Blend: AUG-CC-PVTZ-JKFIT

    Orbital Energies [Eh]
    ---------------------

    Doubly Occupied:

       1A    -15.566983     2A    -15.554208     3A    -11.287240
       4A    -11.280608     5A    -11.279991     6A    -11.261800
       7A    -11.240711     8A    -11.239527     9A    -11.232996
      10A    -11.231846    11A    -11.231746    12A    -11.223659
      13A    -11.222893    14A    -11.217881    15A     -1.261760
      16A     -1.227998    17A     -1.130824    18A     -1.087219
      19A     -1.061336    20A     -1.011933    21A     -0.989573
      22A     -0.913551    23A     -0.868916    24A     -0.861232
      25A     -0.812118    26A     -0.784096    27A     -0.708294
      28A     -0.695767    29A     -0.689470    30A     -0.660189
      31A     -0.650106    32A     -0.615114    33A     -0.598833
      34A     -0.589855    35A     -0.581689    36A     -0.573312
      37A     -0.568585    38A     -0.548313    39A     -0.531696
      40A     -0.526759    41A     -0.517119    42A     -0.493908
      43A     -0.479627    44A     -0.439187    45A     -0.418366
      46A     -0.387197    47A     -0.365635    48A     -0.315117
      49A     -0.271775

  @DF-RHF Final Energy:  -570.49750181345121

   => Energetics <=

    Nuclear Repulsion Energy =            811.7469429359679225
    One-Electron Energy =               -2383.8717737532351748
    Two-Electron Energy =                1001.6273290038159303
    Total Energy =                       -570.4975018134512084
  Basis Set: (AUG-CC-PVTZ AUX)
    Blend: AUG-CC-PVTZ-RI
    Molecular point group: c1

    Geometry (in Angstrom), charge = 0, multiplicity = 1:

       Center              X                  Y                   Z               Mass
    ------------   -----------------  -----------------  -----------------  -----------------
         N            0.112062481034     2.508519623020    -0.390244928259    14.003074004430
         N           -1.868740518966     0.755504623020     0.623984071741    14.003074004430
         C            0.381895481034     0.099728623020    -0.005488928259    12.000000000000
         C            0.898818281034     1.435965023020    -0.172839028259    12.000000000000
         C            2.638244481034    -0.863308376980     0.119161071741    12.000000000000
         C            1.249274481034    -0.991928376980     0.160122071741    12.000000000000
         C           -1.075812518966    -0.146074376980    -0.003194928259    12.000000000000
         C            2.325190481034     1.520844623020    -0.227115928259    12.000000000000
         C            3.162619481034     0.420722623020    -0.075186928259    12.000000000000
         C            3.540452481034    -2.047817376980     0.348038071741    12.000000000000
         C           -1.609138518966    -1.286546376980    -0.626863928259    12.000000000000
         C           -2.978990518966    -1.525434376980    -0.563889928259    12.000000000000
         C           -3.190963518966     0.518088623020     0.663341071741    12.000000000000
         C           -3.791352518966    -0.607700376980     0.101572071741    12.000000000000
         H            0.815416481034    -1.975904376980     0.337527071741     1.007825032230
         H            2.756146481034     2.510590623020    -0.374838928259     1.007825032230
         H            4.241784481034     0.562903623020    -0.119900928259     1.007825032230
         H            3.860751481034    -2.111809376980     1.393985071741     1.007825032230
         H            3.030977481034    -2.983473376980     0.099552071741     1.007825032230
         H            4.441645481034    -1.980428376980    -0.269067928259     1.007825032230
         H           -0.952247518966    -1.962057376980    -1.167016928259     1.007825032230
         H            0.586836481034     3.386817623020    -0.207302928259     1.007825032230
         H           -0.768851518966     2.443639623020     0.113957071741     1.007825032230
         H           -3.407377518966    -2.403944376980    -1.040674928259     1.007825032230
         H           -3.789578518966     1.269656623020     1.175768071741     1.007825032230
         H           -4.866016518966    -0.749592376980     0.172196071741     1.007825032230

  Basis Set: AUG-CC-PVTZ
    Blend: AUG-CC-PVTZ
  Basis Set: (AUG-CC-PVTZ AUX)
    Blend: AUG-CC-PVTZ-JKFIT
	 Reference Energy          =    -570.4975018134512084 [Eh]
	 Singles Energy            =      -0.0000000000000000 [Eh]
	 Same-Spin Energy          =      -0.6413111014519660 [Eh]
	 Opposite-Spin Energy      =      -1.9781166316723890 [Eh]
	 Correlation Energy        =      -2.6194277331243550 [Eh]
	 Total Energy              =    -573.1169295465755340 [Eh]

	 ================> DF-SCS-MP2 Energies <==================
	-----------------------------------------------------------
	 SCS Same-Spin Scale       =       0.3333333333333333 [-]
	 SCS Opposite-Spin Scale   =       1.2000000000000000 [-]
	 SCS Same-Spin Energy      =      -0.2137703671506553 [Eh]
	 SCS Opposite-Spin Energy  =      -2.3737399580068668 [Eh]
	 SCS Correlation Energy    =      -2.5875103251575222 [Eh]
	 SCS Total Energy          =    -573.0850121386087039 [Eh]
	-----------------------------------------------------------

  Dipole Moment: [D]
     X:    -1.2424      Y:    -0.6809      Z:     0.0219     Total:     1.4169

*** Psi4 exiting successfully. Buy a developer a beer!
