                               Psi4 1.4a3.dev225

  ==> Input File <==

--------------------------------------------------------------------------
#psi4
#
memory 32 gb

molecule  {
0 1
  N        0.0801310     2.5312230    -0.3913130
  N       -1.9006720     0.7782080     0.6229160
  C        0.3499640     0.1224320    -0.0065570
  C        0.8960730     1.4188800    -0.1658420
  C        2.6063130    -0.8406050     0.1180930
  C        1.2173430    -0.9692250     0.1590540
  C       -1.1077440    -0.1233710    -0.0042630
  C        2.2932590     1.5435480    -0.2281840
  C        3.1306880     0.4434260    -0.0762550
  C        3.5085210    -2.0251140     0.3469700
  C       -1.6410700    -1.2638430    -0.6279320
  C       -3.0109220    -1.5027310    -0.5649580
  C       -3.2228950     0.5407920     0.6622730
  C       -3.8232840    -0.5849970     0.1005040
  H        0.7834850    -1.9532010     0.3364590
  H        2.7242150     2.5332940    -0.3759070
  H        4.1900411     0.5829968    -0.1201481
  H        3.8288200    -2.0891060     1.3929170
  H        2.9990460    -2.9607700     0.0984840
  H        4.4097140    -1.9577250    -0.2701360
  H       -0.9841790    -1.9393540    -1.1680850
  H        0.5549050     3.4095210    -0.2083710
  H       -0.8007830     2.4663430     0.1128890
  H       -3.4393090    -2.3812410    -1.0417430
  H       -3.8215100     1.2923600     1.1747000
  H       -4.8979480    -0.7268890     0.1711280
units angstrom
no_reorient  #important for SAPT in psi4, default
symmetry c1  #important for SAPT in psi4, default
}

set PROPERTIES_ORIGIN ["COM"]
properties('MP2/aug-cc-pvtz', properties = ['dipole'])
--------------------------------------------------------------------------

    Molecular point group: c1
  Charge       = 0
  Multiplicity = 1
  Basis Set: AUG-CC-PVTZ
    Blend: AUG-CC-PVTZ
  Basis Set: (AUG-CC-PVTZ AUX)
    Blend: AUG-CC-PVTZ-JKFIT

    Orbital Energies [Eh]
    ---------------------

    Doubly Occupied:

       1A    -15.567486     2A    -15.547629     3A    -11.288623
       4A    -11.280186     5A    -11.275239     6A    -11.262361
       7A    -11.241572     8A    -11.240787     9A    -11.233347
      10A    -11.232184    11A    -11.230202    12A    -11.226395
      13A    -11.222516    14A    -11.219515    15A     -1.260954
      16A     -1.210552    17A     -1.131709    18A     -1.087795
      19A     -1.063131    20A     -1.016059    21A     -0.992685
      22A     -0.915612    23A     -0.871152    24A     -0.862082
      25A     -0.814900    26A     -0.783782    27A     -0.708858
      28A     -0.689921    29A     -0.682756    30A     -0.660418
      31A     -0.650560    32A     -0.613517    33A     -0.600561
      34A     -0.589949    35A     -0.582019    36A     -0.573894
      37A     -0.570150    38A     -0.548189    39A     -0.532921
      40A     -0.529384    41A     -0.512917    42A     -0.493009
      43A     -0.486102    44A     -0.434982    45A     -0.418778
      46A     -0.387512    47A     -0.366534    48A     -0.316384
      49A     -0.278427

  @DF-RHF Final Energy:  -570.50187667804539

   => Energetics <=

    Nuclear Repulsion Energy =            812.1236909928587693
    One-Electron Energy =               -2384.6387418886556588
    Two-Electron Energy =                1002.0131742177513843
    Total Energy =                       -570.5018766780453916
  Basis Set: (AUG-CC-PVTZ AUX)
    Blend: AUG-CC-PVTZ-RI
    Molecular point group: c1

    Geometry (in Angstrom), charge = 0, multiplicity = 1:

       Center              X                  Y                   Z               Mass
    ------------   -----------------  -----------------  -----------------  -----------------
         N            0.110268524574     2.511127397592    -0.390775121078    14.003074004430
         N           -1.870534475426     0.758112397592     0.623453878922    14.003074004430
         C            0.380101524574     0.102336397592    -0.006019121078    12.000000000000
         C            0.926210524574     1.398784397592    -0.165304121078    12.000000000000
         C            2.636450524574    -0.860700602408     0.118630878922    12.000000000000
         C            1.247480524574    -0.989320602408     0.159591878922    12.000000000000
         C           -1.077606475426    -0.143466602408    -0.003725121078    12.000000000000
         C            2.323396524574     1.523452397592    -0.227646121078    12.000000000000
         C            3.160825524574     0.423330397592    -0.075717121078    12.000000000000
         C            3.538658524574    -2.045209602408     0.347507878922    12.000000000000
         C           -1.610932475426    -1.283938602408    -0.627394121078    12.000000000000
         C           -2.980784475426    -1.522826602408    -0.564420121078    12.000000000000
         C           -3.192757475426     0.520696397592     0.662810878922    12.000000000000
         C           -3.793146475426    -0.605092602408     0.101041878922    12.000000000000
         H            0.813622524574    -1.973296602408     0.336996878922     1.007825032230
         H            2.754352524574     2.513198397592    -0.375369121078     1.007825032230
         H            4.220178624574     0.562901197592    -0.119610221078     1.007825032230
         H            3.858957524574    -2.109201602408     1.393454878922     1.007825032230
         H            3.029183524574    -2.980865602408     0.099021878922     1.007825032230
         H            4.439851524574    -1.977820602408    -0.269598121078     1.007825032230
         H           -0.954041475426    -1.959449602408    -1.167547121078     1.007825032230
         H            0.585042524574     3.389425397592    -0.207833121078     1.007825032230
         H           -0.770645475426     2.446247397592     0.113426878922     1.007825032230
         H           -3.409171475426    -2.401336602408    -1.041205121078     1.007825032230
         H           -3.791372475426     1.272264397592     1.175237878922     1.007825032230
         H           -4.867810475426    -0.746984602408     0.171665878922     1.007825032230

  Basis Set: AUG-CC-PVTZ
    Blend: AUG-CC-PVTZ
  Basis Set: (AUG-CC-PVTZ AUX)
    Blend: AUG-CC-PVTZ-JKFIT
	 Reference Energy          =    -570.5018766780453916 [Eh]
	 Singles Energy            =      -0.0000000000000000 [Eh]
	 Same-Spin Energy          =      -0.6407930972639381 [Eh]
	 Opposite-Spin Energy      =      -1.9775415068556137 [Eh]
	 Correlation Energy        =      -2.6183346041195517 [Eh]
	 Total Energy              =    -573.1202112821649735 [Eh]

	 ================> DF-SCS-MP2 Energies <==================
	-----------------------------------------------------------
	 SCS Same-Spin Scale       =       0.3333333333333333 [-]
	 SCS Opposite-Spin Scale   =       1.2000000000000000 [-]
	 SCS Same-Spin Energy      =      -0.2135976990879793 [Eh]
	 SCS Opposite-Spin Energy  =      -2.3730498082267362 [Eh]
	 SCS Correlation Energy    =      -2.5866475073147157 [Eh]
	 SCS Total Energy          =    -573.0885241853601428 [Eh]
	-----------------------------------------------------------

  Dipole Moment: [D]
     X:    -1.0865      Y:    -0.9631      Z:     0.0772     Total:     1.4540

*** Psi4 exiting successfully. Buy a developer a beer!
