                               Psi4 1.4a3.dev225

  ==> Input File <==

--------------------------------------------------------------------------
#psi4
#
memory 32 gb

molecule  {
0 1
  N        0.0801310     2.5312230    -0.3913130
  N       -1.9006720     0.7782080     0.6229160
  C        0.3499640     0.1224320    -0.0065570
  C        0.8960730     1.4188800    -0.1658420
  C        2.6063130    -0.8406050     0.1180930
  C        1.2173430    -0.9692250     0.1590540
  C       -1.1077440    -0.1233710    -0.0042630
  C        2.4138923     1.6236841    -0.2430872
  C        3.1306880     0.4434260    -0.0762550
  C        3.5085210    -2.0251140     0.3469700
  C       -1.6410700    -1.2638430    -0.6279320
  C       -3.0109220    -1.5027310    -0.5649580
  C       -3.2228950     0.5407920     0.6622730
  C       -3.8232840    -0.5849970     0.1005040
  H        0.7834850    -1.9532010     0.3364590
  H        2.7242150     2.5332940    -0.3759070
  H        4.2098530     0.5856070    -0.1209690
  H        3.8288200    -2.0891060     1.3929170
  H        2.9990460    -2.9607700     0.0984840
  H        4.4097140    -1.9577250    -0.2701360
  H       -0.9841790    -1.9393540    -1.1680850
  H        0.5549050     3.4095210    -0.2083710
  H       -0.8007830     2.4663430     0.1128890
  H       -3.4393090    -2.3812410    -1.0417430
  H       -3.8215100     1.2923600     1.1747000
  H       -4.8979480    -0.7268890     0.1711280
units angstrom
no_reorient  #important for SAPT in psi4, default
symmetry c1  #important for SAPT in psi4, default
}

set PROPERTIES_ORIGIN ["COM"]
properties('MP2/aug-cc-pvtz', properties = ['dipole'])
--------------------------------------------------------------------------

    Molecular point group: c1
  Charge       = 0
  Multiplicity = 1
  Basis Set: AUG-CC-PVTZ
    Blend: AUG-CC-PVTZ
  Basis Set: (AUG-CC-PVTZ AUX)
    Blend: AUG-CC-PVTZ-JKFIT

    Orbital Energies [Eh]
    ---------------------

    Doubly Occupied:

       1A    -15.566729     2A    -15.552004     3A    -11.290506
       4A    -11.288679     5A    -11.279846     6A    -11.262068
       7A    -11.240795     8A    -11.240170     9A    -11.235423
      10A    -11.235342    11A    -11.229319    12A    -11.227107
      13A    -11.225193    14A    -11.219118    15A     -1.260319
      16A     -1.208275    17A     -1.128115    18A     -1.087318
      19A     -1.062779    20A     -1.010197    21A     -0.994173
      22A     -0.910586    23A     -0.864979    24A     -0.862285
      25A     -0.825777    26A     -0.781449    27A     -0.710587
      28A     -0.688966    29A     -0.678232    30A     -0.665961
      31A     -0.653915    32A     -0.635056    33A     -0.600252
      34A     -0.590236    35A     -0.578403    36A     -0.569642
      37A     -0.567523    38A     -0.547352    39A     -0.529665
      40A     -0.525487    41A     -0.507658    42A     -0.502729
      43A     -0.475238    44A     -0.434300    45A     -0.417742
      46A     -0.387292    47A     -0.367342    48A     -0.318018
      49A     -0.270761

  @DF-RHF Final Energy:  -570.47435483516438

   => Energetics <=

    Nuclear Repulsion Energy =            809.1864159878922464
    One-Electron Energy =               -2378.6997266733110337
    Two-Electron Energy =                 999.0389558502542968
    Total Energy =                       -570.4743548351643767
  Basis Set: (AUG-CC-PVTZ AUX)
    Blend: AUG-CC-PVTZ-RI
    Molecular point group: c1

    Geometry (in Angstrom), charge = 0, multiplicity = 1:

       Center              X                  Y                   Z               Mass
    ------------   -----------------  -----------------  -----------------  -----------------
         N            0.102296953998     2.505889681289    -0.389799207573    14.003074004430
         N           -1.878506046002     0.752874681289     0.624429792427    14.003074004430
         C            0.372129953998     0.097098681289    -0.005043207573    12.000000000000
         C            0.918238953998     1.393546681289    -0.164328207573    12.000000000000
         C            2.628478953998    -0.865938318711     0.119606792427    12.000000000000
         C            1.239508953998    -0.994558318711     0.160567792427    12.000000000000
         C           -1.085578046002    -0.148704318711    -0.002749207573    12.000000000000
         C            2.436058253998     1.598350781289    -0.241573407573    12.000000000000
         C            3.152853953998     0.418092681289    -0.074741207573    12.000000000000
         C            3.530686953998    -2.050447318711     0.348483792427    12.000000000000
         C           -1.618904046002    -1.289176318711    -0.626418207573    12.000000000000
         C           -2.988756046002    -1.528064318711    -0.563444207573    12.000000000000
         C           -3.200729046002     0.515458681289     0.663786792427    12.000000000000
         C           -3.801118046002    -0.610330318711     0.102017792427    12.000000000000
         H            0.805650953998    -1.978534318711     0.337972792427     1.007825032230
         H            2.746380953998     2.507960681289    -0.374393207573     1.007825032230
         H            4.232018953998     0.560273681289    -0.119455207573     1.007825032230
         H            3.850985953998    -2.114439318711     1.394430792427     1.007825032230
         H            3.021211953998    -2.986103318711     0.099997792427     1.007825032230
         H            4.431879953998    -1.983058318711    -0.268622207573     1.007825032230
         H           -0.962013046002    -1.964687318711    -1.166571207573     1.007825032230
         H            0.577070953998     3.384187681289    -0.206857207573     1.007825032230
         H           -0.778617046002     2.441009681289     0.114402792427     1.007825032230
         H           -3.417143046002    -2.406574318711    -1.040229207573     1.007825032230
         H           -3.799344046002     1.267026681289     1.176213792427     1.007825032230
         H           -4.875782046002    -0.752222318711     0.172641792427     1.007825032230

  Basis Set: AUG-CC-PVTZ
    Blend: AUG-CC-PVTZ
  Basis Set: (AUG-CC-PVTZ AUX)
    Blend: AUG-CC-PVTZ-JKFIT
	 Reference Energy          =    -570.4743548351643767 [Eh]
	 Singles Energy            =      -0.0000000000000000 [Eh]
	 Same-Spin Energy          =      -0.6405126579701464 [Eh]
	 Opposite-Spin Energy      =      -1.9790484638908095 [Eh]
	 Correlation Energy        =      -2.6195611218609560 [Eh]
	 Total Energy              =    -573.0939159570253878 [Eh]

	 ================> DF-SCS-MP2 Energies <==================
	-----------------------------------------------------------
	 SCS Same-Spin Scale       =       0.3333333333333333 [-]
	 SCS Opposite-Spin Scale   =       1.2000000000000000 [-]
	 SCS Same-Spin Energy      =      -0.2135042193233821 [Eh]
	 SCS Opposite-Spin Energy  =      -2.3748581566689713 [Eh]
	 SCS Correlation Energy    =      -2.5883623759923533 [Eh]
	 SCS Total Energy          =    -573.0627172111567234 [Eh]
	-----------------------------------------------------------

  Dipole Moment: [D]
     X:    -1.1599      Y:    -0.8059      Z:     0.0427     Total:     1.4131

*** Psi4 exiting successfully. Buy a developer a beer!
