                               Psi4 1.4a3.dev225

  ==> Input File <==

--------------------------------------------------------------------------
#psi4
#
memory 32 gb

molecule  {
0 1
  N        0.0801310     2.5312230    -0.3913130
  N       -1.9006720     0.7782080     0.6229160
  C        0.3499640     0.1224320    -0.0065570
  C        0.8960730     1.4188800    -0.1658420
  C        2.6063130    -0.8406050     0.1180930
  C        1.2173430    -0.9692250     0.1590540
  C       -1.1077440    -0.1233710    -0.0042630
  C        2.2932590     1.5435480    -0.2281840
  C        3.1306880     0.4434260    -0.0762550
  C        3.5085210    -2.0251140     0.3469700
  C       -1.6790287    -1.3450143    -0.6723207
  C       -3.0109220    -1.5027310    -0.5649580
  C       -3.2228950     0.5407920     0.6622730
  C       -3.8232840    -0.5849970     0.1005040
  H        0.7834850    -1.9532010     0.3364590
  H        2.7242150     2.5332940    -0.3759070
  H        4.2098530     0.5856070    -0.1209690
  H        3.8288200    -2.0891060     1.3929170
  H        2.9990460    -2.9607700     0.0984840
  H        4.4097140    -1.9577250    -0.2701360
  H       -0.9841790    -1.9393540    -1.1680850
  H        0.5549050     3.4095210    -0.2083710
  H       -0.8007830     2.4663430     0.1128890
  H       -3.4393090    -2.3812410    -1.0417430
  H       -3.8215100     1.2923600     1.1747000
  H       -4.8979480    -0.7268890     0.1711280
units angstrom
no_reorient  #important for SAPT in psi4, default
symmetry c1  #important for SAPT in psi4, default
}

set PROPERTIES_ORIGIN ["COM"]
properties('MP2/aug-cc-pvtz', properties = ['dipole'])
--------------------------------------------------------------------------

    Molecular point group: c1
  Charge       = 0
  Multiplicity = 1
  Basis Set: AUG-CC-PVTZ
    Blend: AUG-CC-PVTZ
  Basis Set: (AUG-CC-PVTZ AUX)
    Blend: AUG-CC-PVTZ-JKFIT

    Orbital Energies [Eh]
    ---------------------

    Doubly Occupied:

       1A    -15.567254     2A    -15.549167     3A    -11.300930
       4A    -11.278109     5A    -11.277937     6A    -11.254432
       7A    -11.242084     8A    -11.238962     9A    -11.235994
      10A    -11.234875    11A    -11.234774    12A    -11.228518
      13A    -11.224559    14A    -11.220847    15A     -1.257536
      16A     -1.211941    17A     -1.133316    18A     -1.092684
      19A     -1.058259    20A     -1.017738    21A     -0.991656
      22A     -0.917357    23A     -0.875577    24A     -0.853619
      25A     -0.817204    26A     -0.781370    27A     -0.709312
      28A     -0.690836    29A     -0.683386    30A     -0.669896
      31A     -0.646710    32A     -0.610804    33A     -0.602980
      34A     -0.589653    35A     -0.583987    36A     -0.573208
      37A     -0.562337    38A     -0.545041    39A     -0.541577
      40A     -0.531957    41A     -0.514083    42A     -0.495862
      43A     -0.487900    44A     -0.436400    45A     -0.412845
      46A     -0.395108    47A     -0.362304    48A     -0.314393
      49A     -0.279162

  @DF-RHF Final Energy:  -570.49075950812266

   => Energetics <=

    Nuclear Repulsion Energy =            810.4209739055133923
    One-Electron Energy =               -2381.1505845677165780
    Two-Electron Energy =                1000.2388511540805212
    Total Energy =                       -570.4907595081226646
  Basis Set: (AUG-CC-PVTZ AUX)
    Blend: AUG-CC-PVTZ-RI
    Molecular point group: c1

    Geometry (in Angstrom), charge = 0, multiplicity = 1:

       Center              X                  Y                   Z               Mass
    ------------   -----------------  -----------------  -----------------  -----------------
         N            0.112634289684     2.516404012039    -0.387877285210    14.003074004430
         N           -1.868168710316     0.763389012039     0.626351714790    14.003074004430
         C            0.382467289684     0.107613012039    -0.003121285210    12.000000000000
         C            0.928576289684     1.404061012039    -0.162406285210    12.000000000000
         C            2.638816289684    -0.855423987961     0.121528714790    12.000000000000
         C            1.249846289684    -0.984043987961     0.162489714790    12.000000000000
         C           -1.075240710316    -0.138189987961    -0.000827285210    12.000000000000
         C            2.325762289684     1.528729012039    -0.224748285210    12.000000000000
         C            3.163191289684     0.428607012039    -0.072819285210    12.000000000000
         C            3.541024289684    -2.039932987961     0.350405714790    12.000000000000
         C           -1.646525410316    -1.359833287961    -0.668884985210    12.000000000000
         C           -2.978418710316    -1.517549987961    -0.561522285210    12.000000000000
         C           -3.190391710316     0.525973012039     0.665708714790    12.000000000000
         C           -3.790780710316    -0.599815987961     0.103939714790    12.000000000000
         H            0.815988289684    -1.968019987961     0.339894714790     1.007825032230
         H            2.756718289684     2.518475012039    -0.372471285210     1.007825032230
         H            4.242356289684     0.570788012039    -0.117533285210     1.007825032230
         H            3.861323289684    -2.103924987961     1.396352714790     1.007825032230
         H            3.031549289684    -2.975588987961     0.101919714790     1.007825032230
         H            4.442217289684    -1.972543987961    -0.266700285210     1.007825032230
         H           -0.951675710316    -1.954172987961    -1.164649285210     1.007825032230
         H            0.587408289684     3.394702012039    -0.204935285210     1.007825032230
         H           -0.768279710316     2.451524012039     0.116324714790     1.007825032230
         H           -3.406805710316    -2.396059987961    -1.038307285210     1.007825032230
         H           -3.789006710316     1.277541012039     1.178135714790     1.007825032230
         H           -4.865444710316    -0.741707987961     0.174563714790     1.007825032230

  Basis Set: AUG-CC-PVTZ
    Blend: AUG-CC-PVTZ
  Basis Set: (AUG-CC-PVTZ AUX)
    Blend: AUG-CC-PVTZ-JKFIT
	 Reference Energy          =    -570.4907595081226646 [Eh]
	 Singles Energy            =      -0.0000000000000000 [Eh]
	 Same-Spin Energy          =      -0.6404840094102880 [Eh]
	 Opposite-Spin Energy      =      -1.9779428104884176 [Eh]
	 Correlation Energy        =      -2.6184268198987057 [Eh]
	 Total Energy              =    -573.1091863280213374 [Eh]

	 ================> DF-SCS-MP2 Energies <==================
	-----------------------------------------------------------
	 SCS Same-Spin Scale       =       0.3333333333333333 [-]
	 SCS Opposite-Spin Scale   =       1.2000000000000000 [-]
	 SCS Same-Spin Energy      =      -0.2134946698034293 [Eh]
	 SCS Opposite-Spin Energy  =      -2.3735313725861009 [Eh]
	 SCS Correlation Energy    =      -2.5870260423895304 [Eh]
	 SCS Total Energy          =    -573.0777855505122034 [Eh]
	-----------------------------------------------------------

  Dipole Moment: [D]
     X:    -0.9169      Y:    -0.9071      Z:     0.0805     Total:     1.2923

*** Psi4 exiting successfully. Buy a developer a beer!
