                               Psi4 1.4a3.dev225

  ==> Input File <==

--------------------------------------------------------------------------
#psi4
#
memory 32 gb

molecule  {
0 1
  N        0.0801310     2.5312230    -0.3913130
  N       -1.9006720     0.7782080     0.6229160
  C        0.3563810     0.0787119    -0.0332004
  C        0.8960730     1.4188800    -0.1658420
  C        2.6063130    -0.8406050     0.1180930
  C        1.2173430    -0.9692250     0.1590540
  C       -1.1077440    -0.1233710    -0.0042630
  C        2.2932590     1.5435480    -0.2281840
  C        3.1306880     0.4434260    -0.0762550
  C        3.5085210    -2.0251140     0.3469700
  C       -1.6410700    -1.2638430    -0.6279320
  C       -3.0109220    -1.5027310    -0.5649580
  C       -3.2228950     0.5407920     0.6622730
  C       -3.8232840    -0.5849970     0.1005040
  H        0.7834850    -1.9532010     0.3364590
  H        2.7242150     2.5332940    -0.3759070
  H        4.2098530     0.5856070    -0.1209690
  H        3.8288200    -2.0891060     1.3929170
  H        2.9990460    -2.9607700     0.0984840
  H        4.4097140    -1.9577250    -0.2701360
  H       -0.9841790    -1.9393540    -1.1680850
  H        0.5549050     3.4095210    -0.2083710
  H       -0.8007830     2.4663430     0.1128890
  H       -3.4393090    -2.3812410    -1.0417430
  H       -3.8215100     1.2923600     1.1747000
  H       -4.8979480    -0.7268890     0.1711280
units angstrom
no_reorient  #important for SAPT in psi4, default
symmetry c1  #important for SAPT in psi4, default
}

set PROPERTIES_ORIGIN ["COM"]
properties('MP2/aug-cc-pvtz', properties = ['dipole'])
--------------------------------------------------------------------------

    Molecular point group: c1
  Charge       = 0
  Multiplicity = 1
  Basis Set: AUG-CC-PVTZ
    Blend: AUG-CC-PVTZ
  Basis Set: (AUG-CC-PVTZ AUX)
    Blend: AUG-CC-PVTZ-JKFIT

    Orbital Energies [Eh]
    ---------------------

    Doubly Occupied:

       1A    -15.568655     2A    -15.549519     3A    -11.288926
       4A    -11.280935     5A    -11.278992     6A    -11.262209
       7A    -11.241857     8A    -11.240169     9A    -11.233921
      10A    -11.231864    11A    -11.229995    12A    -11.225461
      13A    -11.220800    14A    -11.218946    15A     -1.261105
      16A     -1.209915    17A     -1.133792    18A     -1.087858
      19A     -1.064110    20A     -1.014731    21A     -0.994781
      22A     -0.913844    23A     -0.870214    24A     -0.862446
      25A     -0.810796    26A     -0.785950    27A     -0.709876
      28A     -0.690130    29A     -0.681271    30A     -0.659790
      31A     -0.652387    32A     -0.613146    33A     -0.601586
      34A     -0.588225    35A     -0.583198    36A     -0.572986
      37A     -0.569022    38A     -0.548225    39A     -0.532203
      40A     -0.528597    41A     -0.512828    42A     -0.495606
      43A     -0.481508    44A     -0.437217    45A     -0.418286
      46A     -0.387794    47A     -0.367965    48A     -0.318870
      49A     -0.275177

  @DF-RHF Final Energy:  -570.49908368621209

   => Energetics <=

    Nuclear Repulsion Energy =            811.9345463335494060
    One-Electron Energy =               -2384.2518944394541904
    Two-Electron Energy =                1001.8182644196926958
    Total Energy =                       -570.4990836862120887
  Basis Set: (AUG-CC-PVTZ AUX)
    Blend: AUG-CC-PVTZ-RI
    Molecular point group: c1

    Geometry (in Angstrom), charge = 0, multiplicity = 1:

       Center              X                  Y                   Z               Mass
    ------------   -----------------  -----------------  -----------------  -----------------
         N            0.109741795061     2.513962869824    -0.389033958453    14.003074004430
         N           -1.871061204939     0.760947869824     0.625195041547    14.003074004430
         C            0.385991795061     0.061451769824    -0.030921358453    12.000000000000
         C            0.925683795061     1.401619869824    -0.163562958453    12.000000000000
         C            2.635923795061    -0.857865130176     0.120372041547    12.000000000000
         C            1.246953795061    -0.986485130176     0.161333041547    12.000000000000
         C           -1.078133204939    -0.140631130176    -0.001983958453    12.000000000000
         C            2.322869795061     1.526287869824    -0.225904958453    12.000000000000
         C            3.160298795061     0.426165869824    -0.073975958453    12.000000000000
         C            3.538131795061    -2.042374130176     0.349249041547    12.000000000000
         C           -1.611459204939    -1.281103130176    -0.625652958453    12.000000000000
         C           -2.981311204939    -1.519991130176    -0.562678958453    12.000000000000
         C           -3.193284204939     0.523531869824     0.664552041547    12.000000000000
         C           -3.793673204939    -0.602257130176     0.102783041547    12.000000000000
         H            0.813095795061    -1.970461130176     0.338738041547     1.007825032230
         H            2.753825795061     2.516033869824    -0.373627958453     1.007825032230
         H            4.239463795061     0.568346869824    -0.118689958453     1.007825032230
         H            3.858430795061    -2.106366130176     1.395196041547     1.007825032230
         H            3.028656795061    -2.978030130176     0.100763041547     1.007825032230
         H            4.439324795061    -1.974985130176    -0.267856958453     1.007825032230
         H           -0.954568204939    -1.956614130176    -1.165805958453     1.007825032230
         H            0.584515795061     3.392260869824    -0.206091958453     1.007825032230
         H           -0.771172204939     2.449082869824     0.115168041547     1.007825032230
         H           -3.409698204939    -2.398501130176    -1.039463958453     1.007825032230
         H           -3.791899204939     1.275099869824     1.176979041547     1.007825032230
         H           -4.868337204939    -0.744149130176     0.173407041547     1.007825032230

  Basis Set: AUG-CC-PVTZ
    Blend: AUG-CC-PVTZ
  Basis Set: (AUG-CC-PVTZ AUX)
    Blend: AUG-CC-PVTZ-JKFIT
	 Reference Energy          =    -570.4990836862120887 [Eh]
	 Singles Energy            =      -0.0000000000000000 [Eh]
	 Same-Spin Energy          =      -0.6408697926296314 [Eh]
	 Opposite-Spin Energy      =      -1.9777386950227633 [Eh]
	 Correlation Energy        =      -2.6186084876523950 [Eh]
	 Total Energy              =    -573.1176921738644978 [Eh]

	 ================> DF-SCS-MP2 Energies <==================
	-----------------------------------------------------------
	 SCS Same-Spin Scale       =       0.3333333333333333 [-]
	 SCS Opposite-Spin Scale   =       1.2000000000000000 [-]
	 SCS Same-Spin Energy      =      -0.2136232642098771 [Eh]
	 SCS Opposite-Spin Energy  =      -2.3732864340273161 [Eh]
	 SCS Correlation Energy    =      -2.5869096982371933 [Eh]
	 SCS Total Energy          =    -573.0859933844492389 [Eh]
	-----------------------------------------------------------

  Dipole Moment: [D]
     X:    -1.1451      Y:    -0.9316      Z:     0.0799     Total:     1.4784

*** Psi4 exiting successfully. Buy a developer a beer!
