                               Psi4 1.4a3.dev225

  ==> Input File <==

--------------------------------------------------------------------------
#psi4
#
memory 32 gb

molecule  {
0 1
  N        0.0801310     2.5312230    -0.3913130
  N       -1.9006720     0.7782080     0.6229160
  C        0.3499640     0.1224320    -0.0065570
  C        0.8960730     1.4188800    -0.1658420
  C        2.6063130    -0.8406050     0.1180930
  C        1.2173430    -0.9692250     0.1590540
  C       -1.1077440    -0.1233710    -0.0042630
  C        2.2932590     1.5435480    -0.2281840
  C        3.1306880     0.4434260    -0.0762550
  C        3.5085210    -2.0251140     0.3469700
  C       -1.6410700    -1.2638430    -0.6279320
  C       -3.0109220    -1.5027310    -0.5649580
  C       -3.2228950     0.5407920     0.6622730
  C       -3.8017504    -0.5446194     0.1206524
  H        0.7834850    -1.9532010     0.3364590
  H        2.7242150     2.5332940    -0.3759070
  H        4.2098530     0.5856070    -0.1209690
  H        3.8288200    -2.0891060     1.3929170
  H        2.9990460    -2.9607700     0.0984840
  H        4.4097140    -1.9577250    -0.2701360
  H       -0.9841790    -1.9393540    -1.1680850
  H        0.5549050     3.4095210    -0.2083710
  H       -0.8007830     2.4663430     0.1128890
  H       -3.4393090    -2.3812410    -1.0417430
  H       -3.8215100     1.2923600     1.1747000
  H       -4.8979480    -0.7268890     0.1711280
units angstrom
no_reorient  #important for SAPT in psi4, default
symmetry c1  #important for SAPT in psi4, default
}

set PROPERTIES_ORIGIN ["COM"]
properties('MP2/aug-cc-pvtz', properties = ['dipole'])
--------------------------------------------------------------------------

    Molecular point group: c1
  Charge       = 0
  Multiplicity = 1
  Basis Set: AUG-CC-PVTZ
    Blend: AUG-CC-PVTZ
  Basis Set: (AUG-CC-PVTZ AUX)
    Blend: AUG-CC-PVTZ-JKFIT

    Orbital Energies [Eh]
    ---------------------

    Doubly Occupied:

       1A    -15.565737     2A    -15.547666     3A    -11.289389
       4A    -11.275674     5A    -11.271898     6A    -11.265659
       7A    -11.241700     8A    -11.239973     9A    -11.233834
      10A    -11.232855    11A    -11.232612    12A    -11.226893
      13A    -11.222917    14A    -11.219716    15A     -1.262001
      16A     -1.210872    17A     -1.132000    18A     -1.085143
      19A     -1.066014    20A     -1.016453    21A     -0.995302
      22A     -0.915688    23A     -0.871687    24A     -0.861975
      25A     -0.813917    26A     -0.784093    27A     -0.708884
      28A     -0.690026    29A     -0.681265    30A     -0.660392
      31A     -0.647868    32A     -0.614345    33A     -0.600912
      34A     -0.592397    35A     -0.581493    36A     -0.574794
      37A     -0.570570    38A     -0.549264    39A     -0.531410
      40A     -0.523149    41A     -0.512245    42A     -0.492240
      43A     -0.485770    44A     -0.435313    45A     -0.419915
      46A     -0.384145    47A     -0.370181    48A     -0.318215
      49A     -0.279144

  @DF-RHF Final Energy:  -570.49872053863419

   => Energetics <=

    Nuclear Repulsion Energy =            812.6264696214209380
    One-Electron Energy =               -2385.6391697372600902
    Two-Electron Energy =                1002.5139795772049638
    Total Energy =                       -570.4987205386341884
  Basis Set: (AUG-CC-PVTZ AUX)
    Blend: AUG-CC-PVTZ-RI
    Molecular point group: c1

    Geometry (in Angstrom), charge = 0, multiplicity = 1:

       Center              X                  Y                   Z               Mass
    ------------   -----------------  -----------------  -----------------  -----------------
         N            0.108756465608     2.508481217815    -0.392083939183    14.003074004430
         N           -1.872046534392     0.755466217815     0.622145060817    14.003074004430
         C            0.378589465608     0.099690217815    -0.007327939183    12.000000000000
         C            0.924698465608     1.396138217815    -0.166612939183    12.000000000000
         C            2.634938465608    -0.863346782185     0.117322060817    12.000000000000
         C            1.245968465608    -0.991966782185     0.158283060817    12.000000000000
         C           -1.079118534392    -0.146112782185    -0.005033939183    12.000000000000
         C            2.321884465608     1.520806217815    -0.228954939183    12.000000000000
         C            3.159313465608     0.420684217815    -0.077025939183    12.000000000000
         C            3.537146465608    -2.047855782185     0.346199060817    12.000000000000
         C           -1.612444534392    -1.286584782185    -0.628702939183    12.000000000000
         C           -2.982296534392    -1.525472782185    -0.565728939183    12.000000000000
         C           -3.194269534392     0.518050217815     0.661502060817    12.000000000000
         C           -3.773124934392    -0.567361182185     0.119881460817    12.000000000000
         H            0.812110465608    -1.975942782185     0.335688060817     1.007825032230
         H            2.752840465608     2.510552217815    -0.376677939183     1.007825032230
         H            4.238478465608     0.562865217815    -0.121739939183     1.007825032230
         H            3.857445465608    -2.111847782185     1.392146060817     1.007825032230
         H            3.027671465608    -2.983511782185     0.097713060817     1.007825032230
         H            4.438339465608    -1.980466782185    -0.270906939183     1.007825032230
         H           -0.955553534392    -1.962095782185    -1.168855939183     1.007825032230
         H            0.583530465608     3.386779217815    -0.209141939183     1.007825032230
         H           -0.772157534392     2.443601217815     0.112118060817     1.007825032230
         H           -3.410683534392    -2.403982782185    -1.042513939183     1.007825032230
         H           -3.792884534392     1.269618217815     1.173929060817     1.007825032230
         H           -4.869322534392    -0.749630782185     0.170357060817     1.007825032230

  Basis Set: AUG-CC-PVTZ
    Blend: AUG-CC-PVTZ
  Basis Set: (AUG-CC-PVTZ AUX)
    Blend: AUG-CC-PVTZ-JKFIT
	 Reference Energy          =    -570.4987205386341884 [Eh]
	 Singles Energy            =      -0.0000000000000000 [Eh]
	 Same-Spin Energy          =      -0.6407852751522113 [Eh]
	 Opposite-Spin Energy      =      -1.9776886568527756 [Eh]
	 Correlation Energy        =      -2.6184739320049868 [Eh]
	 Total Energy              =    -573.1171944706392196 [Eh]

	 ================> DF-SCS-MP2 Energies <==================
	-----------------------------------------------------------
	 SCS Same-Spin Scale       =       0.3333333333333333 [-]
	 SCS Opposite-Spin Scale   =       1.2000000000000000 [-]
	 SCS Same-Spin Energy      =      -0.2135950917174038 [Eh]
	 SCS Opposite-Spin Energy  =      -2.3732263882233307 [Eh]
	 SCS Correlation Energy    =      -2.5868214799407343 [Eh]
	 SCS Total Energy          =    -573.0855420185748699 [Eh]
	-----------------------------------------------------------

  Dipole Moment: [D]
     X:    -1.0530      Y:    -0.9920      Z:     0.0540     Total:     1.4477

*** Psi4 exiting successfully. Buy a developer a beer!
