                               Psi4 1.4a3.dev225

  ==> Input File <==

--------------------------------------------------------------------------
#psi4
#
memory 32 gb

molecule  {
0 1
  N        0.0801310     2.5312230    -0.3913130
  N       -1.9006720     0.7782080     0.6229160
  C        0.3499640     0.1224320    -0.0065570
  C        0.8960730     1.4188800    -0.1658420
  C        2.6063130    -0.8406050     0.1180930
  C        1.2173430    -0.9692250     0.1590540
  C       -1.1077440    -0.1233710    -0.0042630
  C        2.2932590     1.5435480    -0.2281840
  C        3.1306880     0.4434260    -0.0762550
  C        3.5085210    -2.0251140     0.3469700
  C       -1.6410700    -1.2638430    -0.6279320
  C       -3.0109220    -1.5027310    -0.5649580
  C       -3.2228950     0.5407920     0.6622730
  C       -3.8232840    -0.5849970     0.1005040
  H        0.7834850    -1.9532010     0.3364590
  H        2.8033214     2.7149720    -0.4030231
  H        4.2098530     0.5856070    -0.1209690
  H        3.8288200    -2.0891060     1.3929170
  H        2.9990460    -2.9607700     0.0984840
  H        4.4097140    -1.9577250    -0.2701360
  H       -0.9841790    -1.9393540    -1.1680850
  H        0.5549050     3.4095210    -0.2083710
  H       -0.8007830     2.4663430     0.1128890
  H       -3.4393090    -2.3812410    -1.0417430
  H       -3.8215100     1.2923600     1.1747000
  H       -4.8979480    -0.7268890     0.1711280
units angstrom
no_reorient  #important for SAPT in psi4, default
symmetry c1  #important for SAPT in psi4, default
}

set PROPERTIES_ORIGIN ["COM"]
properties('MP2/aug-cc-pvtz', properties = ['dipole'])
--------------------------------------------------------------------------

    Molecular point group: c1
  Charge       = 0
  Multiplicity = 1
  Basis Set: AUG-CC-PVTZ
    Blend: AUG-CC-PVTZ
  Basis Set: (AUG-CC-PVTZ AUX)
    Blend: AUG-CC-PVTZ-JKFIT

    Orbital Energies [Eh]
    ---------------------

    Doubly Occupied:

       1A    -15.568177     2A    -15.547492     3A    -11.289581
       4A    -11.280752     5A    -11.278037     6A    -11.262970
       7A    -11.244822     8A    -11.242215     9A    -11.241575
      10A    -11.235056    11A    -11.234970    12A    -11.233797
      13A    -11.228452    14A    -11.220631    15A     -1.261657
      16A     -1.210641    17A     -1.132887    18A     -1.088437
      19A     -1.063586    20A     -1.014474    21A     -0.991885
      22A     -0.916492    23A     -0.871252    24A     -0.862300
      25A     -0.807803    26A     -0.782255    27A     -0.708010
      28A     -0.690462    29A     -0.681344    30A     -0.659860
      31A     -0.649109    32A     -0.604961    33A     -0.600948
      34A     -0.588961    35A     -0.575214    36A     -0.571613
      37A     -0.563175    38A     -0.548860    39A     -0.533432
      40A     -0.529877    41A     -0.513969    42A     -0.493807
      43A     -0.474018    44A     -0.435826    45A     -0.419356
      46A     -0.388181    47A     -0.367609    48A     -0.317745
      49A     -0.279791

  @DF-RHF Final Energy:  -570.47975325314928

   => Energetics <=

    Nuclear Repulsion Energy =            811.0179506848821802
    One-Electron Energy =               -2382.3787601312515108
    Two-Electron Energy =                1000.8810561932200471
    Total Energy =                       -570.4797532531492834
  Basis Set: (AUG-CC-PVTZ AUX)
    Blend: AUG-CC-PVTZ-RI
    Molecular point group: c1

    Geometry (in Angstrom), charge = 0, multiplicity = 1:

       Center              X                  Y                   Z               Mass
    ------------   -----------------  -----------------  -----------------  -----------------
         N            0.109727012826     2.510118542555    -0.390622184628    14.003074004430
         N           -1.871075987174     0.757103542555     0.623606815372    14.003074004430
         C            0.379560012826     0.101327542555    -0.005866184628    12.000000000000
         C            0.925669012826     1.397775542555    -0.165151184628    12.000000000000
         C            2.635909012826    -0.861709457445     0.118783815372    12.000000000000
         C            1.246939012826    -0.990329457445     0.159744815372    12.000000000000
         C           -1.078147987174    -0.144475457445    -0.003572184628    12.000000000000
         C            2.322855012826     1.522443542555    -0.227493184628    12.000000000000
         C            3.160284012826     0.422321542555    -0.075564184628    12.000000000000
         C            3.538117012826    -2.046218457445     0.347660815372    12.000000000000
         C           -1.611473987174    -1.284947457445    -0.627241184628    12.000000000000
         C           -2.981325987174    -1.523835457445    -0.564267184628    12.000000000000
         C           -3.193298987174     0.519687542555     0.662963815372    12.000000000000
         C           -3.793687987174    -0.606101457445     0.101194815372    12.000000000000
         H            0.813081012826    -1.974305457445     0.337149815372     1.007825032230
         H            2.832917412826     2.693867542555    -0.402332284628     1.007825032230
         H            4.239449012826     0.564502542555    -0.120278184628     1.007825032230
         H            3.858416012826    -2.110210457445     1.393607815372     1.007825032230
         H            3.028642012826    -2.981874457445     0.099174815372     1.007825032230
         H            4.439310012826    -1.978829457445    -0.269445184628     1.007825032230
         H           -0.954582987174    -1.960458457445    -1.167394184628     1.007825032230
         H            0.584501012826     3.388416542555    -0.207680184628     1.007825032230
         H           -0.771186987174     2.445238542555     0.113579815372     1.007825032230
         H           -3.409712987174    -2.402345457445    -1.041052184628     1.007825032230
         H           -3.791913987174     1.271255542555     1.175390815372     1.007825032230
         H           -4.868351987174    -0.747993457445     0.171818815372     1.007825032230

  Basis Set: AUG-CC-PVTZ
    Blend: AUG-CC-PVTZ
  Basis Set: (AUG-CC-PVTZ AUX)
    Blend: AUG-CC-PVTZ-JKFIT
	 Reference Energy          =    -570.4797532531492834 [Eh]
	 Singles Energy            =      -0.0000000000000000 [Eh]
	 Same-Spin Energy          =      -0.6413927169797091 [Eh]
	 Opposite-Spin Energy      =      -1.9799469408317247 [Eh]
	 Correlation Energy        =      -2.6213396578114336 [Eh]
	 Total Energy              =    -573.1010929109606877 [Eh]

	 ================> DF-SCS-MP2 Energies <==================
	-----------------------------------------------------------
	 SCS Same-Spin Scale       =       0.3333333333333333 [-]
	 SCS Opposite-Spin Scale   =       1.2000000000000000 [-]
	 SCS Same-Spin Energy      =      -0.2137975723265697 [Eh]
	 SCS Opposite-Spin Energy  =      -2.3759363289980695 [Eh]
	 SCS Correlation Energy    =      -2.5897339013246392 [Eh]
	 SCS Total Energy          =    -573.0694871544739044 [Eh]
	-----------------------------------------------------------

  Dipole Moment: [D]
     X:    -1.1579      Y:    -1.0923      Z:     0.0943     Total:     1.5946

*** Psi4 exiting successfully. Buy a developer a beer!
