                               Psi4 1.4a3.dev225

  ==> Input File <==

--------------------------------------------------------------------------
#psi4
#
memory 32 gb

molecule  {
0 1
  N        0.0801310     2.5312230    -0.3913130
  N       -1.9006720     0.7782080     0.6229160
  C        0.3499640     0.1224320    -0.0065570
  C        0.8960730     1.4188800    -0.1658420
  C        2.6063130    -0.8406050     0.1180930
  C        1.2173430    -0.9692250     0.1590540
  C       -1.1077440    -0.1233710    -0.0042630
  C        2.2932590     1.5435480    -0.2281840
  C        3.1306880     0.4434260    -0.0762550
  C        3.5085210    -2.0251140     0.3469700
  C       -1.6334783    -1.2476087    -0.6190543
  C       -3.0109220    -1.5027310    -0.5649580
  C       -3.2228950     0.5407920     0.6622730
  C       -3.8232840    -0.5849970     0.1005040
  H        0.7834850    -1.9532010     0.3364590
  H        2.7242150     2.5332940    -0.3759070
  H        4.2098530     0.5856070    -0.1209690
  H        3.8288200    -2.0891060     1.3929170
  H        2.9990460    -2.9607700     0.0984840
  H        4.4097140    -1.9577250    -0.2701360
  H       -0.9841790    -1.9393540    -1.1680850
  H        0.5549050     3.4095210    -0.2083710
  H       -0.8007830     2.4663430     0.1128890
  H       -3.4393090    -2.3812410    -1.0417430
  H       -3.8215100     1.2923600     1.1747000
  H       -4.8979480    -0.7268890     0.1711280
units angstrom
no_reorient  #important for SAPT in psi4, default
symmetry c1  #important for SAPT in psi4, default
}

set PROPERTIES_ORIGIN ["COM"]
properties('MP2/aug-cc-pvtz', properties = ['dipole'])
--------------------------------------------------------------------------

    Molecular point group: c1
  Charge       = 0
  Multiplicity = 1
  Basis Set: AUG-CC-PVTZ
    Blend: AUG-CC-PVTZ
  Basis Set: (AUG-CC-PVTZ AUX)
    Blend: AUG-CC-PVTZ-JKFIT

    Orbital Energies [Eh]
    ---------------------

    Doubly Occupied:

       1A    -15.567548     2A    -15.547406     3A    -11.285748
       4A    -11.280744     5A    -11.274830     6A    -11.264059
       7A    -11.242179     8A    -11.240495     9A    -11.232927
      10A    -11.232056    11A    -11.231745    12A    -11.226223
      13A    -11.222314    14A    -11.219216    15A     -1.261827
      16A     -1.210353    17A     -1.131337    18A     -1.086897
      19A     -1.064301    20A     -1.015786    21A     -0.992585
      22A     -0.915150    23A     -0.869544    24A     -0.864012
      25A     -0.814119    26A     -0.783779    27A     -0.708851
      28A     -0.689584    29A     -0.681036    30A     -0.659686
      31A     -0.650221    32A     -0.614131    33A     -0.600078
      34A     -0.588798    35A     -0.581602    36A     -0.574625
      37A     -0.570294    38A     -0.549006    39A     -0.531351
      40A     -0.527443    41A     -0.512662    42A     -0.492133
      43A     -0.485118    44A     -0.434789    45A     -0.419671
      46A     -0.386233    47A     -0.367731    48A     -0.316906
      49A     -0.278375

  @DF-RHF Final Energy:  -570.50123904491079

   => Energetics <=

    Nuclear Repulsion Energy =            812.3475674487327751
    One-Electron Energy =               -2385.1026058467123221
    Two-Electron Energy =                1002.2537993530688709
    Total Energy =                       -570.5012390449107897
  Basis Set: (AUG-CC-PVTZ AUX)
    Blend: AUG-CC-PVTZ-RI
    Molecular point group: c1

    Geometry (in Angstrom), charge = 0, multiplicity = 1:

       Center              X                  Y                   Z               Mass
    ------------   -----------------  -----------------  -----------------  -----------------
         N            0.109665225825     2.510054925169    -0.391349292988    14.003074004430
         N           -1.871137774175     0.757039925169     0.622879707012    14.003074004430
         C            0.379498225825     0.101263925169    -0.006593292988    12.000000000000
         C            0.925607225825     1.397711925169    -0.165878292988    12.000000000000
         C            2.635847225825    -0.861773074831     0.118056707012    12.000000000000
         C            1.246877225825    -0.990393074831     0.159017707012    12.000000000000
         C           -1.078209774175    -0.144539074831    -0.004299292988    12.000000000000
         C            2.322793225825     1.522379925169    -0.228220292988    12.000000000000
         C            3.160222225825     0.422257925169    -0.076291292988    12.000000000000
         C            3.538055225825    -2.046282074831     0.346933707012    12.000000000000
         C           -1.603944074175    -1.268776774831    -0.619090592988    12.000000000000
         C           -2.981387774175    -1.523899074831    -0.564994292988    12.000000000000
         C           -3.193360774175     0.519623925169     0.662236707012    12.000000000000
         C           -3.793749774175    -0.606165074831     0.100467707012    12.000000000000
         H            0.813019225825    -1.974369074831     0.336422707012     1.007825032230
         H            2.753749225825     2.512125925169    -0.375943292988     1.007825032230
         H            4.239387225825     0.564438925169    -0.121005292988     1.007825032230
         H            3.858354225825    -2.110274074831     1.392880707012     1.007825032230
         H            3.028580225825    -2.981938074831     0.098447707012     1.007825032230
         H            4.439248225825    -1.978893074831    -0.270172292988     1.007825032230
         H           -0.954644774175    -1.960522074831    -1.168121292988     1.007825032230
         H            0.584439225825     3.388352925169    -0.208407292988     1.007825032230
         H           -0.771248774175     2.445174925169     0.112852707012     1.007825032230
         H           -3.409774774175    -2.402409074831    -1.041779292988     1.007825032230
         H           -3.791975774175     1.271191925169     1.174663707012     1.007825032230
         H           -4.868413774175    -0.748057074831     0.171091707012     1.007825032230

  Basis Set: AUG-CC-PVTZ
    Blend: AUG-CC-PVTZ
  Basis Set: (AUG-CC-PVTZ AUX)
    Blend: AUG-CC-PVTZ-JKFIT
	 Reference Energy          =    -570.5012390449107897 [Eh]
	 Singles Energy            =      -0.0000000000000000 [Eh]
	 Same-Spin Energy          =      -0.6408797780979355 [Eh]
	 Opposite-Spin Energy      =      -1.9777468917400185 [Eh]
	 Correlation Energy        =      -2.6186266698379539 [Eh]
	 Total Energy              =    -573.1198657147486983 [Eh]

	 ================> DF-SCS-MP2 Energies <==================
	-----------------------------------------------------------
	 SCS Same-Spin Scale       =       0.3333333333333333 [-]
	 SCS Opposite-Spin Scale   =       1.2000000000000000 [-]
	 SCS Same-Spin Energy      =      -0.2136265926993118 [Eh]
	 SCS Opposite-Spin Energy  =      -2.3732962700880220 [Eh]
	 SCS Correlation Energy    =      -2.5869228627873340 [Eh]
	 SCS Total Energy          =    -573.0881619076981224 [Eh]
	-----------------------------------------------------------

  Dipole Moment: [D]
     X:    -1.1358      Y:    -0.9731      Z:     0.0784     Total:     1.4977

*** Psi4 exiting successfully. Buy a developer a beer!
