                               Psi4 1.4a3.dev225

  ==> Input File <==

--------------------------------------------------------------------------
#psi4
#
memory 32 gb

molecule  {
0 1
  N        0.0801310     2.5312230    -0.3913130
  N       -1.9006720     0.7782080     0.6229160
  C        0.3499640     0.1224320    -0.0065570
  C        0.8960730     1.4188800    -0.1658420
  C        2.6063130    -0.8406050     0.1180930
  C        1.2173430    -0.9692250     0.1590540
  C       -1.1077440    -0.1233710    -0.0042630
  C        2.2932590     1.5435480    -0.2281840
  C        3.1306880     0.4434260    -0.0762550
  C        3.5085210    -2.0251140     0.3469700
  C       -1.6410700    -1.2638430    -0.6279320
  C       -3.0109220    -1.5027310    -0.5649580
  C       -3.2228950     0.5407920     0.6622730
  C       -3.8232840    -0.5849970     0.1005040
  H        0.7834850    -1.9532010     0.3364590
  H        2.7242150     2.5332940    -0.3759070
  H        4.2098530     0.5856070    -0.1209690
  H        3.8363394    -2.0715781     1.3915119
  H        2.9990460    -2.9607700     0.0984840
  H        4.4097140    -1.9577250    -0.2701360
  H       -0.9841790    -1.9393540    -1.1680850
  H        0.5549050     3.4095210    -0.2083710
  H       -0.8007830     2.4663430     0.1128890
  H       -3.4393090    -2.3812410    -1.0417430
  H       -3.8215100     1.2923600     1.1747000
  H       -4.8979480    -0.7268890     0.1711280
units angstrom
no_reorient  #important for SAPT in psi4, default
symmetry c1  #important for SAPT in psi4, default
}

set PROPERTIES_ORIGIN ["COM"]
properties('MP2/aug-cc-pvtz', properties = ['dipole'])
--------------------------------------------------------------------------

    Molecular point group: c1
  Charge       = 0
  Multiplicity = 1
  Basis Set: AUG-CC-PVTZ
    Blend: AUG-CC-PVTZ
  Basis Set: (AUG-CC-PVTZ AUX)
    Blend: AUG-CC-PVTZ-JKFIT

    Orbital Energies [Eh]
    ---------------------

    Doubly Occupied:

       1A    -15.567511     2A    -15.547665     3A    -11.288650
       4A    -11.280209     5A    -11.275303     6A    -11.262385
       7A    -11.241595     8A    -11.240815     9A    -11.233408
      10A    -11.232491    11A    -11.232230    12A    -11.226567
      13A    -11.222716    14A    -11.219564    15A     -1.260981
      16A     -1.210594    17A     -1.131658    18A     -1.087819
      19A     -1.063011    20A     -1.016164    21A     -0.992350
      22A     -0.915496    23A     -0.870512    24A     -0.862091
      25A     -0.814678    26A     -0.783329    27A     -0.708864
      28A     -0.689725    29A     -0.681363    30A     -0.660435
      31A     -0.650121    32A     -0.613411    33A     -0.600667
      34A     -0.588982    35A     -0.581952    36A     -0.573577
      37A     -0.570437    38A     -0.548410    39A     -0.532249
      40A     -0.529530    41A     -0.512982    42A     -0.492656
      43A     -0.485705    44A     -0.435040    45A     -0.418797
      46A     -0.387537    47A     -0.366571    48A     -0.316462
      49A     -0.278438

  @DF-RHF Final Energy:  -570.50169292881310

   => Energetics <=

    Nuclear Repulsion Energy =            812.0266432923211823
    One-Electron Energy =               -2384.4492577525820707
    Two-Electron Energy =                1001.9209215314476751
    Total Energy =                       -570.5016929288130996
  Basis Set: (AUG-CC-PVTZ AUX)
    Blend: AUG-CC-PVTZ-RI
    Molecular point group: c1

    Geometry (in Angstrom), charge = 0, multiplicity = 1:

       Center              X                  Y                   Z               Mass
    ------------   -----------------  -----------------  -----------------  -----------------
         N            0.110118903927     2.511017154920    -0.390762935212    14.003074004430
         N           -1.870684096073     0.758002154920     0.623466064788    14.003074004430
         C            0.379951903927     0.102226154920    -0.006006935212    12.000000000000
         C            0.926060903927     1.398674154920    -0.165291935212    12.000000000000
         C            2.636300903927    -0.860810845080     0.118643064788    12.000000000000
         C            1.247330903927    -0.989430845080     0.159604064788    12.000000000000
         C           -1.077756096073    -0.143576845080    -0.003712935212    12.000000000000
         C            2.323246903927     1.523342154920    -0.227633935212    12.000000000000
         C            3.160675903927     0.423220154920    -0.075704935212    12.000000000000
         C            3.538508903927    -2.045319845080     0.347520064788    12.000000000000
         C           -1.611082096073    -1.284048845080    -0.627381935212    12.000000000000
         C           -2.980934096073    -1.522936845080    -0.564407935212    12.000000000000
         C           -3.192907096073     0.520586154920     0.662823064788    12.000000000000
         C           -3.793296096073    -0.605202845080     0.101054064788    12.000000000000
         H            0.813472903927    -1.973406845080     0.337009064788     1.007825032230
         H            2.754202903927     2.513088154920    -0.375356935212     1.007825032230
         H            4.239840903927     0.565401154920    -0.120418935212     1.007825032230
         H            3.866327303927    -2.091783945080     1.392061964788     1.007825032230
         H            3.029033903927    -2.980975845080     0.099034064788     1.007825032230
         H            4.439701903927    -1.977930845080    -0.269585935212     1.007825032230
         H           -0.954191096073    -1.959559845080    -1.167534935212     1.007825032230
         H            0.584892903927     3.389315154920    -0.207820935212     1.007825032230
         H           -0.770795096073     2.446137154920     0.113439064788     1.007825032230
         H           -3.409321096073    -2.401446845080    -1.041192935212     1.007825032230
         H           -3.791522096073     1.272154154920     1.175250064788     1.007825032230
         H           -4.867960096073    -0.747094845080     0.171678064788     1.007825032230

  Basis Set: AUG-CC-PVTZ
    Blend: AUG-CC-PVTZ
  Basis Set: (AUG-CC-PVTZ AUX)
    Blend: AUG-CC-PVTZ-JKFIT
	 Reference Energy          =    -570.5016929288130996 [Eh]
	 Singles Energy            =      -0.0000000000000000 [Eh]
	 Same-Spin Energy          =      -0.6408439650530375 [Eh]
	 Opposite-Spin Energy      =      -1.9777089280944822 [Eh]
	 Correlation Energy        =      -2.6185528931475197 [Eh]
	 Total Energy              =    -573.1202458219605660 [Eh]

	 ================> DF-SCS-MP2 Energies <==================
	-----------------------------------------------------------
	 SCS Same-Spin Scale       =       0.3333333333333333 [-]
	 SCS Opposite-Spin Scale   =       1.2000000000000000 [-]
	 SCS Same-Spin Energy      =      -0.2136146550176792 [Eh]
	 SCS Opposite-Spin Energy  =      -2.3732507137133787 [Eh]
	 SCS Correlation Energy    =      -2.5868653687310577 [Eh]
	 SCS Total Energy          =    -573.0885582975441821 [Eh]
	-----------------------------------------------------------

  Dipole Moment: [D]
     X:    -1.0898      Y:    -0.9621      Z:     0.0763     Total:     1.4557

*** Psi4 exiting successfully. Buy a developer a beer!
