                               Psi4 1.4a3.dev225

  ==> Input File <==

--------------------------------------------------------------------------
#psi4
#
memory 32 gb

molecule  {
0 1
  N        0.0801310     2.5312230    -0.3913130
  N       -1.9006720     0.7782080     0.6229160
  C        0.3499640     0.1224320    -0.0065570
  C        0.8960730     1.4188800    -0.1658420
  C        2.6063130    -0.8406050     0.1180930
  C        1.2173430    -0.9692250     0.1590540
  C       -1.1077440    -0.1233710    -0.0042630
  C        2.2932590     1.5435480    -0.2281840
  C        3.1306880     0.4434260    -0.0762550
  C        3.5085210    -2.0251140     0.3469700
  C       -1.6410700    -1.2638430    -0.6279320
  C       -3.0109220    -1.5027310    -0.5649580
  C       -3.2228950     0.5407920     0.6622730
  C       -3.8232840    -0.5849970     0.1005040
  H        0.7834850    -1.9532010     0.3364590
  H        2.7242150     2.5332940    -0.3759070
  H        4.2098530     0.5856070    -0.1209690
  H        3.8288200    -2.0891060     1.3929170
  H        2.9990460    -2.9607700     0.0984840
  H        4.5744196    -1.9454087    -0.3829207
  H       -0.9841790    -1.9393540    -1.1680850
  H        0.5549050     3.4095210    -0.2083710
  H       -0.8007830     2.4663430     0.1128890
  H       -3.4393090    -2.3812410    -1.0417430
  H       -3.8215100     1.2923600     1.1747000
  H       -4.8979480    -0.7268890     0.1711280
units angstrom
no_reorient  #important for SAPT in psi4, default
symmetry c1  #important for SAPT in psi4, default
}

set PROPERTIES_ORIGIN ["COM"]
properties('MP2/aug-cc-pvtz', properties = ['dipole'])
--------------------------------------------------------------------------

    Molecular point group: c1
  Charge       = 0
  Multiplicity = 1
  Basis Set: AUG-CC-PVTZ
    Blend: AUG-CC-PVTZ
  Basis Set: (AUG-CC-PVTZ AUX)
    Blend: AUG-CC-PVTZ-JKFIT

    Orbital Energies [Eh]
    ---------------------

    Doubly Occupied:

       1A    -15.568118     2A    -15.548580     3A    -11.289336
       4A    -11.280757     5A    -11.276506     6A    -11.262925
       7A    -11.242527     8A    -11.242126     9A    -11.241411
      10A    -11.235134    11A    -11.233493    12A    -11.233304
      13A    -11.228659    14A    -11.223411    15A     -1.261612
      16A     -1.211503    17A     -1.132470    18A     -1.088378
      19A     -1.063306    20A     -1.014222    21A     -0.992683
      22A     -0.907209    23A     -0.871249    24A     -0.862417
      25A     -0.815620    26A     -0.782202    27A     -0.708660
      28A     -0.690506    29A     -0.682030    30A     -0.660952
      31A     -0.650039    32A     -0.614651    33A     -0.599909
      34A     -0.589494    35A     -0.582677    36A     -0.573462
      37A     -0.564473    38A     -0.549060    39A     -0.532629
      40A     -0.518411    41A     -0.502680    42A     -0.493023
      43A     -0.482805    44A     -0.434273    45A     -0.419424
      46A     -0.388097    47A     -0.367201    48A     -0.317407
      49A     -0.279187

  @DF-RHF Final Energy:  -570.48176136551933

   => Energetics <=

    Nuclear Repulsion Energy =            811.1935908900619552
    One-Electron Energy =               -2382.7302837045567685
    Two-Electron Energy =                1001.0549314489755943
    Total Energy =                       -570.4817613655193327
  Basis Set: (AUG-CC-PVTZ AUX)
    Blend: AUG-CC-PVTZ-RI
    Molecular point group: c1

    Geometry (in Angstrom), charge = 0, multiplicity = 1:

       Center              X                  Y                   Z               Mass
    ------------   -----------------  -----------------  -----------------  -----------------
         N            0.109258414272     2.511045684955    -0.390153206155    14.003074004430
         N           -1.871544585728     0.758030684955     0.624075793845    14.003074004430
         C            0.379091414272     0.102254684955    -0.005397206155    12.000000000000
         C            0.925200414272     1.398702684955    -0.164682206155    12.000000000000
         C            2.635440414272    -0.860782315045     0.119252793845    12.000000000000
         C            1.246470414272    -0.989402315045     0.160213793845    12.000000000000
         C           -1.078616585728    -0.143548315045    -0.003103206155    12.000000000000
         C            2.322386414272     1.523370684955    -0.227024206155    12.000000000000
         C            3.159815414272     0.423248684955    -0.075095206155    12.000000000000
         C            3.537648414272    -2.045291315045     0.348129793845    12.000000000000
         C           -1.611942585728    -1.284020315045    -0.626772206155    12.000000000000
         C           -2.981794585728    -1.522908315045    -0.563798206155    12.000000000000
         C           -3.193767585728     0.520614684955     0.663432793845    12.000000000000
         C           -3.794156585728    -0.605174315045     0.101663793845    12.000000000000
         H            0.812612414272    -1.973378315045     0.337618793845     1.007825032230
         H            2.753342414272     2.513116684955    -0.374747206155     1.007825032230
         H            4.238980414272     0.565429684955    -0.119809206155     1.007825032230
         H            3.857947414272    -2.109283315045     1.394076793845     1.007825032230
         H            3.028173414272    -2.980947315045     0.099643793845     1.007825032230
         H            4.603547014272    -1.965586015045    -0.381760906155     1.007825032230
         H           -0.955051585728    -1.959531315045    -1.166925206155     1.007825032230
         H            0.584032414272     3.389343684955    -0.207211206155     1.007825032230
         H           -0.771655585728     2.446165684955     0.114048793845     1.007825032230
         H           -3.410181585728    -2.401418315045    -1.040583206155     1.007825032230
         H           -3.792382585728     1.272182684955     1.175859793845     1.007825032230
         H           -4.868820585728    -0.747066315045     0.172287793845     1.007825032230

  Basis Set: AUG-CC-PVTZ
    Blend: AUG-CC-PVTZ
  Basis Set: (AUG-CC-PVTZ AUX)
    Blend: AUG-CC-PVTZ-JKFIT
	 Reference Energy          =    -570.4817613655193327 [Eh]
	 Singles Energy            =      -0.0000000000000000 [Eh]
	 Same-Spin Energy          =      -0.6408249316083920 [Eh]
	 Opposite-Spin Energy      =      -1.9792789843952170 [Eh]
	 Correlation Energy        =      -2.6201039160036093 [Eh]
	 Total Energy              =    -573.1018652815229188 [Eh]

	 ================> DF-SCS-MP2 Energies <==================
	-----------------------------------------------------------
	 SCS Same-Spin Scale       =       0.3333333333333333 [-]
	 SCS Opposite-Spin Scale   =       1.2000000000000000 [-]
	 SCS Same-Spin Energy      =      -0.2136083105361307 [Eh]
	 SCS Opposite-Spin Energy  =      -2.3751347812742605 [Eh]
	 SCS Correlation Energy    =      -2.5887430918103913 [Eh]
	 SCS Total Energy          =    -573.0705044573297755 [Eh]
	-----------------------------------------------------------

  Dipole Moment: [D]
     X:    -1.2602      Y:    -0.9029      Z:     0.1278     Total:     1.5555

*** Psi4 exiting successfully. Buy a developer a beer!
