                               Psi4 1.4a3.dev225

  ==> Input File <==

--------------------------------------------------------------------------
#psi4
#
memory 32 gb

molecule  {
0 1
  N        0.0801310     2.5312230    -0.3913130
  N       -1.9006720     0.7782080     0.6229160
  C        0.3499640     0.1224320    -0.0065570
  C        0.8960730     1.4188800    -0.1658420
  C        2.6063130    -0.8406050     0.1180930
  C        1.2173430    -0.9692250     0.1590540
  C       -1.1077440    -0.1233710    -0.0042630
  C        2.2932590     1.5435480    -0.2281840
  C        3.1306880     0.4434260    -0.0762550
  C        3.5085210    -2.0251140     0.3469700
  C       -1.6410700    -1.2638430    -0.6279320
  C       -3.0109220    -1.5027310    -0.5649580
  C       -3.2228950     0.5407920     0.6622730
  C       -3.8232840    -0.5849970     0.1005040
  H        0.7834850    -1.9532010     0.3364590
  H        2.7242150     2.5332940    -0.3759070
  H        4.0117336     0.5595046    -0.1127601
  H        3.8288200    -2.0891060     1.3929170
  H        2.9990460    -2.9607700     0.0984840
  H        4.4097140    -1.9577250    -0.2701360
  H       -0.9841790    -1.9393540    -1.1680850
  H        0.5549050     3.4095210    -0.2083710
  H       -0.8007830     2.4663430     0.1128890
  H       -3.4393090    -2.3812410    -1.0417430
  H       -3.8215100     1.2923600     1.1747000
  H       -4.8979480    -0.7268890     0.1711280
units angstrom
no_reorient  #important for SAPT in psi4, default
symmetry c1  #important for SAPT in psi4, default
}

set PROPERTIES_ORIGIN ["COM"]
properties('MP2/aug-cc-pvtz', properties = ['dipole'])
--------------------------------------------------------------------------

    Molecular point group: c1
  Charge       = 0
  Multiplicity = 1
  Basis Set: AUG-CC-PVTZ
    Blend: AUG-CC-PVTZ
  Basis Set: (AUG-CC-PVTZ AUX)
    Blend: AUG-CC-PVTZ-JKFIT

    Orbital Energies [Eh]
    ---------------------

    Doubly Occupied:

       1A    -15.567232     2A    -15.547018     3A    -11.288330
       4A    -11.279950     5A    -11.274246     6A    -11.262128
       7A    -11.241356     8A    -11.240537     9A    -11.232678
      10A    -11.231368    11A    -11.225275    12A    -11.221497
      13A    -11.219669    14A    -11.208105    15A     -1.260673
      16A     -1.210016    17A     -1.133190    18A     -1.087558
      19A     -1.065254    20A     -1.015959    21A     -0.997382
      22A     -0.917439    23A     -0.879552    24A     -0.861904
      25A     -0.817952    26A     -0.788125    27A     -0.708881
      28A     -0.702601    29A     -0.687790    30A     -0.660182
      31A     -0.653602    32A     -0.613387    33A     -0.602198
      34A     -0.596936    35A     -0.581886    36A     -0.574745
      37A     -0.570609    38A     -0.547945    39A     -0.537618
      40A     -0.529211    41A     -0.512450    42A     -0.494407
      43A     -0.487471    44A     -0.434442    45A     -0.418527
      46A     -0.387244    47A     -0.366176    48A     -0.315834
      49A     -0.277789

  @DF-RHF Final Energy:  -570.46765845500124

   => Energetics <=

    Nuclear Repulsion Energy =            813.2479569585176478
    One-Electron Energy =               -2386.7585904036895954
    Two-Electron Energy =                1003.0429749901708192
    Total Energy =                       -570.4676584550012421
  Basis Set: (AUG-CC-PVTZ AUX)
    Blend: AUG-CC-PVTZ-RI
    Molecular point group: c1

    Geometry (in Angstrom), charge = 0, multiplicity = 1:

       Center              X                  Y                   Z               Mass
    ------------   -----------------  -----------------  -----------------  -----------------
         N            0.111244639265     2.511256001725    -0.390815565453    14.003074004430
         N           -1.869558360735     0.758241001725     0.623413434547    14.003074004430
         C            0.381077639265     0.102465001725    -0.006059565453    12.000000000000
         C            0.927186639265     1.398913001725    -0.165344565453    12.000000000000
         C            2.637426639265    -0.860571998275     0.118590434547    12.000000000000
         C            1.248456639265    -0.989191998275     0.159551434547    12.000000000000
         C           -1.076630360735    -0.143337998275    -0.003765565453    12.000000000000
         C            2.324372639265     1.523581001725    -0.227686565453    12.000000000000
         C            3.161801639265     0.423459001725    -0.075757565453    12.000000000000
         C            3.539634639265    -2.045080998275     0.347467434547    12.000000000000
         C           -1.609956360735    -1.283809998275    -0.627434565453    12.000000000000
         C           -2.979808360735    -1.522697998275    -0.564460565453    12.000000000000
         C           -3.191781360735     0.520825001725     0.662770434547    12.000000000000
         C           -3.792170360735    -0.604963998275     0.101001434547    12.000000000000
         H            0.814598639265    -1.973167998275     0.336956434547     1.007825032230
         H            2.755328639265     2.513327001725    -0.375409565453     1.007825032230
         H            4.042847239265     0.539537601725    -0.112262665453     1.007825032230
         H            3.859933639265    -2.109072998275     1.393414434547     1.007825032230
         H            3.030159639265    -2.980736998275     0.098981434547     1.007825032230
         H            4.440827639265    -1.977691998275    -0.269638565453     1.007825032230
         H           -0.953065360735    -1.959320998275    -1.167587565453     1.007825032230
         H            0.586018639265     3.389554001725    -0.207873565453     1.007825032230
         H           -0.769669360735     2.446376001725     0.113386434547     1.007825032230
         H           -3.408195360735    -2.401207998275    -1.041245565453     1.007825032230
         H           -3.790396360735     1.272393001725     1.175197434547     1.007825032230
         H           -4.866834360735    -0.746855998275     0.171625434547     1.007825032230

  Basis Set: AUG-CC-PVTZ
    Blend: AUG-CC-PVTZ
  Basis Set: (AUG-CC-PVTZ AUX)
    Blend: AUG-CC-PVTZ-JKFIT
	 Reference Energy          =    -570.4676584550012421 [Eh]
	 Singles Energy            =      -0.0000000000000000 [Eh]
	 Same-Spin Energy          =      -0.6406066795871488 [Eh]
	 Opposite-Spin Energy      =      -1.9770728601052661 [Eh]
	 Correlation Energy        =      -2.6176795396924151 [Eh]
	 Total Energy              =    -573.0853379946936457 [Eh]

	 ================> DF-SCS-MP2 Energies <==================
	-----------------------------------------------------------
	 SCS Same-Spin Scale       =       0.3333333333333333 [-]
	 SCS Opposite-Spin Scale   =       1.2000000000000000 [-]
	 SCS Same-Spin Energy      =      -0.2135355598623829 [Eh]
	 SCS Opposite-Spin Energy  =      -2.3724874321263192 [Eh]
	 SCS Correlation Energy    =      -2.5860229919887021 [Eh]
	 SCS Total Energy          =    -573.0536814469899127 [Eh]
	-----------------------------------------------------------

  Dipole Moment: [D]
     X:    -1.0279      Y:    -0.9626      Z:     0.0761     Total:     1.4103

*** Psi4 exiting successfully. Buy a developer a beer!
