                               Psi4 1.4a3.dev225

  ==> Input File <==

--------------------------------------------------------------------------
#psi4
#
memory 32 gb

molecule  {
0 1
  N        0.0801310     2.5312230    -0.3913130
  N       -1.9006720     0.7782080     0.6229160
  C        0.3499640     0.1224320    -0.0065570
  C        0.8960730     1.4188800    -0.1658420
  C        2.6063130    -0.8406050     0.1180930
  C        1.2173430    -0.9692250     0.1590540
  C       -1.1077440    -0.1233710    -0.0042630
  C        2.2932590     1.5435480    -0.2281840
  C        3.1306880     0.4434260    -0.0762550
  C        3.5085210    -2.0251140     0.3469700
  C       -1.6410700    -1.2638430    -0.6279320
  C       -3.0109220    -1.5027310    -0.5649580
  C       -3.2228950     0.5407920     0.6622730
  C       -3.8232840    -0.5849970     0.1005040
  H        0.7834850    -1.9532010     0.3364590
  H        2.7242150     2.5332940    -0.3759070
  H        4.2098530     0.5856070    -0.1209690
  H        3.8212031    -2.1066144     1.3940035
  H        2.9990460    -2.9607700     0.0984840
  H        4.4097140    -1.9577250    -0.2701360
  H       -0.9841790    -1.9393540    -1.1680850
  H        0.5549050     3.4095210    -0.2083710
  H       -0.8007830     2.4663430     0.1128890
  H       -3.4393090    -2.3812410    -1.0417430
  H       -3.8215100     1.2923600     1.1747000
  H       -4.8979480    -0.7268890     0.1711280
units angstrom
no_reorient  #important for SAPT in psi4, default
symmetry c1  #important for SAPT in psi4, default
}

set PROPERTIES_ORIGIN ["COM"]
properties('MP2/aug-cc-pvtz', properties = ['dipole'])
--------------------------------------------------------------------------

    Molecular point group: c1
  Charge       = 0
  Multiplicity = 1
  Basis Set: AUG-CC-PVTZ
    Blend: AUG-CC-PVTZ
  Basis Set: (AUG-CC-PVTZ AUX)
    Blend: AUG-CC-PVTZ-JKFIT

    Orbital Energies [Eh]
    ---------------------

    Doubly Occupied:

       1A    -15.567555     2A    -15.547767     3A    -11.288698
       4A    -11.280247     5A    -11.275454     6A    -11.262419
       7A    -11.241631     8A    -11.240852     9A    -11.233530
      10A    -11.232608    11A    -11.232338    12A    -11.226693
      13A    -11.222705    14A    -11.219444    15A     -1.261028
      16A     -1.210684    17A     -1.131685    18A     -1.087856
      19A     -1.063025    20A     -1.016090    21A     -0.992383
      22A     -0.915582    23A     -0.870568    24A     -0.862135
      25A     -0.814762    26A     -0.783496    27A     -0.708956
      28A     -0.689841    29A     -0.681432    30A     -0.660490
      31A     -0.650142    32A     -0.613747    33A     -0.600499
      34A     -0.589060    35A     -0.582048    36A     -0.573866
      37A     -0.569663    38A     -0.548063    39A     -0.532160
      40A     -0.529267    41A     -0.512978    42A     -0.493165
      43A     -0.485721    44A     -0.435087    45A     -0.418848
      46A     -0.387584    47A     -0.366631    48A     -0.316491
      49A     -0.278610

  @DF-RHF Final Energy:  -570.50169981340764

   => Energetics <=

    Nuclear Repulsion Energy =            812.0003732448561777
    One-Electron Energy =               -2384.3929796706947855
    Two-Electron Energy =                1001.8909066124308538
    Total Energy =                       -570.5016998134076402
  Basis Set: (AUG-CC-PVTZ AUX)
    Blend: AUG-CC-PVTZ-RI
    Molecular point group: c1

    Geometry (in Angstrom), charge = 0, multiplicity = 1:

       Center              X                  Y                   Z               Mass
    ------------   -----------------  -----------------  -----------------  -----------------
         N            0.110201765079     2.511208955305    -0.390776575061    14.003074004430
         N           -1.870601234921     0.758193955305     0.623452424939    14.003074004430
         C            0.380034765079     0.102417955305    -0.006020575061    12.000000000000
         C            0.926143765079     1.398865955305    -0.165305575061    12.000000000000
         C            2.636383765079    -0.860619044695     0.118629424939    12.000000000000
         C            1.247413765079    -0.989239044695     0.159590424939    12.000000000000
         C           -1.077673234921    -0.143385044695    -0.003726575061    12.000000000000
         C            2.323329765079     1.523533955305    -0.227647575061    12.000000000000
         C            3.160758765079     0.423411955305    -0.075718575061    12.000000000000
         C            3.538591765079    -2.045128044695     0.347506424939    12.000000000000
         C           -1.610999234921    -1.283857044695    -0.627395575061    12.000000000000
         C           -2.980851234921    -1.522745044695    -0.564421575061    12.000000000000
         C           -3.192824234921     0.520777955305     0.662809424939    12.000000000000
         C           -3.793213234921    -0.605011044695     0.101040424939    12.000000000000
         H            0.813555765079    -1.973215044695     0.336995424939     1.007825032230
         H            2.754285765079     2.513279955305    -0.375370575061     1.007825032230
         H            4.239923765079     0.565592955305    -0.120432575061     1.007825032230
         H            3.851273865079    -2.126628444695     1.394539924939     1.007825032230
         H            3.029116765079    -2.980784044695     0.099020424939     1.007825032230
         H            4.439784765079    -1.977739044695    -0.269599575061     1.007825032230
         H           -0.954108234921    -1.959368044695    -1.167548575061     1.007825032230
         H            0.584975765079     3.389506955305    -0.207834575061     1.007825032230
         H           -0.770712234921     2.446328955305     0.113425424939     1.007825032230
         H           -3.409238234921    -2.401255044695    -1.041206575061     1.007825032230
         H           -3.791439234921     1.272345955305     1.175236424939     1.007825032230
         H           -4.867877234921    -0.746903044695     0.171664424939     1.007825032230

  Basis Set: AUG-CC-PVTZ
    Blend: AUG-CC-PVTZ
  Basis Set: (AUG-CC-PVTZ AUX)
    Blend: AUG-CC-PVTZ-JKFIT
	 Reference Energy          =    -570.5016998134076402 [Eh]
	 Singles Energy            =      -0.0000000000000000 [Eh]
	 Same-Spin Energy          =      -0.6408299511680288 [Eh]
	 Opposite-Spin Energy      =      -1.9776735858750563 [Eh]
	 Correlation Energy        =      -2.6185035370430851 [Eh]
	 Total Energy              =    -573.1202033504507654 [Eh]

	 ================> DF-SCS-MP2 Energies <==================
	-----------------------------------------------------------
	 SCS Same-Spin Scale       =       0.3333333333333333 [-]
	 SCS Opposite-Spin Scale   =       1.2000000000000000 [-]
	 SCS Same-Spin Energy      =      -0.2136099837226763 [Eh]
	 SCS Opposite-Spin Energy  =      -2.3732083030500672 [Eh]
	 SCS Correlation Energy    =      -2.5868182867727434 [Eh]
	 SCS Total Energy          =    -573.0885181001804085 [Eh]
	-----------------------------------------------------------

  Dipole Moment: [D]
     X:    -1.1043      Y:    -0.9654      Z:     0.0786     Total:     1.4689

*** Psi4 exiting successfully. Buy a developer a beer!
