                               Psi4 1.4a3.dev225

  ==> Input File <==

--------------------------------------------------------------------------
#psi4
#
memory 32 gb

molecule  {
0 1
  N        0.0801310     2.5312230    -0.3913130
  N       -1.9006720     0.7782080     0.6229160
  C        0.3499640     0.1224320    -0.0065570
  C        0.8960730     1.4188800    -0.1658420
  C        2.6063130    -0.8406050     0.1180930
  C        1.2173430    -0.9692250     0.1590540
  C       -1.1077440    -0.1233710    -0.0042630
  C        2.0942469     1.5257906    -0.2193041
  C        3.1306880     0.4434260    -0.0762550
  C        3.5085210    -2.0251140     0.3469700
  C       -1.6410700    -1.2638430    -0.6279320
  C       -3.0109220    -1.5027310    -0.5649580
  C       -3.2228950     0.5407920     0.6622730
  C       -3.8232840    -0.5849970     0.1005040
  H        0.7834850    -1.9532010     0.3364590
  H        2.7242150     2.5332940    -0.3759070
  H        4.2098530     0.5856070    -0.1209690
  H        3.8288200    -2.0891060     1.3929170
  H        2.9990460    -2.9607700     0.0984840
  H        4.4097140    -1.9577250    -0.2701360
  H       -0.9841790    -1.9393540    -1.1680850
  H        0.5549050     3.4095210    -0.2083710
  H       -0.8007830     2.4663430     0.1128890
  H       -3.4393090    -2.3812410    -1.0417430
  H       -3.8215100     1.2923600     1.1747000
  H       -4.8979480    -0.7268890     0.1711280
units angstrom
no_reorient  #important for SAPT in psi4, default
symmetry c1  #important for SAPT in psi4, default
}

set PROPERTIES_ORIGIN ["COM"]
properties('MP2/aug-cc-pvtz', properties = ['dipole'])
--------------------------------------------------------------------------

    Molecular point group: c1
  Charge       = 0
  Multiplicity = 1
  Basis Set: AUG-CC-PVTZ
    Blend: AUG-CC-PVTZ
  Basis Set: (AUG-CC-PVTZ AUX)
    Blend: AUG-CC-PVTZ-JKFIT

    Orbital Energies [Eh]
    ---------------------

    Doubly Occupied:

       1A    -15.568885     2A    -15.535624     3A    -11.289915
       4A    -11.281040     5A    -11.263274     6A    -11.243139
       7A    -11.242475     8A    -11.242190     9A    -11.241439
      10A    -11.241099    11A    -11.235162    12A    -11.232079
      13A    -11.221827    14A    -11.213585    15A     -1.262718
      16A     -1.219377    17A     -1.131494    18A     -1.089014
      19A     -1.062086    20A     -1.034045    21A     -0.985870
      22A     -0.925678    23A     -0.879384    24A     -0.862362
      25A     -0.815410    26A     -0.773586    27A     -0.710893
      28A     -0.688165    29A     -0.680260    30A     -0.660216
      31A     -0.650222    32A     -0.609756    33A     -0.604250
      34A     -0.591033    35A     -0.581722    36A     -0.573989
      37A     -0.560791    38A     -0.551119    39A     -0.537660
      40A     -0.531761    41A     -0.523227    42A     -0.500526
      43A     -0.455032    44A     -0.430852    45A     -0.418906
      46A     -0.387736    47A     -0.363934    48A     -0.318954
      49A     -0.291437

  @DF-RHF Final Energy:  -570.44019707147379

   => Energetics <=

    Nuclear Repulsion Energy =            815.3708976768227785
    One-Electron Energy =               -2390.9917878751180069
    Two-Electron Energy =                1005.1806931268214385
    Total Energy =                       -570.4401970714737899
  Basis Set: (AUG-CC-PVTZ AUX)
    Blend: AUG-CC-PVTZ-RI
    Molecular point group: c1

    Geometry (in Angstrom), charge = 0, multiplicity = 1:

       Center              X                  Y                   Z               Mass
    ------------   -----------------  -----------------  -----------------  -----------------
         N            0.123132064219     2.512270570431    -0.391349436388    14.003074004430
         N           -1.857670935781     0.759255570431     0.622879563612    14.003074004430
         C            0.392965064219     0.103479570431    -0.006593436388    12.000000000000
         C            0.939074064219     1.399927570431    -0.165878436388    12.000000000000
         C            2.649314064219    -0.859557429569     0.118056563612    12.000000000000
         C            1.260344064219    -0.988177429569     0.159017563612    12.000000000000
         C           -1.064742935781    -0.142323429569    -0.004299436388    12.000000000000
         C            2.137247964219     1.506838170431    -0.219340536388    12.000000000000
         C            3.173689064219     0.424473570431    -0.076291436388    12.000000000000
         C            3.551522064219    -2.044066429569     0.346933563612    12.000000000000
         C           -1.598068935781    -1.282795429569    -0.627968436388    12.000000000000
         C           -2.967920935781    -1.521683429569    -0.564994436388    12.000000000000
         C           -3.179893935781     0.521839570431     0.662236563612    12.000000000000
         C           -3.780282935781    -0.603949429569     0.100467563612    12.000000000000
         H            0.826486064219    -1.972153429569     0.336422563612     1.007825032230
         H            2.767216064219     2.514341570431    -0.375943436388     1.007825032230
         H            4.252854064219     0.566654570431    -0.121005436388     1.007825032230
         H            3.871821064219    -2.108058429569     1.392880563612     1.007825032230
         H            3.042047064219    -2.979722429569     0.098447563612     1.007825032230
         H            4.452715064219    -1.976677429569    -0.270172436388     1.007825032230
         H           -0.941177935781    -1.958306429569    -1.168121436388     1.007825032230
         H            0.597906064219     3.390568570431    -0.208407436388     1.007825032230
         H           -0.757781935781     2.447390570431     0.112852563612     1.007825032230
         H           -3.396307935781    -2.400193429569    -1.041779436388     1.007825032230
         H           -3.778508935781     1.273407570431     1.174663563612     1.007825032230
         H           -4.854946935781    -0.745841429569     0.171091563612     1.007825032230

  Basis Set: AUG-CC-PVTZ
    Blend: AUG-CC-PVTZ
  Basis Set: (AUG-CC-PVTZ AUX)
    Blend: AUG-CC-PVTZ-JKFIT
	 Reference Energy          =    -570.4401970714737899 [Eh]
	 Singles Energy            =      -0.0000000000000000 [Eh]
	 Same-Spin Energy          =      -0.6406819555985556 [Eh]
	 Opposite-Spin Energy      =      -1.9795675992840815 [Eh]
	 Correlation Energy        =      -2.6202495548826370 [Eh]
	 Total Energy              =    -573.0604466263564518 [Eh]

	 ================> DF-SCS-MP2 Energies <==================
	-----------------------------------------------------------
	 SCS Same-Spin Scale       =       0.3333333333333333 [-]
	 SCS Opposite-Spin Scale   =       1.2000000000000000 [-]
	 SCS Same-Spin Energy      =      -0.2135606518661852 [Eh]
	 SCS Opposite-Spin Energy  =      -2.3754811191408978 [Eh]
	 SCS Correlation Energy    =      -2.5890417710070830 [Eh]
	 SCS Total Energy          =    -573.0292388424808223 [Eh]
	-----------------------------------------------------------

  Dipole Moment: [D]
     X:    -0.9599      Y:    -1.4243      Z:     0.1696     Total:     1.7260

*** Psi4 exiting successfully. Buy a developer a beer!
