                               Psi4 1.4a3.dev225

  ==> Input File <==

--------------------------------------------------------------------------
#psi4
#
memory 32 gb

molecule  {
0 1
  N        0.0801310     2.5312230    -0.3913130
  N       -1.9006720     0.7782080     0.6229160
  C        0.3499640     0.1224320    -0.0065570
  C        0.8960730     1.4188800    -0.1658420
  C        2.6063130    -0.8406050     0.1180930
  C        1.2173430    -0.9692250     0.1590540
  C       -1.1077440    -0.1233710    -0.0042630
  C        2.2932590     1.5435480    -0.2281840
  C        3.1306880     0.4434260    -0.0762550
  C        3.5085210    -2.0251140     0.3469700
  C       -1.6410700    -1.2638430    -0.6279320
  C       -3.0109220    -1.5027310    -0.5649580
  C       -3.2228950     0.5407920     0.6622730
  C       -3.8232840    -0.5849970     0.1005040
  H        0.7834850    -1.9532010     0.3364590
  H        2.7242150     2.5332940    -0.3759070
  H        4.2098530     0.5856070    -0.1209690
  H        3.8437589    -2.0540361     1.3897886
  H        2.9990460    -2.9607700     0.0984840
  H        4.4097140    -1.9577250    -0.2701360
  H       -0.9841790    -1.9393540    -1.1680850
  H        0.5549050     3.4095210    -0.2083710
  H       -0.8007830     2.4663430     0.1128890
  H       -3.4393090    -2.3812410    -1.0417430
  H       -3.8215100     1.2923600     1.1747000
  H       -4.8979480    -0.7268890     0.1711280
units angstrom
no_reorient  #important for SAPT in psi4, default
symmetry c1  #important for SAPT in psi4, default
}

set PROPERTIES_ORIGIN ["COM"]
properties('MP2/aug-cc-pvtz', properties = ['dipole'])
--------------------------------------------------------------------------

    Molecular point group: c1
  Charge       = 0
  Multiplicity = 1
  Basis Set: AUG-CC-PVTZ
    Blend: AUG-CC-PVTZ
  Basis Set: (AUG-CC-PVTZ AUX)
    Blend: AUG-CC-PVTZ-JKFIT

    Orbital Energies [Eh]
    ---------------------

    Doubly Occupied:

       1A    -15.567490     2A    -15.547612     3A    -11.288626
       4A    -11.280190     5A    -11.275224     6A    -11.262367
       7A    -11.241578     8A    -11.240797     9A    -11.233346
      10A    -11.232432    11A    -11.232174    12A    -11.226511
      13A    -11.222724    14A    -11.219630    15A     -1.260957
      16A     -1.210547    17A     -1.131647    18A     -1.087801
      19A     -1.063006    20A     -1.016209    21A     -0.992334
      22A     -0.915465    23A     -0.870484    24A     -0.862069
      25A     -0.814637    26A     -0.783248    27A     -0.708819
      28A     -0.689672    29A     -0.681328    30A     -0.660408
      31A     -0.650112    32A     -0.613266    33A     -0.600798
      34A     -0.588945    35A     -0.581904    36A     -0.573439
      37A     -0.570831    38A     -0.548593    39A     -0.532253
      40A     -0.529623    41A     -0.512969    42A     -0.492392
      43A     -0.485685    44A     -0.435002    45A     -0.418770
      46A     -0.387513    47A     -0.366541    48A     -0.316448
      49A     -0.278344

  @DF-RHF Final Energy:  -570.50158530520889

   => Energetics <=

    Nuclear Repulsion Energy =            812.0404707320532225
    One-Electron Energy =               -2384.4785921207094361
    Two-Electron Energy =                1001.9365360834474359
    Total Energy =                       -570.5015853052088914
  Basis Set: (AUG-CC-PVTZ AUX)
    Blend: AUG-CC-PVTZ-RI
    Molecular point group: c1

    Geometry (in Angstrom), charge = 0, multiplicity = 1:

       Center              X                  Y                   Z               Mass
    ------------   -----------------  -----------------  -----------------  -----------------
         N            0.110078287111     2.510921124164    -0.390753501293    14.003074004430
         N           -1.870724712889     0.757906124164     0.623475498707    14.003074004430
         C            0.379911287111     0.102130124164    -0.005997501293    12.000000000000
         C            0.926020287111     1.398578124164    -0.165282501293    12.000000000000
         C            2.636260287111    -0.860906875836     0.118652498707    12.000000000000
         C            1.247290287111    -0.989526875836     0.159613498707    12.000000000000
         C           -1.077796712889    -0.143672875836    -0.003703501293    12.000000000000
         C            2.323206287111     1.523246124164    -0.227624501293    12.000000000000
         C            3.160635287111     0.423124124164    -0.075695501293    12.000000000000
         C            3.538468287111    -2.045415875836     0.347529498707    12.000000000000
         C           -1.611122712889    -1.284144875836    -0.627372501293    12.000000000000
         C           -2.980974712889    -1.523032875836    -0.564398501293    12.000000000000
         C           -3.192947712889     0.520490124164     0.662832498707    12.000000000000
         C           -3.793336712889    -0.605298875836     0.101063498707    12.000000000000
         H            0.813432287111    -1.973502875836     0.337018498707     1.007825032230
         H            2.754162287111     2.512992124164    -0.375347501293     1.007825032230
         H            4.239800287111     0.565305124164    -0.120409501293     1.007825032230
         H            3.873706187111    -2.074337975836     1.390348098707     1.007825032230
         H            3.028993287111    -2.981071875836     0.099043498707     1.007825032230
         H            4.439661287111    -1.978026875836    -0.269576501293     1.007825032230
         H           -0.954231712889    -1.959655875836    -1.167525501293     1.007825032230
         H            0.584852287111     3.389219124164    -0.207811501293     1.007825032230
         H           -0.770835712889     2.446041124164     0.113448498707     1.007825032230
         H           -3.409361712889    -2.401542875836    -1.041183501293     1.007825032230
         H           -3.791562712889     1.272058124164     1.175259498707     1.007825032230
         H           -4.868000712889    -0.747190875836     0.171687498707     1.007825032230

  Basis Set: AUG-CC-PVTZ
    Blend: AUG-CC-PVTZ
  Basis Set: (AUG-CC-PVTZ AUX)
    Blend: AUG-CC-PVTZ-JKFIT
	 Reference Energy          =    -570.5015853052088914 [Eh]
	 Singles Energy            =      -0.0000000000000000 [Eh]
	 Same-Spin Energy          =      -0.6408563902922992 [Eh]
	 Opposite-Spin Energy      =      -1.9777338340976689 [Eh]
	 Correlation Energy        =      -2.6185902243899681 [Eh]
	 Total Energy              =    -573.1201755295988960 [Eh]

	 ================> DF-SCS-MP2 Energies <==================
	-----------------------------------------------------------
	 SCS Same-Spin Scale       =       0.3333333333333333 [-]
	 SCS Opposite-Spin Scale   =       1.2000000000000000 [-]
	 SCS Same-Spin Energy      =      -0.2136187967640997 [Eh]
	 SCS Opposite-Spin Energy  =      -2.3732806009172025 [Eh]
	 SCS Correlation Energy    =      -2.5868993976813024 [Eh]
	 SCS Total Energy          =    -573.0884847028902414 [Eh]
	-----------------------------------------------------------

  Dipole Moment: [D]
     X:    -1.0825      Y:    -0.9608      Z:     0.0749     Total:     1.4493

*** Psi4 exiting successfully. Buy a developer a beer!
