                               Psi4 1.4a3.dev225

  ==> Input File <==

--------------------------------------------------------------------------
#psi4
#
memory 32 gb

molecule  {
0 1
  N        0.0801310     2.5312230    -0.3913130
  N       -1.9006720     0.7782080     0.6229160
  C        0.3499640     0.1224320    -0.0065570
  C        0.8960730     1.4188800    -0.1658420
  C        2.6063130    -0.8406050     0.1180930
  C        1.2173430    -0.9692250     0.1590540
  C       -1.1077440    -0.1233710    -0.0042630
  C        2.2932590     1.5435480    -0.2281840
  C        3.1306880     0.4434260    -0.0762550
  C        3.5085210    -2.0251140     0.3469700
  C       -1.6410700    -1.2638430    -0.6279320
  C       -3.0109220    -1.5027310    -0.5649580
  C       -3.2228950     0.5407920     0.6622730
  C       -3.8232840    -0.5849970     0.1005040
  H        0.7834850    -1.9532010     0.3364590
  H        2.7242150     2.5332940    -0.3759070
  H        4.2098530     0.5856070    -0.1209690
  H        3.8288200    -2.0891060     1.3929170
  H        2.9990460    -2.9607700     0.0984840
  H        4.4097140    -1.9577250    -0.2701360
  H       -0.9841790    -1.9393540    -1.1680850
  H        0.5549050     3.4095210    -0.2083710
  H       -0.8007830     2.4663430     0.1128890
  H       -3.4787015    -2.4620248    -1.0855860
  H       -3.8215100     1.2923600     1.1747000
  H       -4.8979480    -0.7268890     0.1711280
units angstrom
no_reorient  #important for SAPT in psi4, default
symmetry c1  #important for SAPT in psi4, default
}

set PROPERTIES_ORIGIN ["COM"]
properties('MP2/aug-cc-pvtz', properties = ['dipole'])
--------------------------------------------------------------------------

    Molecular point group: c1
  Charge       = 0
  Multiplicity = 1
  Basis Set: AUG-CC-PVTZ
    Blend: AUG-CC-PVTZ
  Basis Set: (AUG-CC-PVTZ AUX)
    Blend: AUG-CC-PVTZ-JKFIT

    Orbital Energies [Eh]
    ---------------------

    Doubly Occupied:

       1A    -15.567889     2A    -15.547936     3A    -11.289361
       4A    -11.280933     5A    -11.275650     6A    -11.273412
       7A    -11.242558     8A    -11.241741     9A    -11.233741
      10A    -11.232770    11A    -11.232566    12A    -11.226814
      13A    -11.222911    14A    -11.219622    15A     -1.261498
      16A     -1.210887    17A     -1.131898    18A     -1.085841
      19A     -1.063489    20A     -1.016320    21A     -0.992764
      22A     -0.915724    23A     -0.870646    24A     -0.857409
      25A     -0.814626    26A     -0.780678    27A     -0.704758
      28A     -0.689389    29A     -0.680989    30A     -0.660342
      31A     -0.650294    32A     -0.612482    33A     -0.600754
      34A     -0.587660    35A     -0.582201    36A     -0.571885
      37A     -0.559355    38A     -0.548065    39A     -0.532630
      40A     -0.529831    41A     -0.513232    42A     -0.493186
      43A     -0.485966    44A     -0.435216    45A     -0.418500
      46A     -0.388062    47A     -0.367081    48A     -0.316811
      49A     -0.278782

  @DF-RHF Final Energy:  -570.49435734131941

   => Energetics <=

    Nuclear Repulsion Energy =            811.5088913691037078
    One-Electron Energy =               -2383.4121929542197904
    Two-Electron Energy =                1001.4089442437965545
    Total Energy =                       -570.4943573413194144
  Basis Set: (AUG-CC-PVTZ AUX)
    Blend: AUG-CC-PVTZ-RI
    Molecular point group: c1

    Geometry (in Angstrom), charge = 0, multiplicity = 1:

       Center              X                  Y                   Z               Mass
    ------------   -----------------  -----------------  -----------------  -----------------
         N            0.110375715305     2.511555345936    -0.390530616001    14.003074004430
         N           -1.870427284695     0.758540345936     0.623698383999    14.003074004430
         C            0.380208715305     0.102764345936    -0.005774616001    12.000000000000
         C            0.926317715305     1.399212345936    -0.165059616001    12.000000000000
         C            2.636557715305    -0.860272654064     0.118875383999    12.000000000000
         C            1.247587715305    -0.988892654064     0.159836383999    12.000000000000
         C           -1.077499284695    -0.143038654064    -0.003480616001    12.000000000000
         C            2.323503715305     1.523880345936    -0.227401616001    12.000000000000
         C            3.160932715305     0.423758345936    -0.075472616001    12.000000000000
         C            3.538765715305    -2.044781654064     0.347752383999    12.000000000000
         C           -1.610825284695    -1.283510654064    -0.627149616001    12.000000000000
         C           -2.980677284695    -1.522398654064    -0.564175616001    12.000000000000
         C           -3.192650284695     0.521124345936     0.663055383999    12.000000000000
         C           -3.793039284695    -0.604664654064     0.101286383999    12.000000000000
         H            0.813729715305    -1.972868654064     0.337241383999     1.007825032230
         H            2.754459715305     2.513626345936    -0.375124616001     1.007825032230
         H            4.240097715305     0.565939345936    -0.120186616001     1.007825032230
         H            3.859064715305    -2.108773654064     1.393699383999     1.007825032230
         H            3.029290715305    -2.980437654064     0.099266383999     1.007825032230
         H            4.439958715305    -1.977392654064    -0.269353616001     1.007825032230
         H           -0.953934284695    -1.959021654064    -1.167302616001     1.007825032230
         H            0.585149715305     3.389853345936    -0.207588616001     1.007825032230
         H           -0.770538284695     2.446675345936     0.113671383999     1.007825032230
         H           -3.448456784695    -2.481692454064    -1.084803616001     1.007825032230
         H           -3.791265284695     1.272692345936     1.175482383999     1.007825032230
         H           -4.867703284695    -0.746556654064     0.171910383999     1.007825032230

  Basis Set: AUG-CC-PVTZ
    Blend: AUG-CC-PVTZ
  Basis Set: (AUG-CC-PVTZ AUX)
    Blend: AUG-CC-PVTZ-JKFIT
	 Reference Energy          =    -570.4943573413194144 [Eh]
	 Singles Energy            =      -0.0000000000000000 [Eh]
	 Same-Spin Energy          =      -0.6410513428428145 [Eh]
	 Opposite-Spin Energy      =      -1.9785979989158098 [Eh]
	 Correlation Energy        =      -2.6196493417586244 [Eh]
	 Total Energy              =    -573.1140066830780597 [Eh]

	 ================> DF-SCS-MP2 Energies <==================
	-----------------------------------------------------------
	 SCS Same-Spin Scale       =       0.3333333333333333 [-]
	 SCS Opposite-Spin Scale   =       1.2000000000000000 [-]
	 SCS Same-Spin Energy      =      -0.2136837809476048 [Eh]
	 SCS Opposite-Spin Energy  =      -2.3743175986989717 [Eh]
	 SCS Correlation Energy    =      -2.5880013796465766 [Eh]
	 SCS Total Energy          =    -573.0823587209659991 [Eh]
	-----------------------------------------------------------

  Dipole Moment: [D]
     X:    -1.0684      Y:    -0.9307      Z:     0.0936     Total:     1.4200

*** Psi4 exiting successfully. Buy a developer a beer!
