                               Psi4 1.4a3.dev225

  ==> Input File <==

--------------------------------------------------------------------------
#psi4
#
memory 32 gb

molecule  {
0 1
  N        0.0801310     2.5312230    -0.3913130
  N       -1.9006720     0.7782080     0.6229160
  C        0.3499640     0.1224320    -0.0065570
  C        0.8960730     1.4188800    -0.1658420
  C        2.6063130    -0.8406050     0.1180930
  C        1.2173430    -0.9692250     0.1590540
  C       -1.1077440    -0.1233710    -0.0042630
  C        2.3325140     1.5716454    -0.2333451
  C        3.1306880     0.4434260    -0.0762550
  C        3.5085210    -2.0251140     0.3469700
  C       -1.6410700    -1.2638430    -0.6279320
  C       -3.0109220    -1.5027310    -0.5649580
  C       -3.2228950     0.5407920     0.6622730
  C       -3.8232840    -0.5849970     0.1005040
  H        0.7834850    -1.9532010     0.3364590
  H        2.7242150     2.5332940    -0.3759070
  H        4.2098530     0.5856070    -0.1209690
  H        3.8288200    -2.0891060     1.3929170
  H        2.9990460    -2.9607700     0.0984840
  H        4.4097140    -1.9577250    -0.2701360
  H       -0.9841790    -1.9393540    -1.1680850
  H        0.5549050     3.4095210    -0.2083710
  H       -0.8007830     2.4663430     0.1128890
  H       -3.4393090    -2.3812410    -1.0417430
  H       -3.8215100     1.2923600     1.1747000
  H       -4.8979480    -0.7268890     0.1711280
units angstrom
no_reorient  #important for SAPT in psi4, default
symmetry c1  #important for SAPT in psi4, default
}

set PROPERTIES_ORIGIN ["COM"]
properties('MP2/aug-cc-pvtz', properties = ['dipole'])
--------------------------------------------------------------------------

    Molecular point group: c1
  Charge       = 0
  Multiplicity = 1
  Basis Set: AUG-CC-PVTZ
    Blend: AUG-CC-PVTZ
  Basis Set: (AUG-CC-PVTZ AUX)
    Blend: AUG-CC-PVTZ-JKFIT

    Orbital Energies [Eh]
    ---------------------

    Doubly Occupied:

       1A    -15.567241     2A    -15.549127     3A    -11.288664
       4A    -11.280833     5A    -11.280078     6A    -11.262269
       7A    -11.241316     8A    -11.240585     9A    -11.233807
      10A    -11.233125    11A    -11.231402    12A    -11.226004
      13A    -11.223979    14A    -11.219310    15A     -1.260740
      16A     -1.209650    17A     -1.130273    18A     -1.087641
      19A     -1.062881    20A     -1.013513    21A     -0.993009
      22A     -0.913427    23A     -0.868296    24A     -0.862190
      25A     -0.817743    26A     -0.783140    27A     -0.709152
      28A     -0.689381    29A     -0.680338    30A     -0.661168
      31A     -0.650815    32A     -0.620890    33A     -0.599975
      34A     -0.589890    35A     -0.581031    36A     -0.572605
      37A     -0.569620    38A     -0.547877    39A     -0.530500
      40A     -0.528771    41A     -0.510884    42A     -0.495468
      43A     -0.485309    44A     -0.434853    45A     -0.418582
      46A     -0.387436    47A     -0.366750    48A     -0.316733
      49A     -0.275754

  @DF-RHF Final Energy:  -570.49855825342524

   => Energetics <=

    Nuclear Repulsion Energy =            811.0414448484735885
    One-Electron Energy =               -2382.4719544636086539
    Two-Electron Energy =                1000.9319513617099346
    Total Energy =                       -570.4985582534252444
  Basis Set: (AUG-CC-PVTZ AUX)
    Blend: AUG-CC-PVTZ-RI
    Molecular point group: c1

    Geometry (in Angstrom), charge = 0, multiplicity = 1:

       Center              X                  Y                   Z               Mass
    ------------   -----------------  -----------------  -----------------  -----------------
         N            0.107601350214     2.509281665188    -0.390434216640    14.003074004430
         N           -1.873201649786     0.756266665188     0.623794783360    14.003074004430
         C            0.377434350214     0.100490665188    -0.005678216640    12.000000000000
         C            0.923543350214     1.396938665188    -0.164963216640    12.000000000000
         C            2.633783350214    -0.862546334812     0.118971783360    12.000000000000
         C            1.244813350214    -0.991166334812     0.159932783360    12.000000000000
         C           -1.080273649786    -0.145312334812    -0.003384216640    12.000000000000
         C            2.359984350214     1.549704065188    -0.232466316640    12.000000000000
         C            3.158158350214     0.421484665188    -0.075376216640    12.000000000000
         C            3.535991350214    -2.047055334812     0.347848783360    12.000000000000
         C           -1.613599649786    -1.285784334812    -0.627053216640    12.000000000000
         C           -2.983451649786    -1.524672334812    -0.564079216640    12.000000000000
         C           -3.195424649786     0.518850665188     0.663151783360    12.000000000000
         C           -3.795813649786    -0.606938334812     0.101382783360    12.000000000000
         H            0.810955350214    -1.975142334812     0.337337783360     1.007825032230
         H            2.751685350214     2.511352665188    -0.375028216640     1.007825032230
         H            4.237323350214     0.563665665188    -0.120090216640     1.007825032230
         H            3.856290350214    -2.111047334812     1.393795783360     1.007825032230
         H            3.026516350214    -2.982711334812     0.099362783360     1.007825032230
         H            4.437184350214    -1.979666334812    -0.269257216640     1.007825032230
         H           -0.956708649786    -1.961295334812    -1.167206216640     1.007825032230
         H            0.582375350214     3.387579665188    -0.207492216640     1.007825032230
         H           -0.773312649786     2.444401665188     0.113767783360     1.007825032230
         H           -3.411838649786    -2.403182334812    -1.040864216640     1.007825032230
         H           -3.794039649786     1.270418665188     1.175578783360     1.007825032230
         H           -4.870477649786    -0.748830334812     0.172006783360     1.007825032230

  Basis Set: AUG-CC-PVTZ
    Blend: AUG-CC-PVTZ
  Basis Set: (AUG-CC-PVTZ AUX)
    Blend: AUG-CC-PVTZ-JKFIT
	 Reference Energy          =    -570.4985582534252444 [Eh]
	 Singles Energy            =      -0.0000000000000000 [Eh]
	 Same-Spin Energy          =      -0.6406672141536979 [Eh]
	 Opposite-Spin Energy      =      -1.9778305436336931 [Eh]
	 Correlation Energy        =      -2.6184977577873911 [Eh]
	 Total Energy              =    -573.1170560112126395 [Eh]

	 ================> DF-SCS-MP2 Energies <==================
	-----------------------------------------------------------
	 SCS Same-Spin Scale       =       0.3333333333333333 [-]
	 SCS Opposite-Spin Scale   =       1.2000000000000000 [-]
	 SCS Same-Spin Energy      =      -0.2135557380512326 [Eh]
	 SCS Opposite-Spin Energy  =      -2.3733966523604315 [Eh]
	 SCS Correlation Energy    =      -2.5869523904116640 [Eh]
	 SCS Total Energy          =    -573.0855106438368693 [Eh]
	-----------------------------------------------------------

  Dipole Moment: [D]
     X:    -1.1171      Y:    -0.9007      Z:     0.0642     Total:     1.4364

*** Psi4 exiting successfully. Buy a developer a beer!
