                               Psi4 1.4a3.dev225

  ==> Input File <==

--------------------------------------------------------------------------
#psi4
#
memory 32 gb

molecule  {
0 1
  N        0.0801310     2.5312230    -0.3913130
  N       -1.9006720     0.7782080     0.6229160
  C        0.3499640     0.1224320    -0.0065570
  C        0.8960730     1.4188800    -0.1658420
  C        2.6063130    -0.8406050     0.1180930
  C        1.2173430    -0.9692250     0.1590540
  C       -1.1077440    -0.1233710    -0.0042630
  C        2.3430120     1.5479874    -0.2304040
  C        3.1306880     0.4434260    -0.0762550
  C        3.5085210    -2.0251140     0.3469700
  C       -1.6410700    -1.2638430    -0.6279320
  C       -3.0109220    -1.5027310    -0.5649580
  C       -3.2228950     0.5407920     0.6622730
  C       -3.8232840    -0.5849970     0.1005040
  H        0.7834850    -1.9532010     0.3364590
  H        2.7242150     2.5332940    -0.3759070
  H        4.2098530     0.5856070    -0.1209690
  H        3.8288200    -2.0891060     1.3929170
  H        2.9990460    -2.9607700     0.0984840
  H        4.4097140    -1.9577250    -0.2701360
  H       -0.9841790    -1.9393540    -1.1680850
  H        0.5549050     3.4095210    -0.2083710
  H       -0.8007830     2.4663430     0.1128890
  H       -3.4393090    -2.3812410    -1.0417430
  H       -3.8215100     1.2923600     1.1747000
  H       -4.8979480    -0.7268890     0.1711280
units angstrom
no_reorient  #important for SAPT in psi4, default
symmetry c1  #important for SAPT in psi4, default
}

set PROPERTIES_ORIGIN ["COM"]
properties('MP2/aug-cc-pvtz', properties = ['dipole'])
--------------------------------------------------------------------------

    Molecular point group: c1
  Charge       = 0
  Multiplicity = 1
  Basis Set: AUG-CC-PVTZ
    Blend: AUG-CC-PVTZ
  Basis Set: (AUG-CC-PVTZ AUX)
    Blend: AUG-CC-PVTZ-JKFIT

    Orbital Energies [Eh]
    ---------------------

    Doubly Occupied:

       1A    -15.567112     2A    -15.550497     3A    -11.288330
       4A    -11.281630     5A    -11.279977     6A    -11.262140
       7A    -11.241165     8A    -11.240373     9A    -11.232884
      10A    -11.230563    11A    -11.230217    12A    -11.225543
      13A    -11.224253    14A    -11.219034    15A     -1.260599
      16A     -1.209844    17A     -1.131853    18A     -1.087496
      19A     -1.063485    20A     -1.014520    21A     -0.993870
      22A     -0.913087    23A     -0.867987    24A     -0.862023
      25A     -0.815724    26A     -0.783884    27A     -0.708748
      28A     -0.690309    29A     -0.681169    30A     -0.660668
      31A     -0.650154    32A     -0.620004    33A     -0.600491
      34A     -0.590176    35A     -0.579253    36A     -0.572969
      37A     -0.569676    38A     -0.547736    39A     -0.531402
      40A     -0.528481    41A     -0.511166    42A     -0.495747
      43A     -0.482723    44A     -0.436122    45A     -0.418438
      46A     -0.387579    47A     -0.367738    48A     -0.318472
      49A     -0.274594

  @DF-RHF Final Energy:  -570.49880186993448

   => Energetics <=

    Nuclear Repulsion Energy =            811.2885345970081516
    One-Electron Energy =               -2382.9708689795393184
    Two-Electron Energy =                1001.1835325125967984
    Total Energy =                       -570.4988018699344821
  Basis Set: (AUG-CC-PVTZ AUX)
    Blend: AUG-CC-PVTZ-RI
    Molecular point group: c1

    Geometry (in Angstrom), charge = 0, multiplicity = 1:

       Center              X                  Y                   Z               Mass
    ------------   -----------------  -----------------  -----------------  -----------------
         N            0.106917070111     2.510823739742    -0.390625923271    14.003074004430
         N           -1.873885929889     0.757808739742     0.623603076729    14.003074004430
         C            0.376750070111     0.102032739742    -0.005869923271    12.000000000000
         C            0.922859070111     1.398480739742    -0.165154923271    12.000000000000
         C            2.633099070111    -0.861004260258     0.118780076729    12.000000000000
         C            1.244129070111    -0.989624260258     0.159741076729    12.000000000000
         C           -1.080957929889    -0.143770260258    -0.003575923271    12.000000000000
         C            2.369798070111     1.527588139742    -0.229716923271    12.000000000000
         C            3.157474070111     0.423026739742    -0.075567923271    12.000000000000
         C            3.535307070111    -2.045513260258     0.347657076729    12.000000000000
         C           -1.614283929889    -1.284242260258    -0.627244923271    12.000000000000
         C           -2.984135929889    -1.523130260258    -0.564270923271    12.000000000000
         C           -3.196108929889     0.520392739742     0.662960076729    12.000000000000
         C           -3.796497929889    -0.605396260258     0.101191076729    12.000000000000
         H            0.810271070111    -1.973600260258     0.337146076729     1.007825032230
         H            2.751001070111     2.512894739742    -0.375219923271     1.007825032230
         H            4.236639070111     0.565207739742    -0.120281923271     1.007825032230
         H            3.855606070111    -2.109505260258     1.393604076729     1.007825032230
         H            3.025832070111    -2.981169260258     0.099171076729     1.007825032230
         H            4.436500070111    -1.978124260258    -0.269448923271     1.007825032230
         H           -0.957392929889    -1.959753260258    -1.167397923271     1.007825032230
         H            0.581691070111     3.389121739742    -0.207683923271     1.007825032230
         H           -0.773996929889     2.445943739742     0.113576076729     1.007825032230
         H           -3.412522929889    -2.401640260258    -1.041055923271     1.007825032230
         H           -3.794723929889     1.271960739742     1.175387076729     1.007825032230
         H           -4.871161929889    -0.747288260258     0.171815076729     1.007825032230

  Basis Set: AUG-CC-PVTZ
    Blend: AUG-CC-PVTZ
  Basis Set: (AUG-CC-PVTZ AUX)
    Blend: AUG-CC-PVTZ-JKFIT
	 Reference Energy          =    -570.4988018699344821 [Eh]
	 Singles Energy            =      -0.0000000000000000 [Eh]
	 Same-Spin Energy          =      -0.6406280700218872 [Eh]
	 Opposite-Spin Energy      =      -1.9777053488514016 [Eh]
	 Correlation Energy        =      -2.6183334188732887 [Eh]
	 Total Energy              =    -573.1171352888077308 [Eh]

	 ================> DF-SCS-MP2 Energies <==================
	-----------------------------------------------------------
	 SCS Same-Spin Scale       =       0.3333333333333333 [-]
	 SCS Opposite-Spin Scale   =       1.2000000000000000 [-]
	 SCS Same-Spin Energy      =      -0.2135426900072957 [Eh]
	 SCS Opposite-Spin Energy  =      -2.3732464186216817 [Eh]
	 SCS Correlation Energy    =      -2.5867891086289774 [Eh]
	 SCS Total Energy          =    -573.0855909785634594 [Eh]
	-----------------------------------------------------------

  Dipole Moment: [D]
     X:    -1.1122      Y:    -0.8772      Z:     0.0598     Total:     1.4177

*** Psi4 exiting successfully. Buy a developer a beer!
