                               Psi4 1.4a3.dev225

  ==> Input File <==

--------------------------------------------------------------------------
#psi4
#
memory 32 gb

molecule  {
0 1
  N        0.0801310     2.5312230    -0.3913130
  N       -1.9006720     0.7782080     0.6229160
  C        0.3499640     0.1224320    -0.0065570
  C        0.8960730     1.4188800    -0.1658420
  C        2.6063130    -0.8406050     0.1180930
  C        1.2173430    -0.9692250     0.1590540
  C       -1.1077440    -0.1233710    -0.0042630
  C        2.2932590     1.5435480    -0.2281840
  C        3.1306880     0.4434260    -0.0762550
  C        3.4965432    -2.0093883     0.3439314
  C       -1.6410700    -1.2638430    -0.6279320
  C       -3.0109220    -1.5027310    -0.5649580
  C       -3.2228950     0.5407920     0.6622730
  C       -3.8232840    -0.5849970     0.1005040
  H        0.7834850    -1.9532010     0.3364590
  H        2.7242150     2.5332940    -0.3759070
  H        4.2098530     0.5856070    -0.1209690
  H        3.8288200    -2.0891060     1.3929170
  H        2.9990460    -2.9607700     0.0984840
  H        4.4097140    -1.9577250    -0.2701360
  H       -0.9841790    -1.9393540    -1.1680850
  H        0.5549050     3.4095210    -0.2083710
  H       -0.8007830     2.4663430     0.1128890
  H       -3.4393090    -2.3812410    -1.0417430
  H       -3.8215100     1.2923600     1.1747000
  H       -4.8979480    -0.7268890     0.1711280
units angstrom
no_reorient  #important for SAPT in psi4, default
symmetry c1  #important for SAPT in psi4, default
}

set PROPERTIES_ORIGIN ["COM"]
properties('MP2/aug-cc-pvtz', properties = ['dipole'])
--------------------------------------------------------------------------

    Molecular point group: c1
  Charge       = 0
  Multiplicity = 1
  Basis Set: AUG-CC-PVTZ
    Blend: AUG-CC-PVTZ
  Basis Set: (AUG-CC-PVTZ AUX)
    Blend: AUG-CC-PVTZ-JKFIT

    Orbital Energies [Eh]
    ---------------------

    Doubly Occupied:

       1A    -15.567590     2A    -15.547827     3A    -11.288731
       4A    -11.280274     5A    -11.275511     6A    -11.262446
       7A    -11.241661     8A    -11.240884     9A    -11.233536
      10A    -11.232607    11A    -11.232357    12A    -11.225692
      13A    -11.222815    14A    -11.220180    15A     -1.261063
      16A     -1.210765    17A     -1.132638    18A     -1.087886
      19A     -1.063507    20A     -1.017778    21A     -0.992548
      22A     -0.914582    23A     -0.870703    24A     -0.862124
      25A     -0.814950    26A     -0.783399    27A     -0.709177
      28A     -0.690087    29A     -0.681507    30A     -0.660609
      31A     -0.650472    32A     -0.614949    33A     -0.600631
      34A     -0.589355    35A     -0.582568    36A     -0.573456
      37A     -0.568692    38A     -0.547975    39A     -0.532334
      40A     -0.526722    41A     -0.512914    42A     -0.495842
      43A     -0.485192    44A     -0.434579    45A     -0.418823
      46A     -0.387599    47A     -0.366639    48A     -0.316539
      49A     -0.278317

  @DF-RHF Final Energy:  -570.50103823511836

   => Energetics <=

    Nuclear Repulsion Energy =            812.3849079917780500
    One-Electron Energy =               -2385.1538292486543469
    Two-Electron Energy =                1002.2678830217578252
    Total Energy =                       -570.5010382351183580
  Basis Set: (AUG-CC-PVTZ AUX)
    Blend: AUG-CC-PVTZ-RI
    Molecular point group: c1

    Geometry (in Angstrom), charge = 0, multiplicity = 1:

       Center              X                  Y                   Z               Mass
    ------------   -----------------  -----------------  -----------------  -----------------
         N            0.110940803980     2.510088076709    -0.390572565327    14.003074004430
         N           -1.869862196020     0.757073076709     0.623656434673    14.003074004430
         C            0.380773803980     0.101297076709    -0.005816565327    12.000000000000
         C            0.926882803980     1.397745076709    -0.165101565327    12.000000000000
         C            2.637122803980    -0.861739923291     0.118833434673    12.000000000000
         C            1.248152803980    -0.990359923291     0.159794434673    12.000000000000
         C           -1.076934196020    -0.144505923291    -0.003522565327    12.000000000000
         C            2.324068803980     1.522413076709    -0.227443565327    12.000000000000
         C            3.161497803980     0.422291076709    -0.075514565327    12.000000000000
         C            3.527353003980    -2.030523223291     0.344671834673    12.000000000000
         C           -1.610260196020    -1.284977923291    -0.627191565327    12.000000000000
         C           -2.980112196020    -1.523865923291    -0.564217565327    12.000000000000
         C           -3.192085196020     0.519657076709     0.663013434673    12.000000000000
         C           -3.792474196020    -0.606131923291     0.101244434673    12.000000000000
         H            0.814294803980    -1.974335923291     0.337199434673     1.007825032230
         H            2.755024803980     2.512159076709    -0.375166565327     1.007825032230
         H            4.240662803980     0.564472076709    -0.120228565327     1.007825032230
         H            3.859629803980    -2.110240923291     1.393657434673     1.007825032230
         H            3.029855803980    -2.981904923291     0.099224434673     1.007825032230
         H            4.440523803980    -1.978859923291    -0.269395565327     1.007825032230
         H           -0.953369196020    -1.960488923291    -1.167344565327     1.007825032230
         H            0.585714803980     3.388386076709    -0.207630565327     1.007825032230
         H           -0.769973196020     2.445208076709     0.113629434673     1.007825032230
         H           -3.408499196020    -2.402375923291    -1.041002565327     1.007825032230
         H           -3.790700196020     1.271225076709     1.175440434673     1.007825032230
         H           -4.867138196020    -0.748023923291     0.171868434673     1.007825032230

  Basis Set: AUG-CC-PVTZ
    Blend: AUG-CC-PVTZ
  Basis Set: (AUG-CC-PVTZ AUX)
    Blend: AUG-CC-PVTZ-JKFIT
	 Reference Energy          =    -570.5010382351183580 [Eh]
	 Singles Energy            =      -0.0000000000000000 [Eh]
	 Same-Spin Energy          =      -0.6410149259442778 [Eh]
	 Opposite-Spin Energy      =      -1.9778559104899551 [Eh]
	 Correlation Energy        =      -2.6188708364342328 [Eh]
	 Total Energy              =    -573.1199090715525699 [Eh]

	 ================> DF-SCS-MP2 Energies <==================
	-----------------------------------------------------------
	 SCS Same-Spin Scale       =       0.3333333333333333 [-]
	 SCS Opposite-Spin Scale   =       1.2000000000000000 [-]
	 SCS Same-Spin Energy      =      -0.2136716419814259 [Eh]
	 SCS Opposite-Spin Energy  =      -2.3734270925879462 [Eh]
	 SCS Correlation Energy    =      -2.5870987345693721 [Eh]
	 SCS Total Energy          =    -573.0881369696877528 [Eh]
	-----------------------------------------------------------

  Dipole Moment: [D]
     X:    -1.1012      Y:    -0.9600      Z:     0.0766     Total:     1.4629

*** Psi4 exiting successfully. Buy a developer a beer!
