                               Psi4 1.4a3.dev225

  ==> Input File <==

--------------------------------------------------------------------------
#psi4
#
memory 32 gb

molecule  {
0 1
  N        0.0801310     2.5312230    -0.3913130
  N       -1.9006720     0.7782080     0.6229160
  C        0.3499640     0.1224320    -0.0065570
  C        0.8960730     1.4188800    -0.1658420
  C        2.6063130    -0.8406050     0.1180930
  C        1.2173430    -0.9692250     0.1590540
  C       -1.1077440    -0.1233710    -0.0042630
  C        2.2932590     1.5435480    -0.2281840
  C        3.1306880     0.4434260    -0.0762550
  C        3.5085210    -2.0251140     0.3469700
  C       -1.6410700    -1.2638430    -0.6279320
  C       -3.0109220    -1.5027310    -0.5649580
  C       -3.2228950     0.5407920     0.6622730
  C       -3.8232840    -0.5849970     0.1005040
  H        0.7834850    -1.9532010     0.3364590
  H        2.7242150     2.5332940    -0.3759070
  H        4.1603232     0.5790814    -0.1189168
  H        3.8288200    -2.0891060     1.3929170
  H        2.9990460    -2.9607700     0.0984840
  H        4.4097140    -1.9577250    -0.2701360
  H       -0.9841790    -1.9393540    -1.1680850
  H        0.5549050     3.4095210    -0.2083710
  H       -0.8007830     2.4663430     0.1128890
  H       -3.4393090    -2.3812410    -1.0417430
  H       -3.8215100     1.2923600     1.1747000
  H       -4.8979480    -0.7268890     0.1711280
units angstrom
no_reorient  #important for SAPT in psi4, default
symmetry c1  #important for SAPT in psi4, default
}

set PROPERTIES_ORIGIN ["COM"]
properties('MP2/aug-cc-pvtz', properties = ['dipole'])
--------------------------------------------------------------------------

    Molecular point group: c1
  Charge       = 0
  Multiplicity = 1
  Basis Set: AUG-CC-PVTZ
    Blend: AUG-CC-PVTZ
  Basis Set: (AUG-CC-PVTZ AUX)
    Blend: AUG-CC-PVTZ-JKFIT

    Orbital Energies [Eh]
    ---------------------

    Doubly Occupied:

       1A    -15.567423     2A    -15.547505     3A    -11.288553
       4A    -11.280129     5A    -11.275039     6A    -11.262304
       7A    -11.241517     8A    -11.240725     9A    -11.233183
      10A    -11.232026    11A    -11.226973    12A    -11.225765
      13A    -11.222223    14A    -11.219535    15A     -1.260887
      16A     -1.210430    17A     -1.131806    18A     -1.087737
      19A     -1.063339    20A     -1.015977    21A     -0.993230
      22A     -0.915764    23A     -0.872181    24A     -0.862039
      25A     -0.815226    26A     -0.784386    27A     -0.708792
      28A     -0.690421    29A     -0.684733    30A     -0.660358
      31A     -0.651174    32A     -0.613449    33A     -0.600590
      34A     -0.591388    35A     -0.582022    36A     -0.574117
      37A     -0.570273    38A     -0.548130    39A     -0.533903
      40A     -0.529343    41A     -0.512820    42A     -0.493191
      43A     -0.486551    44A     -0.434861    45A     -0.418717
      46A     -0.387447    47A     -0.366444    48A     -0.316257
      49A     -0.278288

  @DF-RHF Final Energy:  -570.50100484238556

   => Energetics <=

    Nuclear Repulsion Energy =            812.2940717127846710
    One-Electron Energy =               -2384.9718110492517553
    Two-Electron Energy =                1002.1767344940815292
    Total Energy =                       -570.5010048423855551
  Basis Set: (AUG-CC-PVTZ AUX)
    Blend: AUG-CC-PVTZ-RI
    Molecular point group: c1

    Geometry (in Angstrom), charge = 0, multiplicity = 1:

       Center              X                  Y                   Z               Mass
    ------------   -----------------  -----------------  -----------------  -----------------
         N            0.110431210264     2.511148831796    -0.390781861625    14.003074004430
         N           -1.870371789736     0.758133831796     0.623447138375    14.003074004430
         C            0.380264210264     0.102357831796    -0.006025861625    12.000000000000
         C            0.926373210264     1.398805831796    -0.165310861625    12.000000000000
         C            2.636613210264    -0.860679168204     0.118624138375    12.000000000000
         C            1.247643210264    -0.989299168204     0.159585138375    12.000000000000
         C           -1.077443789736    -0.143445168204    -0.003731861625    12.000000000000
         C            2.323559210264     1.523473831796    -0.227652861625    12.000000000000
         C            3.160988210264     0.423351831796    -0.075723861625    12.000000000000
         C            3.538821210264    -2.045188168204     0.347501138375    12.000000000000
         C           -1.610769789736    -1.283917168204    -0.627400861625    12.000000000000
         C           -2.980621789736    -1.522805168204    -0.564426861625    12.000000000000
         C           -3.192594789736     0.520717831796     0.662804138375    12.000000000000
         C           -3.792983789736    -0.605071168204     0.101035138375    12.000000000000
         H            0.813785210264    -1.973275168204     0.336990138375     1.007825032230
         H            2.754515210264     2.513219831796    -0.375375861625     1.007825032230
         H            4.190623410264     0.559007231796    -0.118385661625     1.007825032230
         H            3.859120210264    -2.109180168204     1.393448138375     1.007825032230
         H            3.029346210264    -2.980844168204     0.099015138375     1.007825032230
         H            4.440014210264    -1.977799168204    -0.269604861625     1.007825032230
         H           -0.953878789736    -1.959428168204    -1.167553861625     1.007825032230
         H            0.585205210264     3.389446831796    -0.207839861625     1.007825032230
         H           -0.770482789736     2.446268831796     0.113420138375     1.007825032230
         H           -3.409008789736    -2.401315168204    -1.041211861625     1.007825032230
         H           -3.791209789736     1.272285831796     1.175231138375     1.007825032230
         H           -4.867647789736    -0.746963168204     0.171659138375     1.007825032230

  Basis Set: AUG-CC-PVTZ
    Blend: AUG-CC-PVTZ
  Basis Set: (AUG-CC-PVTZ AUX)
    Blend: AUG-CC-PVTZ-JKFIT
	 Reference Energy          =    -570.5010048423855551 [Eh]
	 Singles Energy            =      -0.0000000000000000 [Eh]
	 Same-Spin Energy          =      -0.6407367754325125 [Eh]
	 Opposite-Spin Energy      =      -1.9773546817369081 [Eh]
	 Correlation Energy        =      -2.6180914571694207 [Eh]
	 Total Energy              =    -573.1190962995549398 [Eh]

	 ================> DF-SCS-MP2 Energies <==================
	-----------------------------------------------------------
	 SCS Same-Spin Scale       =       0.3333333333333333 [-]
	 SCS Opposite-Spin Scale   =       1.2000000000000000 [-]
	 SCS Same-Spin Energy      =      -0.2135789251441708 [Eh]
	 SCS Opposite-Spin Energy  =      -2.3728256180842897 [Eh]
	 SCS Correlation Energy    =      -2.5864045432284604 [Eh]
	 SCS Total Energy          =    -573.0874093856140234 [Eh]
	-----------------------------------------------------------

  Dipole Moment: [D]
     X:    -1.0723      Y:    -0.9625      Z:     0.0769     Total:     1.4430

*** Psi4 exiting successfully. Buy a developer a beer!
