                               Psi4 1.4a3.dev225

  ==> Input File <==

--------------------------------------------------------------------------
#psi4
#
memory 32 gb

molecule  {
0 1
  N        0.0801310     2.5312230    -0.3913130
  N       -1.9006720     0.7782080     0.6229160
  C        0.3499640     0.1224320    -0.0065570
  C        0.8960730     1.4188800    -0.1658420
  C        2.6063130    -0.8406050     0.1180930
  C        1.2173430    -0.9692250     0.1590540
  C       -1.1077440    -0.1233710    -0.0042630
  C        2.2932590     1.5435480    -0.2281840
  C        3.1306880     0.4434260    -0.0762550
  C        3.5085210    -2.0251140     0.3469700
  C       -1.6410700    -1.2638430    -0.6279320
  C       -2.9915419    -1.4888791    -0.5599576
  C       -3.2228950     0.5407920     0.6622730
  C       -3.8232840    -0.5849970     0.1005040
  H        0.7834850    -1.9532010     0.3364590
  H        2.7242150     2.5332940    -0.3759070
  H        4.2098530     0.5856070    -0.1209690
  H        3.8288200    -2.0891060     1.3929170
  H        2.9990460    -2.9607700     0.0984840
  H        4.4097140    -1.9577250    -0.2701360
  H       -0.9841790    -1.9393540    -1.1680850
  H        0.5549050     3.4095210    -0.2083710
  H       -0.8007830     2.4663430     0.1128890
  H       -3.4393090    -2.3812410    -1.0417430
  H       -3.8215100     1.2923600     1.1747000
  H       -4.8979480    -0.7268890     0.1711280
units angstrom
no_reorient  #important for SAPT in psi4, default
symmetry c1  #important for SAPT in psi4, default
}

set PROPERTIES_ORIGIN ["COM"]
properties('MP2/aug-cc-pvtz', properties = ['dipole'])
--------------------------------------------------------------------------

    Molecular point group: c1
  Charge       = 0
  Multiplicity = 1
  Basis Set: AUG-CC-PVTZ
    Blend: AUG-CC-PVTZ
  Basis Set: (AUG-CC-PVTZ AUX)
    Blend: AUG-CC-PVTZ-JKFIT

    Orbital Energies [Eh]
    ---------------------

    Doubly Occupied:

       1A    -15.567037     2A    -15.547878     3A    -11.289234
       4A    -11.279625     5A    -11.275679     6A    -11.261283
       7A    -11.240947     8A    -11.238555     9A    -11.233761
      10A    -11.232851    11A    -11.232534    12A    -11.226887
      13A    -11.222940    14A    -11.219690    15A     -1.261565
      16A     -1.210878    17A     -1.131938    18A     -1.090055
      19A     -1.063447    20A     -1.016376    21A     -0.993405
      22A     -0.915800    23A     -0.871794    24A     -0.859885
      25A     -0.815254    26A     -0.782757    27A     -0.708548
      28A     -0.690103    29A     -0.681603    30A     -0.660902
      31A     -0.650783    32A     -0.612920    33A     -0.600946
      34A     -0.589466    35A     -0.582353    36A     -0.572294
      37A     -0.566224    38A     -0.548773    39A     -0.533861
      40A     -0.530483    41A     -0.513310    42A     -0.493328
      43A     -0.486009    44A     -0.435181    45A     -0.417963
      46A     -0.389038    47A     -0.367315    48A     -0.316724
      49A     -0.278774

  @DF-RHF Final Energy:  -570.50130643177727

   => Energetics <=

    Nuclear Repulsion Energy =            812.5089347874336454
    One-Electron Energy =               -2385.4025633131286668
    Two-Electron Energy =                1002.3923220939177554
    Total Energy =                       -570.5013064317772660
  Basis Set: (AUG-CC-PVTZ AUX)
    Blend: AUG-CC-PVTZ-RI
    Molecular point group: c1

    Geometry (in Angstrom), charge = 0, multiplicity = 1:

       Center              X                  Y                   Z               Mass
    ------------   -----------------  -----------------  -----------------  -----------------
         N            0.108896834936     2.510210214645    -0.391096563017    14.003074004430
         N           -1.871906165064     0.757195214645     0.623132436983    14.003074004430
         C            0.378729834936     0.101419214645    -0.006340563017    12.000000000000
         C            0.924838834936     1.397867214645    -0.165625563017    12.000000000000
         C            2.635078834936    -0.861617785355     0.118309436983    12.000000000000
         C            1.246108834936    -0.990237785355     0.159270436983    12.000000000000
         C           -1.078978165064    -0.144383785355    -0.004046563017    12.000000000000
         C            2.322024834936     1.522535214645    -0.227967563017    12.000000000000
         C            3.159453834936     0.422413214645    -0.076038563017    12.000000000000
         C            3.537286834936    -2.046126785355     0.347186436983    12.000000000000
         C           -1.612304165064    -1.284855785355    -0.627715563017    12.000000000000
         C           -2.962776065064    -1.509891885355    -0.559741163017    12.000000000000
         C           -3.194129165064     0.519779214645     0.662489436983    12.000000000000
         C           -3.794518165064    -0.606009785355     0.100720436983    12.000000000000
         H            0.812250834936    -1.974213785355     0.336675436983     1.007825032230
         H            2.752980834936     2.512281214645    -0.375690563017     1.007825032230
         H            4.238618834936     0.564594214645    -0.120752563017     1.007825032230
         H            3.857585834936    -2.110118785355     1.393133436983     1.007825032230
         H            3.027811834936    -2.981782785355     0.098700436983     1.007825032230
         H            4.438479834936    -1.978737785355    -0.269919563017     1.007825032230
         H           -0.955413165064    -1.960366785355    -1.167868563017     1.007825032230
         H            0.583670834936     3.388508214645    -0.208154563017     1.007825032230
         H           -0.772017165064     2.445330214645     0.113105436983     1.007825032230
         H           -3.410543165064    -2.402253785355    -1.041526563017     1.007825032230
         H           -3.792744165064     1.271347214645     1.174916436983     1.007825032230
         H           -4.869182165064    -0.747901785355     0.171344436983     1.007825032230

  Basis Set: AUG-CC-PVTZ
    Blend: AUG-CC-PVTZ
  Basis Set: (AUG-CC-PVTZ AUX)
    Blend: AUG-CC-PVTZ-JKFIT
	 Reference Energy          =    -570.5013064317772660 [Eh]
	 Singles Energy            =      -0.0000000000000000 [Eh]
	 Same-Spin Energy          =      -0.6407914890880464 [Eh]
	 Opposite-Spin Energy      =      -1.9775037866365901 [Eh]
	 Correlation Energy        =      -2.6182952757246367 [Eh]
	 Total Energy              =    -573.1196017075019427 [Eh]

	 ================> DF-SCS-MP2 Energies <==================
	-----------------------------------------------------------
	 SCS Same-Spin Scale       =       0.3333333333333333 [-]
	 SCS Opposite-Spin Scale   =       1.2000000000000000 [-]
	 SCS Same-Spin Energy      =      -0.2135971630293488 [Eh]
	 SCS Opposite-Spin Energy  =      -2.3730045439639080 [Eh]
	 SCS Correlation Energy    =      -2.5866017069932568 [Eh]
	 SCS Total Energy          =    -573.0879081387705583 [Eh]
	-----------------------------------------------------------

  Dipole Moment: [D]
     X:    -1.0802      Y:    -0.9480      Z:     0.0847     Total:     1.4397

*** Psi4 exiting successfully. Buy a developer a beer!
