                               Psi4 1.4a3.dev225

  ==> Input File <==

--------------------------------------------------------------------------
#psi4
#
memory 32 gb

molecule  {
0 1
  N        0.0801310     2.5312230    -0.3913130
  N       -1.9006720     0.7782080     0.6229160
  C        0.3499640     0.1224320    -0.0065570
  C        0.8960730     1.4188800    -0.1658420
  C        2.6063130    -0.8406050     0.1180930
  C        1.2173430    -0.9692250     0.1590540
  C       -1.1077440    -0.1233710    -0.0042630
  C        2.2932590     1.5435480    -0.2281840
  C        3.1306880     0.4434260    -0.0762550
  C        3.5085210    -2.0251140     0.3469700
  C       -1.6410700    -1.2638430    -0.6279320
  C       -3.0109220    -1.5027310    -0.5649580
  C       -3.2228950     0.5407920     0.6622730
  C       -3.8232840    -0.5849970     0.1005040
  H        0.7834850    -1.9532010     0.3364590
  H        2.7242150     2.5332940    -0.3759070
  H        4.2098530     0.5856070    -0.1209690
  H        3.8288200    -2.0891060     1.3929170
  H        2.9990460    -2.9607700     0.0984840
  H        4.4097140    -1.9577250    -0.2701360
  H       -0.9841790    -1.9393540    -1.1680850
  H        0.5549050     3.4095210    -0.2083710
  H       -0.8007830     2.4663430     0.1128890
  H       -3.4393090    -2.3812410    -1.0417430
  H       -3.8215100     1.2923600     1.1747000
  H       -4.9968778    -0.7399511     0.1776294
units angstrom
no_reorient  #important for SAPT in psi4, default
symmetry c1  #important for SAPT in psi4, default
}

set PROPERTIES_ORIGIN ["COM"]
properties('MP2/aug-cc-pvtz', properties = ['dipole'])
--------------------------------------------------------------------------

    Molecular point group: c1
  Charge       = 0
  Multiplicity = 1
  Basis Set: AUG-CC-PVTZ
    Blend: AUG-CC-PVTZ
  Basis Set: (AUG-CC-PVTZ AUX)
    Blend: AUG-CC-PVTZ-JKFIT

    Orbital Energies [Eh]
    ---------------------

    Doubly Occupied:

       1A    -15.568325     2A    -15.547966     3A    -11.289132
       4A    -11.281187     5A    -11.275626     6A    -11.263447
       7A    -11.252688     8A    -11.241566     9A    -11.233728
      10A    -11.232767    11A    -11.232546    12A    -11.226841
      13A    -11.222924    14A    -11.219661    15A     -1.261642
      16A     -1.210910    17A     -1.131905    18A     -1.087333
      19A     -1.062732    20A     -1.016287    21A     -0.991282
      22A     -0.915598    23A     -0.867802    24A     -0.862703
      25A     -0.814026    26A     -0.783594    27A     -0.706235
      28A     -0.689976    29A     -0.680468    30A     -0.655734
      31A     -0.646003    32A     -0.613747    33A     -0.600830
      34A     -0.585681    35A     -0.580348    36A     -0.574169
      37A     -0.570379    38A     -0.548589    39A     -0.531231
      40A     -0.525027    41A     -0.512791    42A     -0.492858
      43A     -0.485958    44A     -0.435291    45A     -0.418991
      46A     -0.388212    47A     -0.367072    48A     -0.316794
      49A     -0.278782

  @DF-RHF Final Energy:  -570.49430645986513

   => Energetics <=

    Nuclear Repulsion Energy =            811.5070135020198450
    One-Electron Energy =               -2383.4038636001741907
    Two-Electron Energy =                1001.4025436382892167
    Total Energy =                       -570.4943064598651290
  Basis Set: (AUG-CC-PVTZ AUX)
    Blend: AUG-CC-PVTZ-RI
    Molecular point group: c1

    Geometry (in Angstrom), charge = 0, multiplicity = 1:

       Center              X                  Y                   Z               Mass
    ------------   -----------------  -----------------  -----------------  -----------------
         N            0.110701642331     2.511184614776    -0.390806218029    14.003074004430
         N           -1.870101357669     0.758169614776     0.623422781971    14.003074004430
         C            0.380534642331     0.102393614776    -0.006050218029    12.000000000000
         C            0.926643642331     1.398841614776    -0.165335218029    12.000000000000
         C            2.636883642331    -0.860643385224     0.118599781971    12.000000000000
         C            1.247913642331    -0.989263385224     0.159560781971    12.000000000000
         C           -1.077173357669    -0.143409385224    -0.003756218029    12.000000000000
         C            2.323829642331     1.523509614776    -0.227677218029    12.000000000000
         C            3.161258642331     0.423387614776    -0.075748218029    12.000000000000
         C            3.539091642331    -2.045152385224     0.347476781971    12.000000000000
         C           -1.610499357669    -1.283881385224    -0.627425218029    12.000000000000
         C           -2.980351357669    -1.522769385224    -0.564451218029    12.000000000000
         C           -3.192324357669     0.520753614776     0.662779781971    12.000000000000
         C           -3.792713357669    -0.605035385224     0.101010781971    12.000000000000
         H            0.814055642331    -1.973239385224     0.336965781971     1.007825032230
         H            2.754785642331     2.513255614776    -0.375400218029     1.007825032230
         H            4.240423642331     0.565568614776    -0.120462218029     1.007825032230
         H            3.859390642331    -2.109144385224     1.393423781971     1.007825032230
         H            3.029616642331    -2.980808385224     0.098990781971     1.007825032230
         H            4.440284642331    -1.977763385224    -0.269629218029     1.007825032230
         H           -0.953608357669    -1.959392385224    -1.167578218029     1.007825032230
         H            0.585475642331     3.389482614776    -0.207864218029     1.007825032230
         H           -0.770212357669     2.446304614776     0.113395781971     1.007825032230
         H           -3.408738357669    -2.401279385224    -1.041236218029     1.007825032230
         H           -3.790939357669     1.272321614776     1.175206781971     1.007825032230
         H           -4.966307157669    -0.759989485224     0.178136181971     1.007825032230

  Basis Set: AUG-CC-PVTZ
    Blend: AUG-CC-PVTZ
  Basis Set: (AUG-CC-PVTZ AUX)
    Blend: AUG-CC-PVTZ-JKFIT
	 Reference Energy          =    -570.4943064598651290 [Eh]
	 Singles Energy            =      -0.0000000000000000 [Eh]
	 Same-Spin Energy          =      -0.6410523623233016 [Eh]
	 Opposite-Spin Energy      =      -1.9786095985430074 [Eh]
	 Correlation Energy        =      -2.6196619608663090 [Eh]
	 Total Energy              =    -573.1139684207314531 [Eh]

	 ================> DF-SCS-MP2 Energies <==================
	-----------------------------------------------------------
	 SCS Same-Spin Scale       =       0.3333333333333333 [-]
	 SCS Opposite-Spin Scale   =       1.2000000000000000 [-]
	 SCS Same-Spin Energy      =      -0.2136841207744339 [Eh]
	 SCS Opposite-Spin Energy  =      -2.3743315182516089 [Eh]
	 SCS Correlation Energy    =      -2.5880156390260427 [Eh]
	 SCS Total Energy          =    -573.0823220988911544 [Eh]
	-----------------------------------------------------------

  Dipole Moment: [D]
     X:    -1.0531      Y:    -0.9595      Z:     0.0733     Total:     1.4266

*** Psi4 exiting successfully. Buy a developer a beer!
