                               Psi4 1.4a3.dev225

  ==> Input File <==

--------------------------------------------------------------------------
#psi4
#
memory 32 gb

molecule  {
0 1
  N        0.0801310     2.5312230    -0.3913130
  N       -1.9006720     0.7782080     0.6229160
  C        0.3499640     0.1224320    -0.0065570
  C        0.8960730     1.4188800    -0.1658420
  C        2.6063130    -0.8406050     0.1180930
  C        1.2173430    -0.9692250     0.1590540
  C       -1.1077440    -0.1233710    -0.0042630
  C        2.2932590     1.5435480    -0.2281840
  C        3.1306880     0.4434260    -0.0762550
  C        3.5085210    -2.0251140     0.3469700
  C       -1.6410700    -1.2638430    -0.6279320
  C       -3.0109220    -1.5027310    -0.5649580
  C       -3.2228950     0.5407920     0.6622730
  C       -3.8232840    -0.5849970     0.1005040
  H        0.7834850    -1.9532010     0.3364590
  H        2.7242150     2.5332940    -0.3759070
  H        4.2098530     0.5856070    -0.1209690
  H        3.8134909    -2.1240980     1.3947711
  H        2.9990460    -2.9607700     0.0984840
  H        4.4097140    -1.9577250    -0.2701360
  H       -0.9841790    -1.9393540    -1.1680850
  H        0.5549050     3.4095210    -0.2083710
  H       -0.8007830     2.4663430     0.1128890
  H       -3.4393090    -2.3812410    -1.0417430
  H       -3.8215100     1.2923600     1.1747000
  H       -4.8979480    -0.7268890     0.1711280
units angstrom
no_reorient  #important for SAPT in psi4, default
symmetry c1  #important for SAPT in psi4, default
}

set PROPERTIES_ORIGIN ["COM"]
properties('MP2/aug-cc-pvtz', properties = ['dipole'])
--------------------------------------------------------------------------

    Molecular point group: c1
  Charge       = 0
  Multiplicity = 1
  Basis Set: AUG-CC-PVTZ
    Blend: AUG-CC-PVTZ
  Basis Set: (AUG-CC-PVTZ AUX)
    Blend: AUG-CC-PVTZ-JKFIT

    Orbital Energies [Eh]
    ---------------------

    Doubly Occupied:

       1A    -15.567576     2A    -15.547816     3A    -11.288722
       4A    -11.280265     5A    -11.275526     6A    -11.262436
       7A    -11.241648     8A    -11.240870     9A    -11.233591
      10A    -11.232666    11A    -11.232390    12A    -11.226763
      13A    -11.222701    14A    -11.219390    15A     -1.261051
      16A     -1.210728    17A     -1.131700    18A     -1.087874
      19A     -1.063033    20A     -1.016060    21A     -0.992400
      22A     -0.915638    23A     -0.870596    24A     -0.862158
      25A     -0.814806    26A     -0.783581    27A     -0.709003
      28A     -0.689902    29A     -0.681465    30A     -0.660517
      31A     -0.650153    32A     -0.613937    33A     -0.600458
      34A     -0.589100    35A     -0.582096    36A     -0.574012
      37A     -0.569294    38A     -0.547906    39A     -0.532083
      40A     -0.529085    41A     -0.512959    42A     -0.493410
      43A     -0.485717    44A     -0.435095    45A     -0.418871
      46A     -0.387606    47A     -0.366660    48A     -0.316505
      49A     -0.278687

  @DF-RHF Final Energy:  -570.50159904029022

   => Energetics <=

    Nuclear Repulsion Energy =            811.9879286562376137
    One-Electron Energy =               -2384.3660394746211750
    Two-Electron Energy =                1001.8765117780932314
    Total Energy =                       -570.5015990402902162
  Basis Set: (AUG-CC-PVTZ AUX)
    Blend: AUG-CC-PVTZ-RI
    Molecular point group: c1

    Geometry (in Angstrom), charge = 0, multiplicity = 1:

       Center              X                  Y                   Z               Mass
    ------------   -----------------  -----------------  -----------------  -----------------
         N            0.110243984232     2.511304666359    -0.390780777159    14.003074004430
         N           -1.870559015768     0.758289666359     0.623448222841    14.003074004430
         C            0.380076984232     0.102513666359    -0.006024777159    12.000000000000
         C            0.926185984232     1.398961666359    -0.165309777159    12.000000000000
         C            2.636425984232    -0.860523333641     0.118625222841    12.000000000000
         C            1.247455984232    -0.989143333641     0.159586222841    12.000000000000
         C           -1.077631015768    -0.143289333641    -0.003730777159    12.000000000000
         C            2.323371984232     1.523629666359    -0.227651777159    12.000000000000
         C            3.160800984232     0.423507666359    -0.075722777159    12.000000000000
         C            3.538633984232    -2.045032333641     0.347502222841    12.000000000000
         C           -1.610957015768    -1.283761333641    -0.627399777159    12.000000000000
         C           -2.980809015768    -1.522649333641    -0.564425777159    12.000000000000
         C           -3.192782015768     0.520873666359     0.662805222841    12.000000000000
         C           -3.793171015768    -0.604915333641     0.101036222841    12.000000000000
         H            0.813597984232    -1.973119333641     0.336991222841     1.007825032230
         H            2.754327984232     2.513375666359    -0.375374777159     1.007825032230
         H            4.239965984232     0.565688666359    -0.120436777159     1.007825032230
         H            3.843603884232    -2.144016333641     1.395303322841     1.007825032230
         H            3.029158984232    -2.980688333641     0.099016222841     1.007825032230
         H            4.439826984232    -1.977643333641    -0.269603777159     1.007825032230
         H           -0.954066015768    -1.959272333641    -1.167552777159     1.007825032230
         H            0.585017984232     3.389602666359    -0.207838777159     1.007825032230
         H           -0.770670015768     2.446424666359     0.113421222841     1.007825032230
         H           -3.409196015768    -2.401159333641    -1.041210777159     1.007825032230
         H           -3.791397015768     1.272441666359     1.175232222841     1.007825032230
         H           -4.867835015768    -0.746807333641     0.171660222841     1.007825032230

  Basis Set: AUG-CC-PVTZ
    Blend: AUG-CC-PVTZ
  Basis Set: (AUG-CC-PVTZ AUX)
    Blend: AUG-CC-PVTZ-JKFIT
	 Reference Energy          =    -570.5015990402902162 [Eh]
	 Singles Energy            =      -0.0000000000000000 [Eh]
	 Same-Spin Energy          =      -0.6408283968273100 [Eh]
	 Opposite-Spin Energy      =      -1.9776633107165360 [Eh]
	 Correlation Energy        =      -2.6184917075438459 [Eh]
	 Total Energy              =    -573.1200907478340696 [Eh]

	 ================> DF-SCS-MP2 Energies <==================
	-----------------------------------------------------------
	 SCS Same-Spin Scale       =       0.3333333333333333 [-]
	 SCS Opposite-Spin Scale   =       1.2000000000000000 [-]
	 SCS Same-Spin Energy      =      -0.2136094656091033 [Eh]
	 SCS Opposite-Spin Energy  =      -2.3731959728598433 [Eh]
	 SCS Correlation Energy    =      -2.5868054384689465 [Eh]
	 SCS Total Energy          =    -573.0884044787591165 [Eh]
	-----------------------------------------------------------

  Dipole Moment: [D]
     X:    -1.1115      Y:    -0.9674      Z:     0.0795     Total:     1.4756

*** Psi4 exiting successfully. Buy a developer a beer!
