                               Psi4 1.4a3.dev225

  ==> Input File <==

--------------------------------------------------------------------------
#psi4
#
memory 32 gb

molecule  {
0 1
  N        0.0801310     2.5312230    -0.3913130
  N       -1.9006720     0.7782080     0.6229160
  C        0.3499640     0.1224320    -0.0065570
  C        0.8960730     1.4188800    -0.1658420
  C        2.6063130    -0.8406050     0.1180930
  C        1.3168741    -0.9600083     0.1561188
  C       -1.1077440    -0.1233710    -0.0042630
  C        2.2932590     1.5435480    -0.2281840
  C        3.1306880     0.4434260    -0.0762550
  C        3.5085210    -2.0251140     0.3469700
  C       -1.6410700    -1.2638430    -0.6279320
  C       -3.0109220    -1.5027310    -0.5649580
  C       -3.2228950     0.5407920     0.6622730
  C       -3.8232840    -0.5849970     0.1005040
  H        0.7834850    -1.9532010     0.3364590
  H        2.7242150     2.5332940    -0.3759070
  H        4.2098530     0.5856070    -0.1209690
  H        3.8288200    -2.0891060     1.3929170
  H        2.9990460    -2.9607700     0.0984840
  H        4.4097140    -1.9577250    -0.2701360
  H       -0.9841790    -1.9393540    -1.1680850
  H        0.5549050     3.4095210    -0.2083710
  H       -0.8007830     2.4663430     0.1128890
  H       -3.4393090    -2.3812410    -1.0417430
  H       -3.8215100     1.2923600     1.1747000
  H       -4.8979480    -0.7268890     0.1711280
units angstrom
no_reorient  #important for SAPT in psi4, default
symmetry c1  #important for SAPT in psi4, default
}

set PROPERTIES_ORIGIN ["COM"]
properties('MP2/aug-cc-pvtz', properties = ['dipole'])
--------------------------------------------------------------------------

    Molecular point group: c1
  Charge       = 0
  Multiplicity = 1
  Basis Set: AUG-CC-PVTZ
    Blend: AUG-CC-PVTZ
  Basis Set: (AUG-CC-PVTZ AUX)
    Blend: AUG-CC-PVTZ-JKFIT

    Orbital Energies [Eh]
    ---------------------

    Doubly Occupied:

       1A    -15.566989     2A    -15.547927     3A    -11.289236
       4A    -11.279805     5A    -11.275530     6A    -11.261740
       7A    -11.240904     8A    -11.240140     9A    -11.235833
      10A    -11.233138    11A    -11.229613    12A    -11.225705
      13A    -11.219591    14A    -11.215866    15A     -1.260149
      16A     -1.211093    17A     -1.140973    18A     -1.087172
      19A     -1.060126    20A     -1.022602    21A     -0.986491
      22A     -0.920809    23A     -0.872501    24A     -0.861438
      25A     -0.814785    26A     -0.781937    27A     -0.708725
      28A     -0.690598    29A     -0.678866    30A     -0.659792
      31A     -0.651297    32A     -0.613458    33A     -0.602329
      34A     -0.588872    35A     -0.578100    36A     -0.575256
      37A     -0.570384    38A     -0.546781    39A     -0.533092
      40A     -0.527864    41A     -0.512731    42A     -0.497732
      43A     -0.472998    44A     -0.440106    45A     -0.419087
      46A     -0.386628    47A     -0.364538    48A     -0.320172
      49A     -0.281465

  @DF-RHF Final Energy:  -570.48862907871012

   => Energetics <=

    Nuclear Repulsion Energy =            812.2213670007338351
    One-Electron Energy =               -2384.8140670946099817
    Two-Electron Energy =                1002.1040710151660278
    Total Energy =                       -570.4886290787101188
  Basis Set: (AUG-CC-PVTZ AUX)
    Blend: AUG-CC-PVTZ-RI
    Molecular point group: c1

    Geometry (in Angstrom), charge = 0, multiplicity = 1:

       Center              X                  Y                   Z               Mass
    ------------   -----------------  -----------------  -----------------  -----------------
         N            0.103672436526     2.510512346016    -0.390579305141    14.003074004430
         N           -1.877130563474     0.757497346016     0.623649694859    14.003074004430
         C            0.373505436526     0.101721346016    -0.005823305141    12.000000000000
         C            0.919614436526     1.398169346016    -0.165108305141    12.000000000000
         C            2.629854436526    -0.861315653984     0.118826694859    12.000000000000
         C            1.340415536526    -0.980718953984     0.156852494859    12.000000000000
         C           -1.084202563474    -0.144081653984    -0.003529305141    12.000000000000
         C            2.316800436526     1.522837346016    -0.227450305141    12.000000000000
         C            3.154229436526     0.422715346016    -0.075521305141    12.000000000000
         C            3.532062436526    -2.045824653984     0.347703694859    12.000000000000
         C           -1.617528563474    -1.284553653984    -0.627198305141    12.000000000000
         C           -2.987380563474    -1.523441653984    -0.564224305141    12.000000000000
         C           -3.199353563474     0.520081346016     0.663006694859    12.000000000000
         C           -3.799742563474    -0.605707653984     0.101237694859    12.000000000000
         H            0.807026436526    -1.973911653984     0.337192694859     1.007825032230
         H            2.747756436526     2.512583346016    -0.375173305141     1.007825032230
         H            4.233394436526     0.564896346016    -0.120235305141     1.007825032230
         H            3.852361436526    -2.109816653984     1.393650694859     1.007825032230
         H            3.022587436526    -2.981480653984     0.099217694859     1.007825032230
         H            4.433255436526    -1.978435653984    -0.269402305141     1.007825032230
         H           -0.960637563474    -1.960064653984    -1.167351305141     1.007825032230
         H            0.578446436526     3.388810346016    -0.207637305141     1.007825032230
         H           -0.777241563474     2.445632346016     0.113622694859     1.007825032230
         H           -3.415767563474    -2.401951653984    -1.041009305141     1.007825032230
         H           -3.797968563474     1.271649346016     1.175433694859     1.007825032230
         H           -4.874406563474    -0.747599653984     0.171861694859     1.007825032230

  Basis Set: AUG-CC-PVTZ
    Blend: AUG-CC-PVTZ
  Basis Set: (AUG-CC-PVTZ AUX)
    Blend: AUG-CC-PVTZ-JKFIT
	 Reference Energy          =    -570.4886290787101188 [Eh]
	 Singles Energy            =      -0.0000000000000000 [Eh]
	 Same-Spin Energy          =      -0.6405289661979241 [Eh]
	 Opposite-Spin Energy      =      -1.9778208974778475 [Eh]
	 Correlation Energy        =      -2.6183498636757716 [Eh]
	 Total Energy              =    -573.1069789423859220 [Eh]

	 ================> DF-SCS-MP2 Energies <==================
	-----------------------------------------------------------
	 SCS Same-Spin Scale       =       0.3333333333333333 [-]
	 SCS Opposite-Spin Scale   =       1.2000000000000000 [-]
	 SCS Same-Spin Energy      =      -0.2135096553993080 [Eh]
	 SCS Opposite-Spin Energy  =      -2.3733850769734168 [Eh]
	 SCS Correlation Energy    =      -2.5868947323727247 [Eh]
	 SCS Total Energy          =    -573.0755238110828031 [Eh]
	-----------------------------------------------------------

  Dipole Moment: [D]
     X:    -1.0618      Y:    -0.9045      Z:     0.0582     Total:     1.3960

*** Psi4 exiting successfully. Buy a developer a beer!
