                               Psi4 1.4a3.dev225

  ==> Input File <==

--------------------------------------------------------------------------
#psi4
#
memory 32 gb

molecule  {
0 1
  N        0.0801310     2.5312230    -0.3913130
  N       -1.8950251     0.7381793     0.5991172
  C        0.3499640     0.1224320    -0.0065570
  C        0.8960730     1.4188800    -0.1658420
  C        2.6063130    -0.8406050     0.1180930
  C        1.2173430    -0.9692250     0.1590540
  C       -1.1077440    -0.1233710    -0.0042630
  C        2.2932590     1.5435480    -0.2281840
  C        3.1306880     0.4434260    -0.0762550
  C        3.5085210    -2.0251140     0.3469700
  C       -1.6410700    -1.2638430    -0.6279320
  C       -3.0109220    -1.5027310    -0.5649580
  C       -3.2228950     0.5407920     0.6622730
  C       -3.8232840    -0.5849970     0.1005040
  H        0.7834850    -1.9532010     0.3364590
  H        2.7242150     2.5332940    -0.3759070
  H        4.2098530     0.5856070    -0.1209690
  H        3.8288200    -2.0891060     1.3929170
  H        2.9990460    -2.9607700     0.0984840
  H        4.4097140    -1.9577250    -0.2701360
  H       -0.9841790    -1.9393540    -1.1680850
  H        0.5549050     3.4095210    -0.2083710
  H       -0.8007830     2.4663430     0.1128890
  H       -3.4393090    -2.3812410    -1.0417430
  H       -3.8215100     1.2923600     1.1747000
  H       -4.8979480    -0.7268890     0.1711280
units angstrom
no_reorient  #important for SAPT in psi4, default
symmetry c1  #important for SAPT in psi4, default
}

set PROPERTIES_ORIGIN ["COM"]
properties('MP2/aug-cc-pvtz', properties = ['dipole'])
--------------------------------------------------------------------------

    Molecular point group: c1
  Charge       = 0
  Multiplicity = 1
  Basis Set: AUG-CC-PVTZ
    Blend: AUG-CC-PVTZ
  Basis Set: (AUG-CC-PVTZ AUX)
    Blend: AUG-CC-PVTZ-JKFIT

    Orbital Energies [Eh]
    ---------------------

    Doubly Occupied:

       1A    -15.561601     2A    -15.548150     3A    -11.283669
       4A    -11.280042     5A    -11.275041     6A    -11.260475
       7A    -11.241635     8A    -11.239810     9A    -11.232963
      10A    -11.232198    11A    -11.231654    12A    -11.226445
      13A    -11.222557    14A    -11.219326    15A     -1.270101
      16A     -1.211124    17A     -1.131394    18A     -1.087412
      19A     -1.063185    20A     -1.015983    21A     -0.993665
      22A     -0.915352    23A     -0.871254    24A     -0.862705
      25A     -0.816147    26A     -0.783747    27A     -0.710413
      28A     -0.689886    29A     -0.681550    30A     -0.661335
      31A     -0.651207    32A     -0.614875    33A     -0.600492
      34A     -0.588454    35A     -0.581946    36A     -0.574384
      37A     -0.570135    38A     -0.552053    39A     -0.532402
      40A     -0.529953    41A     -0.513914    42A     -0.494066
      43A     -0.486251    44A     -0.434447    45A     -0.411303
      46A     -0.389381    47A     -0.364458    48A     -0.317061
      49A     -0.278826

  @DF-RHF Final Energy:  -570.50240429858843

   => Energetics <=

    Nuclear Repulsion Energy =            813.0547848565834101
    One-Electron Energy =               -2386.5015254897384693
    Two-Electron Energy =                1002.9443363345666285
    Total Energy =                       -570.5024042985884307
  Basis Set: (AUG-CC-PVTZ AUX)
    Blend: AUG-CC-PVTZ-RI
    Molecular point group: c1

    Geometry (in Angstrom), charge = 0, multiplicity = 1:

       Center              X                  Y                   Z               Mass
    ------------   -----------------  -----------------  -----------------  -----------------
         N            0.109730551400     2.514157783669    -0.388960435617    14.003074004430
         N           -1.865425548600     0.721114083669     0.601469764383    14.003074004430
         C            0.379563551400     0.105366783669    -0.004204435617    12.000000000000
         C            0.925672551400     1.401814783669    -0.163489435617    12.000000000000
         C            2.635912551400    -0.857670216331     0.120445564383    12.000000000000
         C            1.246942551400    -0.986290216331     0.161406564383    12.000000000000
         C           -1.078144448600    -0.140436216331    -0.001910435617    12.000000000000
         C            2.322858551400     1.526482783669    -0.225831435617    12.000000000000
         C            3.160287551400     0.426360783669    -0.073902435617    12.000000000000
         C            3.538120551400    -2.042179216331     0.349322564383    12.000000000000
         C           -1.611470448600    -1.280908216331    -0.625579435617    12.000000000000
         C           -2.981322448600    -1.519796216331    -0.562605435617    12.000000000000
         C           -3.193295448600     0.523726783669     0.664625564383    12.000000000000
         C           -3.793684448600    -0.602062216331     0.102856564383    12.000000000000
         H            0.813084551400    -1.970266216331     0.338811564383     1.007825032230
         H            2.753814551400     2.516228783669    -0.373554435617     1.007825032230
         H            4.239452551400     0.568541783669    -0.118616435617     1.007825032230
         H            3.858419551400    -2.106171216331     1.395269564383     1.007825032230
         H            3.028645551400    -2.977835216331     0.100836564383     1.007825032230
         H            4.439313551400    -1.974790216331    -0.267783435617     1.007825032230
         H           -0.954579448600    -1.956419216331    -1.165732435617     1.007825032230
         H            0.584504551400     3.392455783669    -0.206018435617     1.007825032230
         H           -0.771183448600     2.449277783669     0.115241564383     1.007825032230
         H           -3.409709448600    -2.398306216331    -1.039390435617     1.007825032230
         H           -3.791910448600     1.275294783669     1.177052564383     1.007825032230
         H           -4.868348448600    -0.743954216331     0.173480564383     1.007825032230

  Basis Set: AUG-CC-PVTZ
    Blend: AUG-CC-PVTZ
  Basis Set: (AUG-CC-PVTZ AUX)
    Blend: AUG-CC-PVTZ-JKFIT
	 Reference Energy          =    -570.5024042985884307 [Eh]
	 Singles Energy            =      -0.0000000000000000 [Eh]
	 Same-Spin Energy          =      -0.6404221044950860 [Eh]
	 Opposite-Spin Energy      =      -1.9764620104323634 [Eh]
	 Correlation Energy        =      -2.6168841149274495 [Eh]
	 Total Energy              =    -573.1192884135158465 [Eh]

	 ================> DF-SCS-MP2 Energies <==================
	-----------------------------------------------------------
	 SCS Same-Spin Scale       =       0.3333333333333333 [-]
	 SCS Opposite-Spin Scale   =       1.2000000000000000 [-]
	 SCS Same-Spin Energy      =      -0.2134740348316953 [Eh]
	 SCS Opposite-Spin Energy  =      -2.3717544125188361 [Eh]
	 SCS Correlation Energy    =      -2.5852284473505316 [Eh]
	 SCS Total Energy          =    -573.0876327459390041 [Eh]
	-----------------------------------------------------------

  Dipole Moment: [D]
     X:    -1.1073      Y:    -0.8850      Z:     0.1226     Total:     1.4228

*** Psi4 exiting successfully. Buy a developer a beer!
