                               Psi4 1.4a3.dev225

  ==> Input File <==

--------------------------------------------------------------------------
#psi4
#
memory 32 gb

molecule  {
0 1
  N        0.0801310     2.5312230    -0.3913130
  N       -1.9006720     0.7782080     0.6229160
  C        0.3499640     0.1224320    -0.0065570
  C        0.8960730     1.4188800    -0.1658420
  C        2.6167665    -0.8175883     0.2201585
  C        1.2173430    -0.9692250     0.1590540
  C       -1.1077440    -0.1233710    -0.0042630
  C        2.2932590     1.5435480    -0.2281840
  C        3.1306880     0.4434260    -0.0762550
  C        3.5085210    -2.0251140     0.3469700
  C       -1.6410700    -1.2638430    -0.6279320
  C       -3.0109220    -1.5027310    -0.5649580
  C       -3.2228950     0.5407920     0.6622730
  C       -3.8232840    -0.5849970     0.1005040
  H        0.7834850    -1.9532010     0.3364590
  H        2.7242150     2.5332940    -0.3759070
  H        4.2098530     0.5856070    -0.1209690
  H        3.8288200    -2.0891060     1.3929170
  H        2.9990460    -2.9607700     0.0984840
  H        4.4097140    -1.9577250    -0.2701360
  H       -0.9841790    -1.9393540    -1.1680850
  H        0.5549050     3.4095210    -0.2083710
  H       -0.8007830     2.4663430     0.1128890
  H       -3.4393090    -2.3812410    -1.0417430
  H       -3.8215100     1.2923600     1.1747000
  H       -4.8979480    -0.7268890     0.1711280
units angstrom
no_reorient  #important for SAPT in psi4, default
symmetry c1  #important for SAPT in psi4, default
}

set PROPERTIES_ORIGIN ["COM"]
properties('MP2/aug-cc-pvtz', properties = ['dipole'])
--------------------------------------------------------------------------

    Molecular point group: c1
  Charge       = 0
  Multiplicity = 1
  Basis Set: AUG-CC-PVTZ
    Blend: AUG-CC-PVTZ
  Basis Set: (AUG-CC-PVTZ AUX)
    Blend: AUG-CC-PVTZ-JKFIT

    Orbital Energies [Eh]
    ---------------------

    Doubly Occupied:

       1A    -15.567568     2A    -15.547530     3A    -11.288972
       4A    -11.280296     5A    -11.275145     6A    -11.262458
       7A    -11.241514     8A    -11.240837     9A    -11.235128
      10A    -11.233131    11A    -11.231739    12A    -11.227598
      13A    -11.222009    14A    -11.219571    15A     -1.261080
      16A     -1.210467    17A     -1.131250    18A     -1.087857
      19A     -1.063454    20A     -1.015581    21A     -0.992416
      22A     -0.915198    23A     -0.870446    24A     -0.862123
      25A     -0.814848    26A     -0.782998    27A     -0.708734
      28A     -0.689658    29A     -0.681253    30A     -0.660550
      31A     -0.649991    32A     -0.613975    33A     -0.600044
      34A     -0.589210    35A     -0.581171    36A     -0.573032
      37A     -0.571438    38A     -0.547744    39A     -0.532538
      40A     -0.529265    41A     -0.514966    42A     -0.490349
      43A     -0.485649    44A     -0.435208    45A     -0.418533
      46A     -0.387580    47A     -0.367203    48A     -0.314889
      49A     -0.278546

  @DF-RHF Final Energy:  -570.49851434256834

   => Energetics <=

    Nuclear Repulsion Energy =            811.8728323766750918
    One-Electron Energy =               -2384.1372216992535868
    Two-Electron Energy =                1001.7658749800102669
    Total Energy =                       -570.4985143425683418
  Basis Set: (AUG-CC-PVTZ AUX)
    Blend: AUG-CC-PVTZ-RI
    Molecular point group: c1

    Geometry (in Angstrom), charge = 0, multiplicity = 1:

       Center              X                  Y                   Z               Mass
    ------------   -----------------  -----------------  -----------------  -----------------
         N            0.109478688123     2.509612835117    -0.397423455433    14.003074004430
         N           -1.871324311877     0.756597835117     0.616805544567    14.003074004430
         C            0.379311688123     0.100821835117    -0.012667455433    12.000000000000
         C            0.925420688123     1.397269835117    -0.171952455433    12.000000000000
         C            2.646114188123    -0.839198464883     0.214048044567    12.000000000000
         C            1.246690688123    -0.990835164883     0.152943544567    12.000000000000
         C           -1.078396311877    -0.144981164883    -0.010373455433    12.000000000000
         C            2.322606688123     1.521937835117    -0.234294455433    12.000000000000
         C            3.160035688123     0.421815835117    -0.082365455433    12.000000000000
         C            3.537868688123    -2.046724164883     0.340859544567    12.000000000000
         C           -1.611722311877    -1.285453164883    -0.634042455433    12.000000000000
         C           -2.981574311877    -1.524341164883    -0.571068455433    12.000000000000
         C           -3.193547311877     0.519181835117     0.656162544567    12.000000000000
         C           -3.793936311877    -0.606607164883     0.094393544567    12.000000000000
         H            0.812832688123    -1.974811164883     0.330348544567     1.007825032230
         H            2.753562688123     2.511683835117    -0.382017455433     1.007825032230
         H            4.239200688123     0.563996835117    -0.127079455433     1.007825032230
         H            3.858167688123    -2.110716164883     1.386806544567     1.007825032230
         H            3.028393688123    -2.982380164883     0.092373544567     1.007825032230
         H            4.439061688123    -1.979335164883    -0.276246455433     1.007825032230
         H           -0.954831311877    -1.960964164883    -1.174195455433     1.007825032230
         H            0.584252688123     3.387910835117    -0.214481455433     1.007825032230
         H           -0.771435311877     2.444732835117     0.106778544567     1.007825032230
         H           -3.409961311877    -2.402851164883    -1.047853455433     1.007825032230
         H           -3.792162311877     1.270749835117     1.168589544567     1.007825032230
         H           -4.868600311877    -0.748499164883     0.165017544567     1.007825032230

  Basis Set: AUG-CC-PVTZ
    Blend: AUG-CC-PVTZ
  Basis Set: (AUG-CC-PVTZ AUX)
    Blend: AUG-CC-PVTZ-JKFIT
	 Reference Energy          =    -570.4985143425683418 [Eh]
	 Singles Energy            =      -0.0000000000000000 [Eh]
	 Same-Spin Energy          =      -0.6409534830745985 [Eh]
	 Opposite-Spin Energy      =      -1.9780815223151327 [Eh]
	 Correlation Energy        =      -2.6190350053897311 [Eh]
	 Total Energy              =    -573.1175493479580609 [Eh]

	 ================> DF-SCS-MP2 Energies <==================
	-----------------------------------------------------------
	 SCS Same-Spin Scale       =       0.3333333333333333 [-]
	 SCS Opposite-Spin Scale   =       1.2000000000000000 [-]
	 SCS Same-Spin Energy      =      -0.2136511610248662 [Eh]
	 SCS Opposite-Spin Energy  =      -2.3736978267781592 [Eh]
	 SCS Correlation Energy    =      -2.5873489878030256 [Eh]
	 SCS Total Energy          =    -573.0858633303713532 [Eh]
	-----------------------------------------------------------

  Dipole Moment: [D]
     X:    -1.0822      Y:    -0.9904      Z:     0.0296     Total:     1.4673

*** Psi4 exiting successfully. Buy a developer a beer!
