                               Psi4 1.4a3.dev225

  ==> Input File <==

--------------------------------------------------------------------------
#psi4
#
memory 32 gb

molecule  {
0 1
  N        0.0801310     2.5312230    -0.3913130
  N       -1.9006720     0.7782080     0.6229160
  C        0.4423453     0.0873530    -0.0059946
  C        0.8960730     1.4188800    -0.1658420
  C        2.6063130    -0.8406050     0.1180930
  C        1.2173430    -0.9692250     0.1590540
  C       -1.1077440    -0.1233710    -0.0042630
  C        2.2932590     1.5435480    -0.2281840
  C        3.1306880     0.4434260    -0.0762550
  C        3.5085210    -2.0251140     0.3469700
  C       -1.6410700    -1.2638430    -0.6279320
  C       -3.0109220    -1.5027310    -0.5649580
  C       -3.2228950     0.5407920     0.6622730
  C       -3.8232840    -0.5849970     0.1005040
  H        0.7834850    -1.9532010     0.3364590
  H        2.7242150     2.5332940    -0.3759070
  H        4.2098530     0.5856070    -0.1209690
  H        3.8288200    -2.0891060     1.3929170
  H        2.9990460    -2.9607700     0.0984840
  H        4.4097140    -1.9577250    -0.2701360
  H       -0.9841790    -1.9393540    -1.1680850
  H        0.5549050     3.4095210    -0.2083710
  H       -0.8007830     2.4663430     0.1128890
  H       -3.4393090    -2.3812410    -1.0417430
  H       -3.8215100     1.2923600     1.1747000
  H       -4.8979480    -0.7268890     0.1711280
units angstrom
no_reorient  #important for SAPT in psi4, default
symmetry c1  #important for SAPT in psi4, default
}

set PROPERTIES_ORIGIN ["COM"]
properties('MP2/aug-cc-pvtz', properties = ['dipole'])
--------------------------------------------------------------------------

    Molecular point group: c1
  Charge       = 0
  Multiplicity = 1
  Basis Set: AUG-CC-PVTZ
    Blend: AUG-CC-PVTZ
  Basis Set: (AUG-CC-PVTZ AUX)
    Blend: AUG-CC-PVTZ-JKFIT

    Orbital Energies [Eh]
    ---------------------

    Doubly Occupied:

       1A    -15.568920     2A    -15.550148     3A    -11.292086
       4A    -11.280776     5A    -11.273996     6A    -11.262371
       7A    -11.241997     8A    -11.240414     9A    -11.232799
      10A    -11.228748    11A    -11.225449    12A    -11.222916
      13A    -11.220358    14A    -11.218465    15A     -1.259197
      16A     -1.211501    17A     -1.139678    18A     -1.087685
      19A     -1.056987    20A     -1.016471    21A     -1.000159
      22A     -0.916205    23A     -0.863099    24A     -0.860624
      25A     -0.813526    26A     -0.786843    27A     -0.710125
      28A     -0.689410    29A     -0.682587    30A     -0.657830
      31A     -0.647621    32A     -0.611637    33A     -0.605432
      34A     -0.589184    35A     -0.586427    36A     -0.572140
      37A     -0.567931    38A     -0.546896    39A     -0.533616
      40A     -0.528918    41A     -0.515306    42A     -0.496198
      43A     -0.474601    44A     -0.438917    45A     -0.415171
      46A     -0.386898    47A     -0.365299    48A     -0.324134
      49A     -0.277906

  @DF-RHF Final Energy:  -570.49155416204235

   => Energetics <=

    Nuclear Repulsion Energy =            812.0488076334125935
    One-Electron Energy =               -2384.4895248546454241
    Two-Electron Energy =                1001.9491630591903686
    Total Energy =                       -570.4915541620423483
  Basis Set: (AUG-CC-PVTZ AUX)
    Blend: AUG-CC-PVTZ-RI
    Molecular point group: c1

    Geometry (in Angstrom), charge = 0, multiplicity = 1:

       Center              X                  Y                   Z               Mass
    ------------   -----------------  -----------------  -----------------  -----------------
         N            0.104138474426     2.513399626082    -0.390807285526    14.003074004430
         N           -1.876664525574     0.760384626082     0.623421714474    14.003074004430
         C            0.466352774426     0.069529626082    -0.005488885526    12.000000000000
         C            0.920080474426     1.401056626082    -0.165336285526    12.000000000000
         C            2.630320474426    -0.858428373918     0.118598714474    12.000000000000
         C            1.241350474426    -0.987048373918     0.159559714474    12.000000000000
         C           -1.083736525574    -0.141194373918    -0.003757285526    12.000000000000
         C            2.317266474426     1.525724626082    -0.227678285526    12.000000000000
         C            3.154695474426     0.425602626082    -0.075749285526    12.000000000000
         C            3.532528474426    -2.042937373918     0.347475714474    12.000000000000
         C           -1.617062525574    -1.281666373918    -0.627426285526    12.000000000000
         C           -2.986914525574    -1.520554373918    -0.564452285526    12.000000000000
         C           -3.198887525574     0.522968626082     0.662778714474    12.000000000000
         C           -3.799276525574    -0.602820373918     0.101009714474    12.000000000000
         H            0.807492474426    -1.971024373918     0.336964714474     1.007825032230
         H            2.748222474426     2.515470626082    -0.375401285526     1.007825032230
         H            4.233860474426     0.567783626082    -0.120463285526     1.007825032230
         H            3.852827474426    -2.106929373918     1.393422714474     1.007825032230
         H            3.023053474426    -2.978593373918     0.098989714474     1.007825032230
         H            4.433721474426    -1.975548373918    -0.269630285526     1.007825032230
         H           -0.960171525574    -1.957177373918    -1.167579285526     1.007825032230
         H            0.578912474426     3.391697626082    -0.207865285526     1.007825032230
         H           -0.776775525574     2.448519626082     0.113394714474     1.007825032230
         H           -3.415301525574    -2.399064373918    -1.041237285526     1.007825032230
         H           -3.797502525574     1.274536626082     1.175205714474     1.007825032230
         H           -4.873940525574    -0.744712373918     0.171633714474     1.007825032230

  Basis Set: AUG-CC-PVTZ
    Blend: AUG-CC-PVTZ
  Basis Set: (AUG-CC-PVTZ AUX)
    Blend: AUG-CC-PVTZ-JKFIT
	 Reference Energy          =    -570.4915541620423483 [Eh]
	 Singles Energy            =      -0.0000000000000000 [Eh]
	 Same-Spin Energy          =      -0.6402694399769602 [Eh]
	 Opposite-Spin Energy      =      -1.9768703016894613 [Eh]
	 Correlation Energy        =      -2.6171397416664215 [Eh]
	 Total Energy              =    -573.1086939037087404 [Eh]

	 ================> DF-SCS-MP2 Energies <==================
	-----------------------------------------------------------
	 SCS Same-Spin Scale       =       0.3333333333333333 [-]
	 SCS Opposite-Spin Scale   =       1.2000000000000000 [-]
	 SCS Same-Spin Energy      =      -0.2134231466589867 [Eh]
	 SCS Opposite-Spin Energy  =      -2.3722443620273537 [Eh]
	 SCS Correlation Energy    =      -2.5856675086863405 [Eh]
	 SCS Total Energy          =    -573.0772216707287043 [Eh]
	-----------------------------------------------------------

  Dipole Moment: [D]
     X:    -1.1926      Y:    -0.9645      Z:     0.0915     Total:     1.5365

*** Psi4 exiting successfully. Buy a developer a beer!
