                               Psi4 1.4a3.dev225

  ==> Input File <==

--------------------------------------------------------------------------
#psi4
#
memory 32 gb

molecule  {
0 1
  N        0.0801310     2.5312230    -0.3913130
  N       -1.8976467     0.7582268     0.6110088
  C        0.3499640     0.1224320    -0.0065570
  C        0.8960730     1.4188800    -0.1658420
  C        2.6063130    -0.8406050     0.1180930
  C        1.2173430    -0.9692250     0.1590540
  C       -1.1077440    -0.1233710    -0.0042630
  C        2.2932590     1.5435480    -0.2281840
  C        3.1306880     0.4434260    -0.0762550
  C        3.5085210    -2.0251140     0.3469700
  C       -1.6410700    -1.2638430    -0.6279320
  C       -3.0109220    -1.5027310    -0.5649580
  C       -3.2228950     0.5407920     0.6622730
  C       -3.8232840    -0.5849970     0.1005040
  H        0.7834850    -1.9532010     0.3364590
  H        2.7242150     2.5332940    -0.3759070
  H        4.2098530     0.5856070    -0.1209690
  H        3.8288200    -2.0891060     1.3929170
  H        2.9990460    -2.9607700     0.0984840
  H        4.4097140    -1.9577250    -0.2701360
  H       -0.9841790    -1.9393540    -1.1680850
  H        0.5549050     3.4095210    -0.2083710
  H       -0.8007830     2.4663430     0.1128890
  H       -3.4393090    -2.3812410    -1.0417430
  H       -3.8215100     1.2923600     1.1747000
  H       -4.8979480    -0.7268890     0.1711280
units angstrom
no_reorient  #important for SAPT in psi4, default
symmetry c1  #important for SAPT in psi4, default
}

set PROPERTIES_ORIGIN ["COM"]
properties('MP2/aug-cc-pvtz', properties = ['dipole'])
--------------------------------------------------------------------------

    Molecular point group: c1
  Charge       = 0
  Multiplicity = 1
  Basis Set: AUG-CC-PVTZ
    Blend: AUG-CC-PVTZ
  Basis Set: (AUG-CC-PVTZ AUX)
    Blend: AUG-CC-PVTZ-JKFIT

    Orbital Energies [Eh]
    ---------------------

    Doubly Occupied:

       1A    -15.564599     2A    -15.547922     3A    -11.286205
       4A    -11.280119     5A    -11.275209     6A    -11.261449
       7A    -11.241618     8A    -11.240330     9A    -11.233214
      10A    -11.232372    11A    -11.231986    12A    -11.226536
      13A    -11.222632    14A    -11.219414    15A     -1.265445
      16A     -1.210887    17A     -1.131530    18A     -1.087562
      19A     -1.063151    20A     -1.016051    21A     -0.993003
      22A     -0.915442    23A     -0.870714    24A     -0.862585
      25A     -0.815455    26A     -0.783590    27A     -0.709613
      28A     -0.689817    29A     -0.681461    30A     -0.660881
      31A     -0.650724    32A     -0.614227    33A     -0.600533
      34A     -0.588735    35A     -0.581966    36A     -0.574045
      37A     -0.570098    38A     -0.550094    39A     -0.532278
      40A     -0.529712    41A     -0.513461    42A     -0.493480
      43A     -0.486036    44A     -0.434688    45A     -0.415234
      46A     -0.388425    47A     -0.365556    48A     -0.316770
      49A     -0.278676

  @DF-RHF Final Energy:  -570.50256155099510

   => Energetics <=

    Nuclear Repulsion Energy =            812.5334153452530472
    One-Electron Energy =               -2385.4608894720709031
    Two-Electron Energy =                1002.4249125758226455
    Total Energy =                       -570.5025615509950967
  Basis Set: (AUG-CC-PVTZ AUX)
    Blend: AUG-CC-PVTZ-RI
    Molecular point group: c1

    Geometry (in Angstrom), charge = 0, multiplicity = 1:

       Center              X                  Y                   Z               Mass
    ------------   -----------------  -----------------  -----------------  -----------------
         N            0.109929956338     2.512632924613    -0.389864938121    14.003074004430
         N           -1.867847743662     0.739636724613     0.612456861879    14.003074004430
         C            0.379762956338     0.103841924613    -0.005108938121    12.000000000000
         C            0.925871956338     1.400289924613    -0.164393938121    12.000000000000
         C            2.636111956338    -0.859195075387     0.119541061879    12.000000000000
         C            1.247141956338    -0.987815075387     0.160502061879    12.000000000000
         C           -1.077945043662    -0.141961075387    -0.002814938121    12.000000000000
         C            2.323057956338     1.524957924613    -0.226735938121    12.000000000000
         C            3.160486956338     0.424835924613    -0.074806938121    12.000000000000
         C            3.538319956338    -2.043704075387     0.348418061879    12.000000000000
         C           -1.611271043662    -1.282433075387    -0.626483938121    12.000000000000
         C           -2.981123043662    -1.521321075387    -0.563509938121    12.000000000000
         C           -3.193096043662     0.522201924613     0.663721061879    12.000000000000
         C           -3.793485043662    -0.603587075387     0.101952061879    12.000000000000
         H            0.813283956338    -1.971791075387     0.337907061879     1.007825032230
         H            2.754013956338     2.514703924613    -0.374458938121     1.007825032230
         H            4.239651956338     0.567016924613    -0.119520938121     1.007825032230
         H            3.858618956338    -2.107696075387     1.394365061879     1.007825032230
         H            3.028844956338    -2.979360075387     0.099932061879     1.007825032230
         H            4.439512956338    -1.976315075387    -0.268687938121     1.007825032230
         H           -0.954380043662    -1.957944075387    -1.166636938121     1.007825032230
         H            0.584703956338     3.390930924613    -0.206922938121     1.007825032230
         H           -0.770984043662     2.447752924613     0.114337061879     1.007825032230
         H           -3.409510043662    -2.399831075387    -1.040294938121     1.007825032230
         H           -3.791711043662     1.273769924613     1.176148061879     1.007825032230
         H           -4.868149043662    -0.745479075387     0.172576061879     1.007825032230

  Basis Set: AUG-CC-PVTZ
    Blend: AUG-CC-PVTZ
  Basis Set: (AUG-CC-PVTZ AUX)
    Blend: AUG-CC-PVTZ-JKFIT
	 Reference Energy          =    -570.5025615509950967 [Eh]
	 Singles Energy            =      -0.0000000000000000 [Eh]
	 Same-Spin Energy          =      -0.6406251008946444 [Eh]
	 Opposite-Spin Energy      =      -1.9770470846170027 [Eh]
	 Correlation Energy        =      -2.6176721855116472 [Eh]
	 Total Energy              =    -573.1202337365067478 [Eh]

	 ================> DF-SCS-MP2 Energies <==================
	-----------------------------------------------------------
	 SCS Same-Spin Scale       =       0.3333333333333333 [-]
	 SCS Opposite-Spin Scale   =       1.2000000000000000 [-]
	 SCS Same-Spin Energy      =      -0.2135417002982148 [Eh]
	 SCS Opposite-Spin Energy  =      -2.3724565015404031 [Eh]
	 SCS Correlation Energy    =      -2.5859982018386178 [Eh]
	 SCS Total Energy          =    -573.0885597528337030 [Eh]
	-----------------------------------------------------------

  Dipole Moment: [D]
     X:    -1.1024      Y:    -0.9255      Z:     0.0994     Total:     1.4428

*** Psi4 exiting successfully. Buy a developer a beer!
