                               Psi4 1.4a3.dev225

  ==> Input File <==

--------------------------------------------------------------------------
#psi4
#
memory 32 gb

molecule  {
0 1
  N        0.0801310     2.5312230    -0.3913130
  N       -1.9006720     0.7782080     0.6229160
  C        0.3499640     0.1224320    -0.0065570
  C        0.8960730     1.4188800    -0.1658420
  C        2.6063130    -0.8406050     0.1180930
  C        1.2173430    -0.9692250     0.1590540
  C       -1.1077440    -0.1233710    -0.0042630
  C        2.2932590     1.5435480    -0.2281840
  C        3.2511023     0.2852389    -0.0544091
  C        3.5085210    -2.0251140     0.3469700
  C       -1.6410700    -1.2638430    -0.6279320
  C       -3.0109220    -1.5027310    -0.5649580
  C       -3.2228950     0.5407920     0.6622730
  C       -3.8232840    -0.5849970     0.1005040
  H        0.7834850    -1.9532010     0.3364590
  H        2.7242150     2.5332940    -0.3759070
  H        4.2098530     0.5856070    -0.1209690
  H        3.8288200    -2.0891060     1.3929170
  H        2.9990460    -2.9607700     0.0984840
  H        4.4097140    -1.9577250    -0.2701360
  H       -0.9841790    -1.9393540    -1.1680850
  H        0.5549050     3.4095210    -0.2083710
  H       -0.8007830     2.4663430     0.1128890
  H       -3.4393090    -2.3812410    -1.0417430
  H       -3.8215100     1.2923600     1.1747000
  H       -4.8979480    -0.7268890     0.1711280
units angstrom
no_reorient  #important for SAPT in psi4, default
symmetry c1  #important for SAPT in psi4, default
}

set PROPERTIES_ORIGIN ["COM"]
properties('MP2/aug-cc-pvtz', properties = ['dipole'])
--------------------------------------------------------------------------

    Molecular point group: c1
  Charge       = 0
  Multiplicity = 1
  Basis Set: AUG-CC-PVTZ
    Blend: AUG-CC-PVTZ
  Basis Set: (AUG-CC-PVTZ AUX)
    Blend: AUG-CC-PVTZ-JKFIT

    Orbital Energies [Eh]
    ---------------------

    Doubly Occupied:

       1A    -15.570568     2A    -15.543643     3A    -11.291361
       4A    -11.282374     5A    -11.271397     6A    -11.264532
       7A    -11.244488     8A    -11.243833     9A    -11.242694
      10A    -11.237416    11A    -11.231125    12A    -11.230335
      13A    -11.221578    14A    -11.215307    15A     -1.263517
      16A     -1.206751    17A     -1.134488    18A     -1.090324
      19A     -1.068649    20A     -1.009921    21A     -0.980826
      22A     -0.915578    23A     -0.879839    24A     -0.863959
      25A     -0.819335    26A     -0.781216    27A     -0.711512
      28A     -0.693038    29A     -0.683650    30A     -0.662286
      31A     -0.652566    32A     -0.619411    33A     -0.605953
      34A     -0.588704    35A     -0.580726    36A     -0.573216
      37A     -0.570138    38A     -0.549596    39A     -0.535750
      40A     -0.525291    41A     -0.508728    42A     -0.504082
      43A     -0.456808    44A     -0.433580    45A     -0.421297
      46A     -0.388858    47A     -0.365342    48A     -0.303523
      49A     -0.289290

  @DF-RHF Final Energy:  -570.45813669367431

   => Energetics <=

    Nuclear Repulsion Energy =            810.5581355746951431
    One-Electron Energy =               -2381.3757495086429117
    Two-Electron Energy =                1000.3594772402734634
    Total Energy =                       -570.4581366936743052
  Basis Set: (AUG-CC-PVTZ AUX)
    Blend: AUG-CC-PVTZ-RI
    Molecular point group: c1

    Geometry (in Angstrom), charge = 0, multiplicity = 1:

       Center              X                  Y                   Z               Mass
    ------------   -----------------  -----------------  -----------------  -----------------
         N            0.102311228845     2.521424052001    -0.392194585542    14.003074004430
         N           -1.878491771155     0.768409052001     0.622034414458    14.003074004430
         C            0.372144228845     0.112633052001    -0.007438585542    12.000000000000
         C            0.918253228845     1.409081052001    -0.166723585542    12.000000000000
         C            2.628493228845    -0.850403947999     0.117211414458    12.000000000000
         C            1.239523228845    -0.979023947999     0.158172414458    12.000000000000
         C           -1.085563771155    -0.133169947999    -0.005144585542    12.000000000000
         C            2.315439228845     1.533749052001    -0.229065585542    12.000000000000
         C            3.273282528845     0.275439952001    -0.055290685542    12.000000000000
         C            3.530701228845    -2.034912947999     0.346088414458    12.000000000000
         C           -1.618889771155    -1.273641947999    -0.628813585542    12.000000000000
         C           -2.988741771155    -1.512529947999    -0.565839585542    12.000000000000
         C           -3.200714771155     0.530993052001     0.661391414458    12.000000000000
         C           -3.801103771155    -0.594795947999     0.099622414458    12.000000000000
         H            0.805665228845    -1.962999947999     0.335577414458     1.007825032230
         H            2.746395228845     2.523495052001    -0.376788585542     1.007825032230
         H            4.232033228845     0.575808052001    -0.121850585542     1.007825032230
         H            3.851000228845    -2.098904947999     1.392035414458     1.007825032230
         H            3.021226228845    -2.970568947999     0.097602414458     1.007825032230
         H            4.431894228845    -1.967523947999    -0.271017585542     1.007825032230
         H           -0.961998771155    -1.949152947999    -1.168966585542     1.007825032230
         H            0.577085228845     3.399722052001    -0.209252585542     1.007825032230
         H           -0.778602771155     2.456544052001     0.112007414458     1.007825032230
         H           -3.417128771155    -2.391039947999    -1.042624585542     1.007825032230
         H           -3.799329771155     1.282561052001     1.173818414458     1.007825032230
         H           -4.875767771155    -0.736687947999     0.170246414458     1.007825032230

  Basis Set: AUG-CC-PVTZ
    Blend: AUG-CC-PVTZ
  Basis Set: (AUG-CC-PVTZ AUX)
    Blend: AUG-CC-PVTZ-JKFIT
	 Reference Energy          =    -570.4581366936743052 [Eh]
	 Singles Energy            =      -0.0000000000000000 [Eh]
	 Same-Spin Energy          =      -0.6409093346019296 [Eh]
	 Opposite-Spin Energy      =      -1.9807951396901322 [Eh]
	 Correlation Energy        =      -2.6217044742920619 [Eh]
	 Total Energy              =    -573.0798411679663786 [Eh]

	 ================> DF-SCS-MP2 Energies <==================
	-----------------------------------------------------------
	 SCS Same-Spin Scale       =       0.3333333333333333 [-]
	 SCS Opposite-Spin Scale   =       1.2000000000000000 [-]
	 SCS Same-Spin Energy      =      -0.2136364448673098 [Eh]
	 SCS Opposite-Spin Energy  =      -2.3769541676281585 [Eh]
	 SCS Correlation Energy    =      -2.5905906124954683 [Eh]
	 SCS Total Energy          =    -573.0487273061697806 [Eh]
	-----------------------------------------------------------

  Dipole Moment: [D]
     X:    -1.2744      Y:    -1.0549      Z:     0.0865     Total:     1.6566

*** Psi4 exiting successfully. Buy a developer a beer!
