                               Psi4 1.4a3.dev225

  ==> Input File <==

--------------------------------------------------------------------------
#psi4
#
memory 32 gb

molecule  {
0 1
  N        0.0801310     2.5312230    -0.3913130
  N       -1.9272411     0.8963652     0.6944838
  C        0.3499640     0.1224320    -0.0065570
  C        0.8960730     1.4188800    -0.1658420
  C        2.6063130    -0.8406050     0.1180930
  C        1.2173430    -0.9692250     0.1590540
  C       -1.1077440    -0.1233710    -0.0042630
  C        2.2932590     1.5435480    -0.2281840
  C        3.1306880     0.4434260    -0.0762550
  C        3.5085210    -2.0251140     0.3469700
  C       -1.6410700    -1.2638430    -0.6279320
  C       -3.0109220    -1.5027310    -0.5649580
  C       -3.2228950     0.5407920     0.6622730
  C       -3.8232840    -0.5849970     0.1005040
  H        0.7834850    -1.9532010     0.3364590
  H        2.7242150     2.5332940    -0.3759070
  H        4.2098530     0.5856070    -0.1209690
  H        3.8288200    -2.0891060     1.3929170
  H        2.9990460    -2.9607700     0.0984840
  H        4.4097140    -1.9577250    -0.2701360
  H       -0.9841790    -1.9393540    -1.1680850
  H        0.5549050     3.4095210    -0.2083710
  H       -0.8007830     2.4663430     0.1128890
  H       -3.4393090    -2.3812410    -1.0417430
  H       -3.8215100     1.2923600     1.1747000
  H       -4.8979480    -0.7268890     0.1711280
units angstrom
no_reorient  #important for SAPT in psi4, default
symmetry c1  #important for SAPT in psi4, default
}

set PROPERTIES_ORIGIN ["COM"]
properties('MP2/aug-cc-pvtz', properties = ['dipole'])
--------------------------------------------------------------------------

    Molecular point group: c1
  Charge       = 0
  Multiplicity = 1
  Basis Set: AUG-CC-PVTZ
    Blend: AUG-CC-PVTZ
  Basis Set: (AUG-CC-PVTZ AUX)
    Blend: AUG-CC-PVTZ-JKFIT

    Orbital Energies [Eh]
    ---------------------

    Doubly Occupied:

       1A    -15.583616     2A    -15.546957     3A    -11.301567
       4A    -11.281508     5A    -11.276405     6A    -11.267718
       7A    -11.243522     8A    -11.241793     9A    -11.234967
      10A    -11.233699    11A    -11.233573    12A    -11.227188
      13A    -11.223212    14A    -11.220024    15A     -1.239389
      16A     -1.208649    17A     -1.132593    18A     -1.091415
      19A     -1.060919    20A     -1.016637    21A     -0.989160
      22A     -0.916126    23A     -0.873819    24A     -0.855830
      25A     -0.809722    26A     -0.781663    27A     -0.706494
      28A     -0.690049    29A     -0.681588    30A     -0.659084
      31A     -0.644809    32A     -0.609981    33A     -0.600221
      34A     -0.590401    35A     -0.582383    36A     -0.572473
      37A     -0.569223    38A     -0.539321    39A     -0.532345
      40A     -0.527312    41A     -0.510079    42A     -0.491256
      43A     -0.480631    44A     -0.442770    45A     -0.429175
      46A     -0.386038    47A     -0.370170    48A     -0.314763
      49A     -0.277647

  @DF-RHF Final Energy:  -570.47994932081292

   => Energetics <=

    Nuclear Repulsion Energy =            808.9300129466972749
    One-Electron Energy =               -2378.2201575049339226
    Two-Electron Energy =                 998.8101952374236134
    Total Energy =                       -570.4799493208129206
  Basis Set: (AUG-CC-PVTZ AUX)
    Blend: AUG-CC-PVTZ-RI
    Molecular point group: c1

    Geometry (in Angstrom), charge = 0, multiplicity = 1:

       Center              X                  Y                   Z               Mass
    ------------   -----------------  -----------------  -----------------  -----------------
         N            0.112180974613     2.502125799520    -0.396214239019    14.003074004430
         N           -1.895191125387     0.867267999520     0.689582560981    14.003074004430
         C            0.382013974613     0.093334799520    -0.011458239019    12.000000000000
         C            0.928122974613     1.389782799520    -0.170743239019    12.000000000000
         C            2.638362974613    -0.869702200480     0.113191760981    12.000000000000
         C            1.249392974613    -0.998322200480     0.154152760981    12.000000000000
         C           -1.075694025387    -0.152468200480    -0.009164239019    12.000000000000
         C            2.325308974613     1.514450799520    -0.233085239019    12.000000000000
         C            3.162737974613     0.414328799520    -0.081156239019    12.000000000000
         C            3.540570974613    -2.054211200480     0.342068760981    12.000000000000
         C           -1.609020025387    -1.292940200480    -0.632833239019    12.000000000000
         C           -2.978872025387    -1.531828200480    -0.569859239019    12.000000000000
         C           -3.190845025387     0.511694799520     0.657371760981    12.000000000000
         C           -3.791234025387    -0.614094200480     0.095602760981    12.000000000000
         H            0.815534974613    -1.982298200480     0.331557760981     1.007825032230
         H            2.756264974613     2.504196799520    -0.380808239019     1.007825032230
         H            4.241902974613     0.556509799520    -0.125870239019     1.007825032230
         H            3.860869974613    -2.118203200480     1.388015760981     1.007825032230
         H            3.031095974613    -2.989867200480     0.093582760981     1.007825032230
         H            4.441763974613    -1.986822200480    -0.275037239019     1.007825032230
         H           -0.952129025387    -1.968451200480    -1.172986239019     1.007825032230
         H            0.586954974613     3.380423799520    -0.213272239019     1.007825032230
         H           -0.768733025387     2.437245799520     0.107987760981     1.007825032230
         H           -3.407259025387    -2.410338200480    -1.046644239019     1.007825032230
         H           -3.789460025387     1.263262799520     1.169798760981     1.007825032230
         H           -4.865898025387    -0.755986200480     0.166226760981     1.007825032230

  Basis Set: AUG-CC-PVTZ
    Blend: AUG-CC-PVTZ
  Basis Set: (AUG-CC-PVTZ AUX)
    Blend: AUG-CC-PVTZ-JKFIT
	 Reference Energy          =    -570.4799493208129206 [Eh]
	 Singles Energy            =      -0.0000000000000000 [Eh]
	 Same-Spin Energy          =      -0.6422146757693625 [Eh]
	 Opposite-Spin Energy      =      -1.9826350560146471 [Eh]
	 Correlation Energy        =      -2.6248497317840096 [Eh]
	 Total Energy              =    -573.1047990525969453 [Eh]

	 ================> DF-SCS-MP2 Energies <==================
	-----------------------------------------------------------
	 SCS Same-Spin Scale       =       0.3333333333333333 [-]
	 SCS Opposite-Spin Scale   =       1.2000000000000000 [-]
	 SCS Same-Spin Energy      =      -0.2140715585897875 [Eh]
	 SCS Opposite-Spin Energy  =      -2.3791620672175764 [Eh]
	 SCS Correlation Energy    =      -2.5932336258073638 [Eh]
	 SCS Total Energy          =    -573.0731829466202498 [Eh]
	-----------------------------------------------------------

  Dipole Moment: [D]
     X:    -1.0505      Y:    -1.1494      Z:    -0.0308     Total:     1.5574

*** Psi4 exiting successfully. Buy a developer a beer!
