                               Psi4 1.4a3.dev225

  ==> Input File <==

--------------------------------------------------------------------------
#psi4
#
memory 32 gb

molecule  {
0 1
  N        0.0801310     2.5312230    -0.3913130
  N       -1.9006720     0.7782080     0.6229160
  C        0.3499640     0.1224320    -0.0065570
  C        0.8960730     1.4188800    -0.1658420
  C        2.6063130    -0.8406050     0.1180930
  C        1.2173430    -0.9692250     0.1590540
  C       -1.1077440    -0.1233710    -0.0042630
  C        2.2932590     1.5435480    -0.2281840
  C        3.1306880     0.4434260    -0.0762550
  C        3.5085210    -2.0251140     0.3469700
  C       -1.6410700    -1.2638430    -0.6279320
  C       -3.0109220    -1.5027310    -0.5649580
  C       -3.2228950     0.5407920     0.6622730
  C       -3.8232840    -0.5849970     0.1005040
  H        0.7834850    -1.9532010     0.3364590
  H        2.7242150     2.5332940    -0.3759070
  H        4.2098530     0.5856070    -0.1209690
  H        3.8434354    -2.0920260     1.4406440
  H        2.9990460    -2.9607700     0.0984840
  H        4.4097140    -1.9577250    -0.2701360
  H       -0.9841790    -1.9393540    -1.1680850
  H        0.5549050     3.4095210    -0.2083710
  H       -0.8007830     2.4663430     0.1128890
  H       -3.4393090    -2.3812410    -1.0417430
  H       -3.8215100     1.2923600     1.1747000
  H       -4.8979480    -0.7268890     0.1711280
units angstrom
no_reorient  #important for SAPT in psi4, default
symmetry c1  #important for SAPT in psi4, default
}

set PROPERTIES_ORIGIN ["COM"]
properties('MP2/aug-cc-pvtz', properties = ['dipole'])
--------------------------------------------------------------------------

    Molecular point group: c1
  Charge       = 0
  Multiplicity = 1
  Basis Set: AUG-CC-PVTZ
    Blend: AUG-CC-PVTZ
  Basis Set: (AUG-CC-PVTZ AUX)
    Blend: AUG-CC-PVTZ-JKFIT

    Orbital Energies [Eh]
    ---------------------

    Doubly Occupied:

       1A    -15.567646     2A    -15.547948     3A    -11.288801
       4A    -11.280327     5A    -11.275674     6A    -11.262501
       7A    -11.241709     8A    -11.240946     9A    -11.233737
      10A    -11.232826    11A    -11.232526    12A    -11.227040
      13A    -11.225406    14A    -11.222902    15A     -1.261124
      16A     -1.210856    17A     -1.131784    18A     -1.087940
      19A     -1.063040    20A     -1.015216    21A     -0.992444
      22A     -0.912798    23A     -0.870692    24A     -0.862156
      25A     -0.814891    26A     -0.783020    27A     -0.708812
      28A     -0.689967    29A     -0.681544    30A     -0.660560
      31A     -0.650225    32A     -0.613572    33A     -0.600807
      34A     -0.589136    35A     -0.582127    36A     -0.572741
      37A     -0.564033    38A     -0.546909    39A     -0.532578
      40A     -0.529740    41A     -0.512761    42A     -0.492549
      43A     -0.485976    44A     -0.434651    45A     -0.418871
      46A     -0.387653    47A     -0.366707    48A     -0.316620
      49A     -0.278526

  @DF-RHF Final Energy:  -570.49969022156461

   => Energetics <=

    Nuclear Repulsion Energy =            811.7954288054049812
    One-Electron Energy =               -2383.9842029966498558
    Two-Electron Energy =                1001.6890839696802686
    Total Energy =                       -570.4996902215646060
  Basis Set: (AUG-CC-PVTZ AUX)
    Blend: AUG-CC-PVTZ-RI
    Molecular point group: c1

    Geometry (in Angstrom), charge = 0, multiplicity = 1:

       Center              X                  Y                   Z               Mass
    ------------   -----------------  -----------------  -----------------  -----------------
         N            0.110080058058     2.511129093540    -0.391031900705    14.003074004430
         N           -1.870722941942     0.758114093540     0.623197099295    14.003074004430
         C            0.379913058058     0.102338093540    -0.006275900705    12.000000000000
         C            0.926022058058     1.398786093540    -0.165560900705    12.000000000000
         C            2.636262058058    -0.860698906460     0.118374099295    12.000000000000
         C            1.247292058058    -0.989318906460     0.159335099295    12.000000000000
         C           -1.077794941942    -0.143464906460    -0.003981900705    12.000000000000
         C            2.323208058058     1.523454093540    -0.227902900705    12.000000000000
         C            3.160637058058     0.423332093540    -0.075973900705    12.000000000000
         C            3.538470058058    -2.045207906460     0.347251099295    12.000000000000
         C           -1.611120941942    -1.283936906460    -0.627650900705    12.000000000000
         C           -2.980972941942    -1.522824906460    -0.564676900705    12.000000000000
         C           -3.192945941942     0.520698093540     0.662554099295    12.000000000000
         C           -3.793334941942    -0.605090906460     0.100785099295    12.000000000000
         H            0.813434058058    -1.973294906460     0.336740099295     1.007825032230
         H            2.754164058058     2.513200093540    -0.375625900705     1.007825032230
         H            4.239802058058     0.565513093540    -0.120687900705     1.007825032230
         H            3.873384458058    -2.112119906460     1.440925099295     1.007825032230
         H            3.028995058058    -2.980863906460     0.098765099295     1.007825032230
         H            4.439663058058    -1.977818906460    -0.269854900705     1.007825032230
         H           -0.954229941942    -1.959447906460    -1.167803900705     1.007825032230
         H            0.584854058058     3.389427093540    -0.208089900705     1.007825032230
         H           -0.770833941942     2.446249093540     0.113170099295     1.007825032230
         H           -3.409359941942    -2.401334906460    -1.041461900705     1.007825032230
         H           -3.791560941942     1.272266093540     1.174981099295     1.007825032230
         H           -4.867998941942    -0.746982906460     0.171409099295     1.007825032230

  Basis Set: AUG-CC-PVTZ
    Blend: AUG-CC-PVTZ
  Basis Set: (AUG-CC-PVTZ AUX)
    Blend: AUG-CC-PVTZ-JKFIT
	 Reference Energy          =    -570.4996902215646060 [Eh]
	 Singles Energy            =      -0.0000000000000000 [Eh]
	 Same-Spin Energy          =      -0.6408204441209896 [Eh]
	 Opposite-Spin Energy      =      -1.9779936466701256 [Eh]
	 Correlation Energy        =      -2.6188140907911150 [Eh]
	 Total Energy              =    -573.1185043123557534 [Eh]

	 ================> DF-SCS-MP2 Energies <==================
	-----------------------------------------------------------
	 SCS Same-Spin Scale       =       0.3333333333333333 [-]
	 SCS Opposite-Spin Scale   =       1.2000000000000000 [-]
	 SCS Same-Spin Energy      =      -0.2136068147069965 [Eh]
	 SCS Opposite-Spin Energy  =      -2.3735923760041504 [Eh]
	 SCS Correlation Energy    =      -2.5871991907111469 [Eh]
	 SCS Total Energy          =    -573.0868894122758093 [Eh]
	-----------------------------------------------------------

  Dipole Moment: [D]
     X:    -1.1216      Y:    -0.9442      Z:     0.0530     Total:     1.4671

*** Psi4 exiting successfully. Buy a developer a beer!
