                               Psi4 1.4a3.dev225

  ==> Input File <==

--------------------------------------------------------------------------
#psi4
#
memory 32 gb

molecule  {
0 1
  N        0.0801310     2.5312230    -0.3913130
  N       -1.9006720     0.7782080     0.6229160
  C        0.3499640     0.1224320    -0.0065570
  C        0.8960730     1.4188800    -0.1658420
  C        2.6063130    -0.8406050     0.1180930
  C        1.2173430    -0.9692250     0.1590540
  C       -1.1077440    -0.1233710    -0.0042630
  C        2.2932590     1.5435480    -0.2281840
  C        3.1607916     0.4038792    -0.0707935
  C        3.5085210    -2.0251140     0.3469700
  C       -1.6410700    -1.2638430    -0.6279320
  C       -3.0109220    -1.5027310    -0.5649580
  C       -3.2228950     0.5407920     0.6622730
  C       -3.8232840    -0.5849970     0.1005040
  H        0.7834850    -1.9532010     0.3364590
  H        2.7242150     2.5332940    -0.3759070
  H        4.2098530     0.5856070    -0.1209690
  H        3.8288200    -2.0891060     1.3929170
  H        2.9990460    -2.9607700     0.0984840
  H        4.4097140    -1.9577250    -0.2701360
  H       -0.9841790    -1.9393540    -1.1680850
  H        0.5549050     3.4095210    -0.2083710
  H       -0.8007830     2.4663430     0.1128890
  H       -3.4393090    -2.3812410    -1.0417430
  H       -3.8215100     1.2923600     1.1747000
  H       -4.8979480    -0.7268890     0.1711280
units angstrom
no_reorient  #important for SAPT in psi4, default
symmetry c1  #important for SAPT in psi4, default
}

set PROPERTIES_ORIGIN ["COM"]
properties('MP2/aug-cc-pvtz', properties = ['dipole'])
--------------------------------------------------------------------------

    Molecular point group: c1
  Charge       = 0
  Multiplicity = 1
  Basis Set: AUG-CC-PVTZ
    Blend: AUG-CC-PVTZ
  Basis Set: (AUG-CC-PVTZ AUX)
    Blend: AUG-CC-PVTZ-JKFIT

    Orbital Energies [Eh]
    ---------------------

    Doubly Occupied:

       1A    -15.568304     2A    -15.546579     3A    -11.289361
       4A    -11.280775     5A    -11.274353     6A    -11.262948
       7A    -11.242346     8A    -11.241598     9A    -11.235535
      10A    -11.233996    11A    -11.232278    12A    -11.225671
      13A    -11.225139    14A    -11.218390    15A     -1.261633
      16A     -1.209503    17A     -1.131744    18A     -1.088472
      19A     -1.063848    20A     -1.012276    21A     -0.990922
      22A     -0.915815    23A     -0.872836    24A     -0.862544
      25A     -0.816310    26A     -0.782120    27A     -0.709280
      28A     -0.688342    29A     -0.683279    30A     -0.660881
      31A     -0.651126    32A     -0.612970    33A     -0.601228
      34A     -0.590077    35A     -0.581993    36A     -0.573999
      37A     -0.570394    38A     -0.548540    39A     -0.531374
      40A     -0.528894    41A     -0.511867    42A     -0.492859
      43A     -0.486548    44A     -0.434808    45A     -0.419459
      46A     -0.387765    47A     -0.365610    48A     -0.312090
      49A     -0.281963

  @DF-RHF Final Energy:  -570.49826520579495

   => Energetics <=

    Nuclear Repulsion Energy =            811.6070621335011310
    One-Electron Energy =               -2383.5893609432450830
    Two-Electron Energy =                1001.4840336039490012
    Total Energy =                       -570.4982652057949508
  Basis Set: (AUG-CC-PVTZ AUX)
    Blend: AUG-CC-PVTZ-RI
    Molecular point group: c1

    Geometry (in Angstrom), charge = 0, multiplicity = 1:

       Center              X                  Y                   Z               Mass
    ------------   -----------------  -----------------  -----------------  -----------------
         N            0.108197856303     2.513690845995    -0.391126618413    14.003074004430
         N           -1.872605143697     0.760675845995     0.623102381587    14.003074004430
         C            0.378030856303     0.104899845995    -0.006370618413    12.000000000000
         C            0.924139856303     1.401347845995    -0.165655618413    12.000000000000
         C            2.634379856303    -0.858137154005     0.118279381587    12.000000000000
         C            1.245409856303    -0.986757154005     0.159240381587    12.000000000000
         C           -1.079677143697    -0.140903154005    -0.004076618413    12.000000000000
         C            2.321325856303     1.526015845995    -0.227997618413    12.000000000000
         C            3.188858456303     0.386347045995    -0.070607118413    12.000000000000
         C            3.536587856303    -2.042646154005     0.347156381587    12.000000000000
         C           -1.613003143697    -1.281375154005    -0.627745618413    12.000000000000
         C           -2.982855143697    -1.520263154005    -0.564771618413    12.000000000000
         C           -3.194828143697     0.523259845995     0.662459381587    12.000000000000
         C           -3.795217143697    -0.602529154005     0.100690381587    12.000000000000
         H            0.811551856303    -1.970733154005     0.336645381587     1.007825032230
         H            2.752281856303     2.515761845995    -0.375720618413     1.007825032230
         H            4.237919856303     0.568074845995    -0.120782618413     1.007825032230
         H            3.856886856303    -2.106638154005     1.393103381587     1.007825032230
         H            3.027112856303    -2.978302154005     0.098670381587     1.007825032230
         H            4.437780856303    -1.975257154005    -0.269949618413     1.007825032230
         H           -0.956112143697    -1.956886154005    -1.167898618413     1.007825032230
         H            0.582971856303     3.391988845995    -0.208184618413     1.007825032230
         H           -0.772716143697     2.448810845995     0.113075381587     1.007825032230
         H           -3.411242143697    -2.398773154005    -1.041556618413     1.007825032230
         H           -3.793443143697     1.274827845995     1.174886381587     1.007825032230
         H           -4.869881143697    -0.744421154005     0.171314381587     1.007825032230

  Basis Set: AUG-CC-PVTZ
    Blend: AUG-CC-PVTZ
  Basis Set: (AUG-CC-PVTZ AUX)
    Blend: AUG-CC-PVTZ-JKFIT
	 Reference Energy          =    -570.4982652057949508 [Eh]
	 Singles Energy            =      -0.0000000000000000 [Eh]
	 Same-Spin Energy          =      -0.6408922819057021 [Eh]
	 Opposite-Spin Energy      =      -1.9780971413430508 [Eh]
	 Correlation Energy        =      -2.6189894232487529 [Eh]
	 Total Energy              =    -573.1172546290437140 [Eh]

	 ================> DF-SCS-MP2 Energies <==================
	-----------------------------------------------------------
	 SCS Same-Spin Scale       =       0.3333333333333333 [-]
	 SCS Opposite-Spin Scale   =       1.2000000000000000 [-]
	 SCS Same-Spin Energy      =      -0.2136307606352340 [Eh]
	 SCS Opposite-Spin Energy  =      -2.3737165696116609 [Eh]
	 SCS Correlation Energy    =      -2.5873473302468950 [Eh]
	 SCS Total Energy          =    -573.0856125360418218 [Eh]
	-----------------------------------------------------------

  Dipole Moment: [D]
     X:    -1.1434      Y:    -0.9832      Z:     0.0795     Total:     1.5100

*** Psi4 exiting successfully. Buy a developer a beer!
