                               Psi4 1.4a3.dev225

  ==> Input File <==

--------------------------------------------------------------------------
#psi4
#
memory 32 gb

molecule  {
0 1
  N        0.0801310     2.5312230    -0.3913130
  N       -1.9006720     0.7782080     0.6229160
  C        0.3499640     0.1224320    -0.0065570
  C        0.8960730     1.4188800    -0.1658420
  C        2.6063130    -0.8406050     0.1180930
  C        1.2173430    -0.9692250     0.1590540
  C       -1.1077440    -0.1233710    -0.0042630
  C        2.2932590     1.5435480    -0.2281840
  C        3.1306880     0.4434260    -0.0762550
  C        3.5085210    -2.0251140     0.3469700
  C       -1.6410700    -1.2638430    -0.6279320
  C       -3.0505225    -1.5291885    -0.5750324
  C       -3.2228950     0.5407920     0.6622730
  C       -3.8232840    -0.5849970     0.1005040
  H        0.7834850    -1.9532010     0.3364590
  H        2.7242150     2.5332940    -0.3759070
  H        4.2098530     0.5856070    -0.1209690
  H        3.8288200    -2.0891060     1.3929170
  H        2.9990460    -2.9607700     0.0984840
  H        4.4097140    -1.9577250    -0.2701360
  H       -0.9841790    -1.9393540    -1.1680850
  H        0.5549050     3.4095210    -0.2083710
  H       -0.8007830     2.4663430     0.1128890
  H       -3.4393090    -2.3812410    -1.0417430
  H       -3.8215100     1.2923600     1.1747000
  H       -4.8979480    -0.7268890     0.1711280
units angstrom
no_reorient  #important for SAPT in psi4, default
symmetry c1  #important for SAPT in psi4, default
}

set PROPERTIES_ORIGIN ["COM"]
properties('MP2/aug-cc-pvtz', properties = ['dipole'])
--------------------------------------------------------------------------

    Molecular point group: c1
  Charge       = 0
  Multiplicity = 1
  Basis Set: AUG-CC-PVTZ
    Blend: AUG-CC-PVTZ
  Basis Set: (AUG-CC-PVTZ AUX)
    Blend: AUG-CC-PVTZ-JKFIT

    Orbital Energies [Eh]
    ---------------------

    Doubly Occupied:

       1A    -15.568607     2A    -15.547432     3A    -11.287627
       4A    -11.281544     5A    -11.274817     6A    -11.264696
       7A    -11.245259     8A    -11.243214     9A    -11.232964
      10A    -11.231980    11A    -11.231781    12A    -11.226140
      13A    -11.222283    14A    -11.219150    15A     -1.260131
      16A     -1.210222    17A     -1.131176    18A     -1.084178
      19A     -1.062063    20A     -1.015654    21A     -0.990391
      22A     -0.915042    23A     -0.868579    24A     -0.866553
      25A     -0.813795    26A     -0.784827    27A     -0.710161
      28A     -0.689138    29A     -0.681090    30A     -0.660214
      31A     -0.648723    32A     -0.615689    33A     -0.599907
      34A     -0.590279    35A     -0.581633    36A     -0.579915
      37A     -0.570795    38A     -0.546991    39A     -0.530837
      40A     -0.524542    41A     -0.512202    42A     -0.491974
      43A     -0.485102    44A     -0.434891    45A     -0.420306
      46A     -0.385440    47A     -0.364825    48A     -0.315985
      49A     -0.278060

  @DF-RHF Final Energy:  -570.49777131864619

   => Energetics <=

    Nuclear Repulsion Energy =            811.0501019373593863
    One-Electron Energy =               -2382.4981373198556867
    Two-Electron Energy =                1000.9502640638501134
    Total Energy =                       -570.4977713186461870
  Basis Set: (AUG-CC-PVTZ AUX)
    Blend: AUG-CC-PVTZ-RI
    Molecular point group: c1

    Geometry (in Angstrom), charge = 0, multiplicity = 1:

       Center              X                  Y                   Z               Mass
    ------------   -----------------  -----------------  -----------------  -----------------
         N            0.112741305408     2.512837659908    -0.390113958169    14.003074004430
         N           -1.868061694592     0.759822659908     0.624115041831    14.003074004430
         C            0.382574305408     0.104046659908    -0.005357958169    12.000000000000
         C            0.928683305408     1.400494659908    -0.164642958169    12.000000000000
         C            2.638923305408    -0.858990340092     0.119292041831    12.000000000000
         C            1.249953305408    -0.987610340092     0.160253041831    12.000000000000
         C           -1.075133694592    -0.141756340092    -0.003063958169    12.000000000000
         C            2.325869305408     1.525162659908    -0.226984958169    12.000000000000
         C            3.163298305408     0.425040659908    -0.075055958169    12.000000000000
         C            3.541131305408    -2.043499340092     0.348169041831    12.000000000000
         C           -1.608459694592    -1.282228340092    -0.626732958169    12.000000000000
         C           -3.017912194592    -1.547573840092    -0.573833358169    12.000000000000
         C           -3.190284694592     0.522406659908     0.663472041831    12.000000000000
         C           -3.790673694592    -0.603382340092     0.101703041831    12.000000000000
         H            0.816095305408    -1.971586340092     0.337658041831     1.007825032230
         H            2.756825305408     2.514908659908    -0.374707958169     1.007825032230
         H            4.242463305408     0.567221659908    -0.119769958169     1.007825032230
         H            3.861430305408    -2.107491340092     1.394116041831     1.007825032230
         H            3.031656305408    -2.979155340092     0.099683041831     1.007825032230
         H            4.442324305408    -1.976110340092    -0.268936958169     1.007825032230
         H           -0.951568694592    -1.957739340092    -1.166885958169     1.007825032230
         H            0.587515305408     3.391135659908    -0.207171958169     1.007825032230
         H           -0.768172694592     2.447957659908     0.114088041831     1.007825032230
         H           -3.406698694592    -2.399626340092    -1.040543958169     1.007825032230
         H           -3.788899694592     1.273974659908     1.175899041831     1.007825032230
         H           -4.865337694592    -0.745274340092     0.172327041831     1.007825032230

  Basis Set: AUG-CC-PVTZ
    Blend: AUG-CC-PVTZ
  Basis Set: (AUG-CC-PVTZ AUX)
    Blend: AUG-CC-PVTZ-JKFIT
	 Reference Energy          =    -570.4977713186461870 [Eh]
	 Singles Energy            =      -0.0000000000000000 [Eh]
	 Same-Spin Energy          =      -0.6409765114923033 [Eh]
	 Opposite-Spin Energy      =      -1.9783121153265084 [Eh]
	 Correlation Energy        =      -2.6192886268188116 [Eh]
	 Total Energy              =    -573.1170599454650301 [Eh]

	 ================> DF-SCS-MP2 Energies <==================
	-----------------------------------------------------------
	 SCS Same-Spin Scale       =       0.3333333333333333 [-]
	 SCS Opposite-Spin Scale   =       1.2000000000000000 [-]
	 SCS Same-Spin Energy      =      -0.2136588371641011 [Eh]
	 SCS Opposite-Spin Energy  =      -2.3739745383918098 [Eh]
	 SCS Correlation Energy    =      -2.5876333755559111 [Eh]
	 SCS Total Energy          =    -573.0854046942021114 [Eh]
	-----------------------------------------------------------

  Dipole Moment: [D]
     X:    -1.1247      Y:    -0.9871      Z:     0.0677     Total:     1.4980

*** Psi4 exiting successfully. Buy a developer a beer!
