                               Psi4 1.4a3.dev225

  ==> Input File <==

--------------------------------------------------------------------------
#psi4
#
memory 32 gb

molecule  {
0 1
  N        0.0801310     2.5312230    -0.3913130
  N       -1.9006720     0.7782080     0.6229160
  C        0.3499640     0.1224320    -0.0065570
  C        0.8960730     1.4188800    -0.1658420
  C        2.6063130    -0.8406050     0.1180930
  C        1.2173430    -0.9692250     0.1590540
  C       -1.1077440    -0.1233710    -0.0042630
  C        2.2932590     1.5435480    -0.2281840
  C        3.1306880     0.4434260    -0.0762550
  C        3.5085210    -2.0251140     0.3469700
  C       -1.6410700    -1.2638430    -0.6279320
  C       -3.0109220    -1.5027310    -0.5649580
  C       -3.2228950     0.5407920     0.6622730
  C       -3.8232840    -0.5849970     0.1005040
  H        0.7834850    -1.9532010     0.3364590
  H        2.7242150     2.5332940    -0.3759070
  H        4.2098530     0.5856070    -0.1209690
  H        3.8288200    -2.0891060     1.3929170
  H        2.9990460    -2.9607700     0.0984840
  H        4.4920668    -1.9515669    -0.3265284
  H       -0.9841790    -1.9393540    -1.1680850
  H        0.5549050     3.4095210    -0.2083710
  H       -0.8007830     2.4663430     0.1128890
  H       -3.4393090    -2.3812410    -1.0417430
  H       -3.8215100     1.2923600     1.1747000
  H       -4.8979480    -0.7268890     0.1711280
units angstrom
no_reorient  #important for SAPT in psi4, default
symmetry c1  #important for SAPT in psi4, default
}

set PROPERTIES_ORIGIN ["COM"]
properties('MP2/aug-cc-pvtz', properties = ['dipole'])
--------------------------------------------------------------------------

    Molecular point group: c1
  Charge       = 0
  Multiplicity = 1
  Basis Set: AUG-CC-PVTZ
    Blend: AUG-CC-PVTZ
  Basis Set: (AUG-CC-PVTZ AUX)
    Blend: AUG-CC-PVTZ-JKFIT

    Orbital Energies [Eh]
    ---------------------

    Doubly Occupied:

       1A    -15.567786     2A    -15.548086     3A    -11.288963
       4A    -11.280458     5A    -11.275860     6A    -11.262630
       7A    -11.241835     8A    -11.241084     9A    -11.234173
      10A    -11.232892    11A    -11.232808    12A    -11.231435
      13A    -11.227514    14A    -11.223009    15A     -1.261268
      16A     -1.211009    17A     -1.131946    18A     -1.088072
      19A     -1.063056    20A     -1.014701    21A     -0.992439
      22A     -0.910476    23A     -0.870847    24A     -0.862214
      25A     -0.815111    26A     -0.782587    27A     -0.708642
      28A     -0.690082    29A     -0.681626    30A     -0.660652
      31A     -0.649960    32A     -0.614005    33A     -0.599833
      34A     -0.589149    35A     -0.582038    36A     -0.573256
      37A     -0.566305    38A     -0.548605    39A     -0.532138
      40A     -0.521666    41A     -0.510083    42A     -0.493261
      43A     -0.485282    44A     -0.434827    45A     -0.419086
      46A     -0.387793    47A     -0.366859    48A     -0.316886
      49A     -0.278796

  @DF-RHF Final Energy:  -570.49522501051968

   => Energetics <=

    Nuclear Repulsion Energy =            811.5824227198576182
    One-Electron Energy =               -2383.5491162246266867
    Two-Electron Energy =                1001.4714684942492795
    Total Energy =                       -570.4952250105196754
  Basis Set: (AUG-CC-PVTZ AUX)
    Blend: AUG-CC-PVTZ-RI
    Molecular point group: c1

    Geometry (in Angstrom), charge = 0, multiplicity = 1:

       Center              X                  Y                   Z               Mass
    ------------   -----------------  -----------------  -----------------  -----------------
         N            0.109709240951     2.511079396995    -0.390461916403    14.003074004430
         N           -1.871093759049     0.758064396995     0.623767083597    14.003074004430
         C            0.379542240951     0.102288396995    -0.005705916403    12.000000000000
         C            0.925651240951     1.398736396995    -0.164990916403    12.000000000000
         C            2.635891240951    -0.860748603005     0.118944083597    12.000000000000
         C            1.246921240951    -0.989368603005     0.159905083597    12.000000000000
         C           -1.078165759049    -0.143514603005    -0.003411916403    12.000000000000
         C            2.322837240951     1.523404396995    -0.227332916403    12.000000000000
         C            3.160266240951     0.423282396995    -0.075403916403    12.000000000000
         C            3.538099240951    -2.045257603005     0.347821083597    12.000000000000
         C           -1.611491759049    -1.283986603005    -0.627080916403    12.000000000000
         C           -2.981343759049    -1.522874603005    -0.564106916403    12.000000000000
         C           -3.193316759049     0.520648396995     0.663124083597    12.000000000000
         C           -3.793705759049    -0.605140603005     0.101355083597    12.000000000000
         H            0.813063240951    -1.973344603005     0.337310083597     1.007825032230
         H            2.753793240951     2.513150396995    -0.375055916403     1.007825032230
         H            4.239431240951     0.565463396995    -0.120117916403     1.007825032230
         H            3.858398240951    -2.109249603005     1.393768083597     1.007825032230
         H            3.028624240951    -2.980913603005     0.099335083597     1.007825032230
         H            4.521645040951    -1.971710503005    -0.325677316403     1.007825032230
         H           -0.954600759049    -1.959497603005    -1.167233916403     1.007825032230
         H            0.584483240951     3.389377396995    -0.207519916403     1.007825032230
         H           -0.771204759049     2.446199396995     0.113740083597     1.007825032230
         H           -3.409730759049    -2.401384603005    -1.040891916403     1.007825032230
         H           -3.791931759049     1.272216396995     1.175551083597     1.007825032230
         H           -4.868369759049    -0.747032603005     0.171979083597     1.007825032230

  Basis Set: AUG-CC-PVTZ
    Blend: AUG-CC-PVTZ
  Basis Set: (AUG-CC-PVTZ AUX)
    Blend: AUG-CC-PVTZ-JKFIT
	 Reference Energy          =    -570.4952250105196754 [Eh]
	 Singles Energy            =      -0.0000000000000000 [Eh]
	 Same-Spin Energy          =      -0.6408336845611372 [Eh]
	 Opposite-Spin Energy      =      -1.9784117389808307 [Eh]
	 Correlation Energy        =      -2.6192454235419680 [Eh]
	 Total Energy              =    -573.1144704340616727 [Eh]

	 ================> DF-SCS-MP2 Energies <==================
	-----------------------------------------------------------
	 SCS Same-Spin Scale       =       0.3333333333333333 [-]
	 SCS Opposite-Spin Scale   =       1.2000000000000000 [-]
	 SCS Same-Spin Energy      =      -0.2136112281870457 [Eh]
	 SCS Opposite-Spin Energy  =      -2.3740940867769966 [Eh]
	 SCS Correlation Energy    =      -2.5877053149640425 [Eh]
	 SCS Total Energy          =    -573.0829303254837441 [Eh]
	-----------------------------------------------------------

  Dipole Moment: [D]
     X:    -1.1694      Y:    -0.9367      Z:     0.0996     Total:     1.5016

*** Psi4 exiting successfully. Buy a developer a beer!
