                               Psi4 1.4a3.dev225

  ==> Input File <==

--------------------------------------------------------------------------
#psi4
#
memory 32 gb

molecule  {
0 1
  N        0.0801310     2.5312230    -0.3913130
  N       -1.9006720     0.7782080     0.6229160
  C        0.3499640     0.1224320    -0.0065570
  C        0.8960730     1.4188800    -0.1658420
  C        2.6063130    -0.8406050     0.1180930
  C        1.2173430    -0.9692250     0.1590540
  C       -1.1077440    -0.1233710    -0.0042630
  C        2.2932590     1.5435480    -0.2281840
  C        3.1306880     0.4434260    -0.0762550
  C        3.5085210    -2.0251140     0.3469700
  C       -1.6410700    -1.2638430    -0.6279320
  C       -3.0109220    -1.5027310    -0.5649580
  C       -3.2228950     0.5407920     0.6622730
  C       -3.8318974    -0.6011480     0.0924446
  H        0.7834850    -1.9532010     0.3364590
  H        2.7242150     2.5332940    -0.3759070
  H        4.2098530     0.5856070    -0.1209690
  H        3.8288200    -2.0891060     1.3929170
  H        2.9990460    -2.9607700     0.0984840
  H        4.4097140    -1.9577250    -0.2701360
  H       -0.9841790    -1.9393540    -1.1680850
  H        0.5549050     3.4095210    -0.2083710
  H       -0.8007830     2.4663430     0.1128890
  H       -3.4393090    -2.3812410    -1.0417430
  H       -3.8215100     1.2923600     1.1747000
  H       -4.8979480    -0.7268890     0.1711280
units angstrom
no_reorient  #important for SAPT in psi4, default
symmetry c1  #important for SAPT in psi4, default
}

set PROPERTIES_ORIGIN ["COM"]
properties('MP2/aug-cc-pvtz', properties = ['dipole'])
--------------------------------------------------------------------------

    Molecular point group: c1
  Charge       = 0
  Multiplicity = 1
  Basis Set: AUG-CC-PVTZ
    Blend: AUG-CC-PVTZ
  Basis Set: (AUG-CC-PVTZ AUX)
    Blend: AUG-CC-PVTZ-JKFIT

    Orbital Energies [Eh]
    ---------------------

    Doubly Occupied:

       1A    -15.568217     2A    -15.547742     3A    -11.288417
       4A    -11.283301     5A    -11.275275     6A    -11.261092
       7A    -11.242184     8A    -11.240490     9A    -11.233337
      10A    -11.232440    11A    -11.232162    12A    -11.226529
      13A    -11.222635    14A    -11.219423    15A     -1.260670
      16A     -1.210563    17A     -1.131554    18A     -1.088926
      19A     -1.061997    20A     -1.016010    21A     -0.991320
      22A     -0.915491    23A     -0.871049    24A     -0.861196
      25A     -0.814986    26A     -0.783140    27A     -0.708967
      28A     -0.689762    29A     -0.681496    30A     -0.660922
      31A     -0.650692    32A     -0.613262    33A     -0.600478
      34A     -0.587927    35A     -0.582254    36A     -0.573064
      37A     -0.569571    38A     -0.547985    39A     -0.534158
      40A     -0.530132    41A     -0.513035    42A     -0.493034
      43A     -0.485642    44A     -0.434969    45A     -0.418211
      46A     -0.389056    47A     -0.365339    48A     -0.315803
      49A     -0.278286

  @DF-RHF Final Energy:  -570.50113161439185

   => Energetics <=

    Nuclear Repulsion Energy =            811.7771733760777124
    One-Electron Energy =               -2383.9482325300696175
    Two-Electron Energy =                1001.6699275395999393
    Total Energy =                       -570.5011316143918521
  Basis Set: (AUG-CC-PVTZ AUX)
    Blend: AUG-CC-PVTZ-RI
    Molecular point group: c1

    Geometry (in Angstrom), charge = 0, multiplicity = 1:

       Center              X                  Y                   Z               Mass
    ------------   -----------------  -----------------  -----------------  -----------------
         N            0.110721505830     2.512165862148    -0.390245299797    14.003074004430
         N           -1.870081494170     0.759150862148     0.623983700203    14.003074004430
         C            0.380554505830     0.103374862148    -0.005489299797    12.000000000000
         C            0.926663505830     1.399822862148    -0.164774299797    12.000000000000
         C            2.636903505830    -0.859662137852     0.119160700203    12.000000000000
         C            1.247933505830    -0.988282137852     0.160121700203    12.000000000000
         C           -1.077153494170    -0.142428137852    -0.003195299797    12.000000000000
         C            2.323849505830     1.524490862148    -0.227116299797    12.000000000000
         C            3.161278505830     0.424368862148    -0.075187299797    12.000000000000
         C            3.539111505830    -2.044171137852     0.348037700203    12.000000000000
         C           -1.610479494170    -1.282900137852    -0.626864299797    12.000000000000
         C           -2.980331494170    -1.521788137852    -0.563890299797    12.000000000000
         C           -3.192304494170     0.521734862148     0.663340700203    12.000000000000
         C           -3.801306894170    -0.620205137852     0.093512300203    12.000000000000
         H            0.814075505830    -1.972258137852     0.337526700203     1.007825032230
         H            2.754805505830     2.514236862148    -0.374839299797     1.007825032230
         H            4.240443505830     0.566549862148    -0.119901299797     1.007825032230
         H            3.859410505830    -2.108163137852     1.393984700203     1.007825032230
         H            3.029636505830    -2.979827137852     0.099551700203     1.007825032230
         H            4.440304505830    -1.976782137852    -0.269068299797     1.007825032230
         H           -0.953588494170    -1.958411137852    -1.167017299797     1.007825032230
         H            0.585495505830     3.390463862148    -0.207303299797     1.007825032230
         H           -0.770192494170     2.447285862148     0.113956700203     1.007825032230
         H           -3.408718494170    -2.400298137852    -1.040675299797     1.007825032230
         H           -3.790919494170     1.273302862148     1.175767700203     1.007825032230
         H           -4.867357494170    -0.745946137852     0.172195700203     1.007825032230

  Basis Set: AUG-CC-PVTZ
    Blend: AUG-CC-PVTZ
  Basis Set: (AUG-CC-PVTZ AUX)
    Blend: AUG-CC-PVTZ-JKFIT
	 Reference Energy          =    -570.5011316143918521 [Eh]
	 Singles Energy            =      -0.0000000000000000 [Eh]
	 Same-Spin Energy          =      -0.6408341646522772 [Eh]
	 Opposite-Spin Energy      =      -1.9777513526919874 [Eh]
	 Correlation Energy        =      -2.6185855173442647 [Eh]
	 Total Energy              =    -573.1197171317361381 [Eh]

	 ================> DF-SCS-MP2 Energies <==================
	-----------------------------------------------------------
	 SCS Same-Spin Scale       =       0.3333333333333333 [-]
	 SCS Opposite-Spin Scale   =       1.2000000000000000 [-]
	 SCS Same-Spin Energy      =      -0.2136113882174257 [Eh]
	 SCS Opposite-Spin Energy  =      -2.3733016232303847 [Eh]
	 SCS Correlation Energy    =      -2.5869130114478103 [Eh]
	 SCS Total Energy          =    -573.0880446258396432 [Eh]
	-----------------------------------------------------------

  Dipole Moment: [D]
     X:    -1.1118      Y:    -0.9515      Z:     0.0869     Total:     1.4659

*** Psi4 exiting successfully. Buy a developer a beer!
