                               Psi4 1.4a3.dev225

  ==> Input File <==

--------------------------------------------------------------------------
#psi4
#
memory 32 gb

molecule  {
0 1
  N        0.0801310     2.5312230    -0.3913130
  N       -1.9006720     0.7782080     0.6229160
  C        0.3499640     0.1224320    -0.0065570
  C        0.8960730     1.4188800    -0.1658420
  C        2.6063130    -0.8406050     0.1180930
  C        1.2173430    -0.9692250     0.1590540
  C       -1.1077440    -0.1233710    -0.0042630
  C        2.2932590     1.5435480    -0.2281840
  C        3.1306880     0.4434260    -0.0762550
  C        3.5085210    -2.0251140     0.3469700
  C       -1.6410700    -1.2638430    -0.6279320
  C       -3.0109220    -1.5027310    -0.5649580
  C       -3.2228950     0.5407920     0.6622730
  C       -3.8232840    -0.5849970     0.1005040
  H        0.7834850    -1.9532010     0.3364590
  H        2.7242150     2.5332940    -0.3759070
  H        4.2098530     0.5856070    -0.1209690
  H        3.8229739    -2.0879380     1.3738262
  H        2.9990460    -2.9607700     0.0984840
  H        4.4097140    -1.9577250    -0.2701360
  H       -0.9841790    -1.9393540    -1.1680850
  H        0.5549050     3.4095210    -0.2083710
  H       -0.8007830     2.4663430     0.1128890
  H       -3.4393090    -2.3812410    -1.0417430
  H       -3.8215100     1.2923600     1.1747000
  H       -4.8979480    -0.7268890     0.1711280
units angstrom
no_reorient  #important for SAPT in psi4, default
symmetry c1  #important for SAPT in psi4, default
}

set PROPERTIES_ORIGIN ["COM"]
properties('MP2/aug-cc-pvtz', properties = ['dipole'])
--------------------------------------------------------------------------

    Molecular point group: c1
  Charge       = 0
  Multiplicity = 1
  Basis Set: AUG-CC-PVTZ
    Blend: AUG-CC-PVTZ
  Basis Set: (AUG-CC-PVTZ AUX)
    Blend: AUG-CC-PVTZ-JKFIT

    Orbital Energies [Eh]
    ---------------------

    Doubly Occupied:

       1A    -15.567494     2A    -15.547638     3A    -11.288630
       4A    -11.280193     5A    -11.275279     6A    -11.262368
       7A    -11.241580     8A    -11.240795     9A    -11.233378
      10A    -11.232455    11A    -11.232200    12A    -11.226493
      13A    -11.222643    14A    -11.217074    15A     -1.260963
      16A     -1.210566    17A     -1.131648    18A     -1.087802
      19A     -1.063028    20A     -1.016581    21A     -0.992349
      22A     -0.916769    23A     -0.870488    24A     -0.862103
      25A     -0.814663    26A     -0.783601    27A     -0.708970
      28A     -0.689721    29A     -0.681355    30A     -0.660432
      31A     -0.650107    32A     -0.613619    33A     -0.600498
      34A     -0.589004    35A     -0.582054    36A     -0.575547
      37A     -0.571199    38A     -0.548542    39A     -0.532094
      40A     -0.529290    41A     -0.513056    42A     -0.493022
      43A     -0.485626    44A     -0.435219    45A     -0.418807
      46A     -0.387529    47A     -0.366566    48A     -0.316428
      49A     -0.278536

  @DF-RHF Final Energy:  -570.50175137745930

   => Energetics <=

    Nuclear Repulsion Energy =            812.1039927860223315
    One-Electron Energy =               -2384.5994881173423892
    Two-Electron Energy =                1001.9937439538606441
    Total Energy =                       -570.5017513774592999
  Basis Set: (AUG-CC-PVTZ AUX)
    Blend: AUG-CC-PVTZ-RI
    Molecular point group: c1

    Geometry (in Angstrom), charge = 0, multiplicity = 1:

       Center              X                  Y                   Z               Mass
    ------------   -----------------  -----------------  -----------------  -----------------
         N            0.110192071129     2.511106714466    -0.390666117795    14.003074004430
         N           -1.870610928871     0.758091714466     0.623562882205    14.003074004430
         C            0.380025071129     0.102315714466    -0.005910117795    12.000000000000
         C            0.926134071129     1.398763714466    -0.165195117795    12.000000000000
         C            2.636374071129    -0.860721285534     0.118739882205    12.000000000000
         C            1.247404071129    -0.989341285534     0.159700882205    12.000000000000
         C           -1.077682928871    -0.143487285534    -0.003616117795    12.000000000000
         C            2.323320071129     1.523431714466    -0.227537117795    12.000000000000
         C            3.160749071129     0.423309714466    -0.075608117795    12.000000000000
         C            3.538582071129    -2.045230285534     0.347616882205    12.000000000000
         C           -1.611008928871    -1.283959285534    -0.627285117795    12.000000000000
         C           -2.980860928871    -1.522847285534    -0.564311117795    12.000000000000
         C           -3.192833928871     0.520675714466     0.662919882205    12.000000000000
         C           -3.793222928871    -0.605113285534     0.101150882205    12.000000000000
         H            0.813546071129    -1.973317285534     0.337105882205     1.007825032230
         H            2.754276071129     2.513177714466    -0.375260117795     1.007825032230
         H            4.239914071129     0.565490714466    -0.120322117795     1.007825032230
         H            3.853034971129    -2.108054285534     1.374473082205     1.007825032230
         H            3.029107071129    -2.980886285534     0.099130882205     1.007825032230
         H            4.439775071129    -1.977841285534    -0.269489117795     1.007825032230
         H           -0.954117928871    -1.959470285534    -1.167438117795     1.007825032230
         H            0.584966071129     3.389404714466    -0.207724117795     1.007825032230
         H           -0.770721928871     2.446226714466     0.113535882205     1.007825032230
         H           -3.409247928871    -2.401357285534    -1.041096117795     1.007825032230
         H           -3.791448928871     1.272243714466     1.175346882205     1.007825032230
         H           -4.867886928871    -0.747005285534     0.171774882205     1.007825032230

  Basis Set: AUG-CC-PVTZ
    Blend: AUG-CC-PVTZ
  Basis Set: (AUG-CC-PVTZ AUX)
    Blend: AUG-CC-PVTZ-JKFIT
	 Reference Energy          =    -570.5017513774592999 [Eh]
	 Singles Energy            =      -0.0000000000000000 [Eh]
	 Same-Spin Energy          =      -0.6408418066595633 [Eh]
	 Opposite-Spin Energy      =      -1.9775801183134489 [Eh]
	 Correlation Energy        =      -2.6184219249730121 [Eh]
	 Total Energy              =    -573.1201733024323630 [Eh]

	 ================> DF-SCS-MP2 Energies <==================
	-----------------------------------------------------------
	 SCS Same-Spin Scale       =       0.3333333333333333 [-]
	 SCS Opposite-Spin Scale   =       1.2000000000000000 [-]
	 SCS Same-Spin Energy      =      -0.2136139355531878 [Eh]
	 SCS Opposite-Spin Energy  =      -2.3730961419761387 [Eh]
	 SCS Correlation Energy    =      -2.5867100775293266 [Eh]
	 SCS Total Energy          =    -573.0884614549886464 [Eh]
	-----------------------------------------------------------

  Dipole Moment: [D]
     X:    -1.0884      Y:    -0.9705      Z:     0.0860     Total:     1.4608

*** Psi4 exiting successfully. Buy a developer a beer!
