                               Psi4 1.4a3.dev225

  ==> Input File <==

--------------------------------------------------------------------------
#psi4
#
memory 32 gb

molecule  {
0 1
  N        0.0801310     2.5312230    -0.3913130
  N       -1.9006720     0.7782080     0.6229160
  C        0.3272671     0.1321960    -0.0068191
  C        0.8960730     1.4188800    -0.1658420
  C        2.6063130    -0.8406050     0.1180930
  C        1.2173430    -0.9692250     0.1590540
  C       -1.1077440    -0.1233710    -0.0042630
  C        2.2932590     1.5435480    -0.2281840
  C        3.1306880     0.4434260    -0.0762550
  C        3.5085210    -2.0251140     0.3469700
  C       -1.6410700    -1.2638430    -0.6279320
  C       -3.0109220    -1.5027310    -0.5649580
  C       -3.2228950     0.5407920     0.6622730
  C       -3.8232840    -0.5849970     0.1005040
  H        0.7834850    -1.9532010     0.3364590
  H        2.7242150     2.5332940    -0.3759070
  H        4.2098530     0.5856070    -0.1209690
  H        3.8288200    -2.0891060     1.3929170
  H        2.9990460    -2.9607700     0.0984840
  H        4.4097140    -1.9577250    -0.2701360
  H       -0.9841790    -1.9393540    -1.1680850
  H        0.5549050     3.4095210    -0.2083710
  H       -0.8007830     2.4663430     0.1128890
  H       -3.4393090    -2.3812410    -1.0417430
  H       -3.8215100     1.2923600     1.1747000
  H       -4.8979480    -0.7268890     0.1711280
units angstrom
no_reorient  #important for SAPT in psi4, default
symmetry c1  #important for SAPT in psi4, default
}

set PROPERTIES_ORIGIN ["COM"]
properties('MP2/aug-cc-pvtz', properties = ['dipole'])
--------------------------------------------------------------------------

    Molecular point group: c1
  Charge       = 0
  Multiplicity = 1
  Basis Set: AUG-CC-PVTZ
    Blend: AUG-CC-PVTZ
  Basis Set: (AUG-CC-PVTZ AUX)
    Blend: AUG-CC-PVTZ-JKFIT

    Orbital Energies [Eh]
    ---------------------

    Doubly Occupied:

       1A    -15.567014     2A    -15.547164     3A    -11.287460
       4A    -11.279977     5A    -11.275959     6A    -11.262320
       7A    -11.241382     8A    -11.240841     9A    -11.235420
      10A    -11.233602    11A    -11.232699    12A    -11.227103
      13A    -11.223416    14A    -11.219827    15A     -1.261462
      16A     -1.210548    17A     -1.130170    18A     -1.087789
      19A     -1.064727    20A     -1.016171    21A     -0.990458
      22A     -0.915449    23A     -0.872557    24A     -0.862337
      25A     -0.815087    26A     -0.782558    27A     -0.708771
      28A     -0.690031    29A     -0.681123    30A     -0.661396
      31A     -0.650378    32A     -0.613997    33A     -0.600094
      34A     -0.589693    35A     -0.579854    36A     -0.574214
      37A     -0.570327    38A     -0.548578    39A     -0.531889
      40A     -0.529494    41A     -0.512468    42A     -0.492371
      43A     -0.487244    44A     -0.434335    45A     -0.419238
      46A     -0.387670    47A     -0.366970    48A     -0.314663
      49A     -0.278530

  @DF-RHF Final Energy:  -570.50032511974791

   => Energetics <=

    Nuclear Repulsion Energy =            812.0312934207890976
    One-Electron Energy =               -2384.4495872286861413
    Two-Electron Energy =                1001.9179686881491307
    Total Energy =                       -570.5003251197479130
  Basis Set: (AUG-CC-PVTZ AUX)
    Blend: AUG-CC-PVTZ-RI
    Molecular point group: c1

    Geometry (in Angstrom), charge = 0, multiplicity = 1:

       Center              X                  Y                   Z               Mass
    ------------   -----------------  -----------------  -----------------  -----------------
         N            0.111639495812     2.510476671935    -0.390753543009    14.003074004430
         N           -1.869163504188     0.757461671935     0.623475456991    14.003074004430
         C            0.358775595812     0.111449671935    -0.006259643009    12.000000000000
         C            0.927581495812     1.398133671935    -0.165282543009    12.000000000000
         C            2.637821495812    -0.861351328065     0.118652456991    12.000000000000
         C            1.248851495812    -0.989971328065     0.159613456991    12.000000000000
         C           -1.076235504188    -0.144117328065    -0.003703543009    12.000000000000
         C            2.324767495812     1.522801671935    -0.227624543009    12.000000000000
         C            3.162196495812     0.422679671935    -0.075695543009    12.000000000000
         C            3.540029495812    -2.045860328065     0.347529456991    12.000000000000
         C           -1.609561504188    -1.284589328065    -0.627372543009    12.000000000000
         C           -2.979413504188    -1.523477328065    -0.564398543009    12.000000000000
         C           -3.191386504188     0.520045671935     0.662832456991    12.000000000000
         C           -3.791775504188    -0.605743328065     0.101063456991    12.000000000000
         H            0.814993495812    -1.973947328065     0.337018456991     1.007825032230
         H            2.755723495812     2.512547671935    -0.375347543009     1.007825032230
         H            4.241361495812     0.564860671935    -0.120409543009     1.007825032230
         H            3.860328495812    -2.109852328065     1.393476456991     1.007825032230
         H            3.030554495812    -2.981516328065     0.099043456991     1.007825032230
         H            4.441222495812    -1.978471328065    -0.269576543009     1.007825032230
         H           -0.952670504188    -1.960100328065    -1.167525543009     1.007825032230
         H            0.586413495812     3.388774671935    -0.207811543009     1.007825032230
         H           -0.769274504188     2.445596671935     0.113448456991     1.007825032230
         H           -3.407800504188    -2.401987328065    -1.041183543009     1.007825032230
         H           -3.790001504188     1.271613671935     1.175259456991     1.007825032230
         H           -4.866439504188    -0.747635328065     0.171687456991     1.007825032230

  Basis Set: AUG-CC-PVTZ
    Blend: AUG-CC-PVTZ
  Basis Set: (AUG-CC-PVTZ AUX)
    Blend: AUG-CC-PVTZ-JKFIT
	 Reference Energy          =    -570.5003251197479130 [Eh]
	 Singles Energy            =      -0.0000000000000000 [Eh]
	 Same-Spin Energy          =      -0.6410910527050283 [Eh]
	 Opposite-Spin Energy      =      -1.9781660618459160 [Eh]
	 Correlation Energy        =      -2.6192571145509445 [Eh]
	 Total Energy              =    -573.1195822342988322 [Eh]

	 ================> DF-SCS-MP2 Energies <==================
	-----------------------------------------------------------
	 SCS Same-Spin Scale       =       0.3333333333333333 [-]
	 SCS Opposite-Spin Scale   =       1.2000000000000000 [-]
	 SCS Same-Spin Energy      =      -0.2136970175683428 [Eh]
	 SCS Opposite-Spin Energy  =      -2.3737992742150991 [Eh]
	 SCS Correlation Energy    =      -2.5874962917834416 [Eh]
	 SCS Total Energy          =    -573.0878214115313085 [Eh]
	-----------------------------------------------------------

  Dipole Moment: [D]
     X:    -1.0661      Y:    -0.9626      Z:     0.0741     Total:     1.4383

*** Psi4 exiting successfully. Buy a developer a beer!
