                               Psi4 1.4a3.dev225

  ==> Input File <==

--------------------------------------------------------------------------
#psi4
#
memory 32 gb

molecule  {
0 1
  N        0.0801310     2.5312230    -0.3913130
  N       -1.9006720     0.7782080     0.6229160
  C        0.3499640     0.1224320    -0.0065570
  C        0.8960730     1.4188800    -0.1658420
  C        2.6063130    -0.8406050     0.1180930
  C        1.2173430    -0.9692250     0.1590540
  C       -1.1077440    -0.1233710    -0.0042630
  C        2.2932590     1.5435480    -0.2281840
  C        3.1306880     0.4434260    -0.0762550
  C        3.5085210    -2.0251140     0.3469700
  C       -1.6410700    -1.2638430    -0.6279320
  C       -3.0109220    -1.5027310    -0.5649580
  C       -3.2228950     0.5407920     0.6622730
  C       -3.8232840    -0.5849970     0.1005040
  H        0.7834850    -1.9532010     0.3364590
  H        2.7242150     2.5332940    -0.3759070
  H        4.2098530     0.5856070    -0.1209690
  H        3.8288200    -2.0891060     1.3929170
  H        2.9990460    -2.9607700     0.0984840
  H        4.3685376    -1.9608041    -0.2419398
  H       -0.9841790    -1.9393540    -1.1680850
  H        0.5549050     3.4095210    -0.2083710
  H       -0.8007830     2.4663430     0.1128890
  H       -3.4393090    -2.3812410    -1.0417430
  H       -3.8215100     1.2923600     1.1747000
  H       -4.8979480    -0.7268890     0.1711280
units angstrom
no_reorient  #important for SAPT in psi4, default
symmetry c1  #important for SAPT in psi4, default
}

set PROPERTIES_ORIGIN ["COM"]
properties('MP2/aug-cc-pvtz', properties = ['dipole'])
--------------------------------------------------------------------------

    Molecular point group: c1
  Charge       = 0
  Multiplicity = 1
  Basis Set: AUG-CC-PVTZ
    Blend: AUG-CC-PVTZ
  Basis Set: (AUG-CC-PVTZ AUX)
    Blend: AUG-CC-PVTZ-JKFIT

    Orbital Energies [Eh]
    ---------------------

    Doubly Occupied:

       1A    -15.567434     2A    -15.547577     3A    -11.288560
       4A    -11.280137     5A    -11.275197     6A    -11.262312
       7A    -11.241526     8A    -11.240735     9A    -11.233207
      10A    -11.232445    11A    -11.232043    12A    -11.226230
      13A    -11.222596    14A    -11.213324    15A     -1.260901
      16A     -1.210499    17A     -1.131638    18A     -1.087746
      19A     -1.063097    20A     -1.017318    21A     -0.992392
      22A     -0.918814    23A     -0.870419    24A     -0.862096
      25A     -0.814566    26A     -0.783997    27A     -0.709165
      28A     -0.689675    29A     -0.681353    30A     -0.660413
      31A     -0.650332    32A     -0.613460    33A     -0.601512
      34A     -0.589102    35A     -0.582520    36A     -0.575058
      37A     -0.571412    38A     -0.548081    39A     -0.534425
      40A     -0.530994    41A     -0.513379    42A     -0.492716
      43A     -0.485739    44A     -0.435142    45A     -0.418720
      46A     -0.387470    47A     -0.366503    48A     -0.316313
      49A     -0.278437

  @DF-RHF Final Energy:  -570.50076963927165

   => Energetics <=

    Nuclear Repulsion Energy =            812.2478050813213031
    One-Electron Energy =               -2384.8796892018076505
    Two-Electron Energy =                1002.1311144812146949
    Total Energy =                       -570.5007696392716525
  Basis Set: (AUG-CC-PVTZ AUX)
    Blend: AUG-CC-PVTZ-RI
    Molecular point group: c1

    Geometry (in Angstrom), charge = 0, multiplicity = 1:

       Center              X                  Y                   Z               Mass
    ------------   -----------------  -----------------  -----------------  -----------------
         N            0.110385480968     2.511129964507    -0.390924982595    14.003074004430
         N           -1.870417519032     0.758114964507     0.623304017405    14.003074004430
         C            0.380218480968     0.102338964507    -0.006168982595    12.000000000000
         C            0.926327480968     1.398786964507    -0.165453982595    12.000000000000
         C            2.636567480968    -0.860698035493     0.118481017405    12.000000000000
         C            1.247597480968    -0.989318035493     0.159442017405    12.000000000000
         C           -1.077489519032    -0.143464035493    -0.003874982595    12.000000000000
         C            2.323513480968     1.523454964507    -0.227795982595    12.000000000000
         C            3.160942480968     0.423332964507    -0.075866982595    12.000000000000
         C            3.538775480968    -2.045207035493     0.347358017405    12.000000000000
         C           -1.610815519032    -1.283936035493    -0.627543982595    12.000000000000
         C           -2.980667519032    -1.522824035493    -0.564569982595    12.000000000000
         C           -3.192640519032     0.520698964507     0.662661017405    12.000000000000
         C           -3.793029519032    -0.605090035493     0.100892017405    12.000000000000
         H            0.813739480968    -1.973294035493     0.336847017405     1.007825032230
         H            2.754469480968     2.513200964507    -0.375518982595     1.007825032230
         H            4.240107480968     0.565513964507    -0.120580982595     1.007825032230
         H            3.859074480968    -2.109199035493     1.393305017405     1.007825032230
         H            3.029300480968    -2.980863035493     0.098872017405     1.007825032230
         H            4.398792080968    -1.980897135493    -0.241551782595     1.007825032230
         H           -0.953924519032    -1.959447035493    -1.167696982595     1.007825032230
         H            0.585159480968     3.389427964507    -0.207982982595     1.007825032230
         H           -0.770528519032     2.446249964507     0.113277017405     1.007825032230
         H           -3.409054519032    -2.401334035493    -1.041354982595     1.007825032230
         H           -3.791255519032     1.272266964507     1.175088017405     1.007825032230
         H           -4.867693519032    -0.746982035493     0.171516017405     1.007825032230

  Basis Set: AUG-CC-PVTZ
    Blend: AUG-CC-PVTZ
  Basis Set: (AUG-CC-PVTZ AUX)
    Blend: AUG-CC-PVTZ-JKFIT
	 Reference Energy          =    -570.5007696392716525 [Eh]
	 Singles Energy            =      -0.0000000000000000 [Eh]
	 Same-Spin Energy          =      -0.6408409133159181 [Eh]
	 Opposite-Spin Energy      =      -1.9774068041734443 [Eh]
	 Correlation Energy        =      -2.6182477174893624 [Eh]
	 Total Energy              =    -573.1190173567609918 [Eh]

	 ================> DF-SCS-MP2 Energies <==================
	-----------------------------------------------------------
	 SCS Same-Spin Scale       =       0.3333333333333333 [-]
	 SCS Opposite-Spin Scale   =       1.2000000000000000 [-]
	 SCS Same-Spin Energy      =      -0.2136136377719727 [Eh]
	 SCS Opposite-Spin Energy  =      -2.3728881650081330 [Eh]
	 SCS Correlation Energy    =      -2.5865018027801057 [Eh]
	 SCS Total Energy          =    -573.0872714420518150 [Eh]
	-----------------------------------------------------------

  Dipole Moment: [D]
     X:    -1.0679      Y:    -0.9746      Z:     0.0689     Total:     1.4474

*** Psi4 exiting successfully. Buy a developer a beer!
