                               Psi4 1.4a3.dev225

  ==> Input File <==

--------------------------------------------------------------------------
#psi4
#
memory 32 gb

molecule  {
0 1
  N        0.0801310     2.5312230    -0.3913130
  N       -1.9006720     0.7782080     0.6229160
  C        0.3499640     0.1224320    -0.0065570
  C        0.8960730     1.4188800    -0.1658420
  C        2.6063130    -0.8406050     0.1180930
  C        1.2173430    -0.9692250     0.1590540
  C       -1.1077440    -0.1233710    -0.0042630
  C        2.2932590     1.5435480    -0.2281840
  C        3.1306880     0.4434260    -0.0762550
  C        3.5085210    -2.0251140     0.3469700
  C       -1.6410700    -1.2638430    -0.6279320
  C       -2.9914899    -1.4890809    -0.5596159
  C       -3.2228950     0.5407920     0.6622730
  C       -3.8232840    -0.5849970     0.1005040
  H        0.7834850    -1.9532010     0.3364590
  H        2.7242150     2.5332940    -0.3759070
  H        4.2098530     0.5856070    -0.1209690
  H        3.8288200    -2.0891060     1.3929170
  H        2.9990460    -2.9607700     0.0984840
  H        4.4097140    -1.9577250    -0.2701360
  H       -0.9841790    -1.9393540    -1.1680850
  H        0.5549050     3.4095210    -0.2083710
  H       -0.8007830     2.4663430     0.1128890
  H       -3.4393090    -2.3812410    -1.0417430
  H       -3.8215100     1.2923600     1.1747000
  H       -4.8979480    -0.7268890     0.1711280
units angstrom
no_reorient  #important for SAPT in psi4, default
symmetry c1  #important for SAPT in psi4, default
}

set PROPERTIES_ORIGIN ["COM"]
properties('MP2/aug-cc-pvtz', properties = ['dipole'])
--------------------------------------------------------------------------

    Molecular point group: c1
  Charge       = 0
  Multiplicity = 1
  Basis Set: AUG-CC-PVTZ
    Blend: AUG-CC-PVTZ
  Basis Set: (AUG-CC-PVTZ AUX)
    Blend: AUG-CC-PVTZ-JKFIT

    Orbital Energies [Eh]
    ---------------------

    Doubly Occupied:

       1A    -15.567037     2A    -15.547879     3A    -11.289233
       4A    -11.279624     5A    -11.275679     6A    -11.261283
       7A    -11.240948     8A    -11.238555     9A    -11.233761
      10A    -11.232852    11A    -11.232534    12A    -11.226887
      13A    -11.222940    14A    -11.219690    15A     -1.261565
      16A     -1.210878    17A     -1.131939    18A     -1.090055
      19A     -1.063447    20A     -1.016377    21A     -0.993405
      22A     -0.915800    23A     -0.871794    24A     -0.859884
      25A     -0.815254    26A     -0.782757    27A     -0.708548
      28A     -0.690103    29A     -0.681603    30A     -0.660903
      31A     -0.650782    32A     -0.612919    33A     -0.600947
      34A     -0.589465    35A     -0.582354    36A     -0.572296
      37A     -0.566226    38A     -0.548766    39A     -0.533862
      40A     -0.530483    41A     -0.513312    42A     -0.493327
      43A     -0.486009    44A     -0.435181    45A     -0.417962
      46A     -0.389039    47A     -0.367312    48A     -0.316726
      49A     -0.278775

  @DF-RHF Final Energy:  -570.50130543295199

   => Energetics <=

    Nuclear Repulsion Energy =            812.5090007456435615
    One-Electron Energy =               -2385.4026953261377457
    Two-Electron Energy =                1002.3923891475421897
    Total Energy =                       -570.5013054329519946
  Basis Set: (AUG-CC-PVTZ AUX)
    Blend: AUG-CC-PVTZ-RI
    Molecular point group: c1

    Geometry (in Angstrom), charge = 0, multiplicity = 1:

       Center              X                  Y                   Z               Mass
    ------------   -----------------  -----------------  -----------------  -----------------
         N            0.108893445474     2.510223368362    -0.391118835689    14.003074004430
         N           -1.871909554526     0.757208368362     0.623110164311    14.003074004430
         C            0.378726445474     0.101432368362    -0.006362835689    12.000000000000
         C            0.924835445474     1.397880368362    -0.165647835689    12.000000000000
         C            2.635075445474    -0.861604631638     0.118287164311    12.000000000000
         C            1.246105445474    -0.990224631638     0.159248164311    12.000000000000
         C           -1.078981554526    -0.144370631638    -0.004068835689    12.000000000000
         C            2.322021445474     1.522548368362    -0.227989835689    12.000000000000
         C            3.159450445474     0.422426368362    -0.076060835689    12.000000000000
         C            3.537283445474    -2.046113631638     0.347164164311    12.000000000000
         C           -1.612307554526    -1.284842631638    -0.627737835689    12.000000000000
         C           -2.962727454526    -1.510080531638    -0.559421735689    12.000000000000
         C           -3.194132554526     0.519792368362     0.662467164311    12.000000000000
         C           -3.794521554526    -0.605996631638     0.100698164311    12.000000000000
         H            0.812247445474    -1.974200631638     0.336653164311     1.007825032230
         H            2.752977445474     2.512294368362    -0.375712835689     1.007825032230
         H            4.238615445474     0.564607368362    -0.120774835689     1.007825032230
         H            3.857582445474    -2.110105631638     1.393111164311     1.007825032230
         H            3.027808445474    -2.981769631638     0.098678164311     1.007825032230
         H            4.438476445474    -1.978724631638    -0.269941835689     1.007825032230
         H           -0.955416554526    -1.960353631638    -1.167890835689     1.007825032230
         H            0.583667445474     3.388521368362    -0.208176835689     1.007825032230
         H           -0.772020554526     2.445343368362     0.113083164311     1.007825032230
         H           -3.410546554526    -2.402240631638    -1.041548835689     1.007825032230
         H           -3.792747554526     1.271360368362     1.174894164311     1.007825032230
         H           -4.869185554526    -0.747888631638     0.171322164311     1.007825032230

  Basis Set: AUG-CC-PVTZ
    Blend: AUG-CC-PVTZ
  Basis Set: (AUG-CC-PVTZ AUX)
    Blend: AUG-CC-PVTZ-JKFIT
	 Reference Energy          =    -570.5013054329519946 [Eh]
	 Singles Energy            =      -0.0000000000000000 [Eh]
	 Same-Spin Energy          =      -0.6407916154722331 [Eh]
	 Opposite-Spin Energy      =      -1.9775039414110687 [Eh]
	 Correlation Energy        =      -2.6182955568833020 [Eh]
	 Total Energy              =    -573.1196009898352486 [Eh]

	 ================> DF-SCS-MP2 Energies <==================
	-----------------------------------------------------------
	 SCS Same-Spin Scale       =       0.3333333333333333 [-]
	 SCS Opposite-Spin Scale   =       1.2000000000000000 [-]
	 SCS Same-Spin Energy      =      -0.2135972051574110 [Eh]
	 SCS Opposite-Spin Energy  =      -2.3730047296932821 [Eh]
	 SCS Correlation Energy    =      -2.5866019348506932 [Eh]
	 SCS Total Energy          =    -573.0879073678026998 [Eh]
	-----------------------------------------------------------

  Dipole Moment: [D]
     X:    -1.0802      Y:    -0.9478      Z:     0.0845     Total:     1.4395

*** Psi4 exiting successfully. Buy a developer a beer!
