                               Psi4 1.4a3.dev225

  ==> Input File <==

--------------------------------------------------------------------------
#psi4
#
memory 32 gb

molecule  {
0 1
  N        0.0801310     2.5312230    -0.3913130
  N       -1.9006720     0.7782080     0.6229160
  C        0.3499640     0.1224320    -0.0065570
  C        0.8960730     1.4188800    -0.1658420
  C        2.6063130    -0.8406050     0.1180930
  C        1.2173430    -0.9692250     0.1590540
  C       -1.1077440    -0.1233710    -0.0042630
  C        2.2932590     1.5435480    -0.2281840
  C        3.1306880     0.4434260    -0.0762550
  C        3.5085210    -2.0251140     0.3469700
  C       -1.6410700    -1.2638430    -0.6279320
  C       -3.0109220    -1.5027310    -0.5649580
  C       -3.2228950     0.5407920     0.6622730
  C       -3.8232840    -0.5849970     0.1005040
  H        0.7834850    -1.9532010     0.3364590
  H        2.7242150     2.5332940    -0.3759070
  H        4.2098530     0.5856070    -0.1209690
  H        3.8288200    -2.0891060     1.3929170
  H        2.9990460    -2.9607700     0.0984840
  H        4.4097140    -1.9577250    -0.2701360
  H       -0.9841790    -1.9393540    -1.1680850
  H        0.5549050     3.4095210    -0.2083710
  H       -0.8007830     2.4663430     0.1128890
  H       -3.4314305    -2.3650842    -1.0329744
  H       -3.8215100     1.2923600     1.1747000
  H       -4.8979480    -0.7268890     0.1711280
units angstrom
no_reorient  #important for SAPT in psi4, default
symmetry c1  #important for SAPT in psi4, default
}

set PROPERTIES_ORIGIN ["COM"]
properties('MP2/aug-cc-pvtz', properties = ['dipole'])
--------------------------------------------------------------------------

    Molecular point group: c1
  Charge       = 0
  Multiplicity = 1
  Basis Set: AUG-CC-PVTZ
    Blend: AUG-CC-PVTZ
  Basis Set: (AUG-CC-PVTZ AUX)
    Blend: AUG-CC-PVTZ-JKFIT

    Orbital Energies [Eh]
    ---------------------

    Doubly Occupied:

       1A    -15.567484     2A    -15.547682     3A    -11.288557
       4A    -11.280107     5A    -11.275335     6A    -11.260103
       7A    -11.241456     8A    -11.240684     9A    -11.233425
      10A    -11.232514    11A    -11.232238    12A    -11.226597
      13A    -11.222678    14A    -11.219483    15A     -1.260927
      16A     -1.210601    17A     -1.131634    18A     -1.088396
      19A     -1.062939    20A     -1.016093    21A     -0.992303
      22A     -0.915504    23A     -0.870624    24A     -0.863292
      25A     -0.814765    26A     -0.784067    27A     -0.709931
      28A     -0.689866    29A     -0.681473    30A     -0.660518
      31A     -0.650119    32A     -0.613917    33A     -0.600545
      34A     -0.589566    35A     -0.581972    36A     -0.575121
      37A     -0.570599    38A     -0.548196    39A     -0.532152
      40A     -0.529339    41A     -0.512943    42A     -0.492869
      43A     -0.485677    44A     -0.435046    45A     -0.418884
      46A     -0.387489    47A     -0.366521    48A     -0.316421
      49A     -0.278484

  @DF-RHF Final Energy:  -570.50185823792242

   => Energetics <=

    Nuclear Repulsion Energy =            812.1210877201208405
    One-Electron Energy =               -2384.6316214299213243
    Two-Electron Energy =                1002.0086754718780639
    Total Energy =                       -570.5018582379224199
  Basis Set: (AUG-CC-PVTZ AUX)
    Blend: AUG-CC-PVTZ-RI
    Molecular point group: c1

    Geometry (in Angstrom), charge = 0, multiplicity = 1:

       Center              X                  Y                   Z               Mass
    ------------   -----------------  -----------------  -----------------  -----------------
         N            0.110116938094     2.511024660778    -0.390818629437    14.003074004430
         N           -1.870686061906     0.758009660778     0.623410370563    14.003074004430
         C            0.379949938094     0.102233660778    -0.006062629437    12.000000000000
         C            0.926058938094     1.398681660778    -0.165347629437    12.000000000000
         C            2.636298938094    -0.860803339222     0.118587370563    12.000000000000
         C            1.247328938094    -0.989423339222     0.159548370563    12.000000000000
         C           -1.077758061906    -0.143569339222    -0.003768629437    12.000000000000
         C            2.323244938094     1.523349660778    -0.227689629437    12.000000000000
         C            3.160673938094     0.423227660778    -0.075760629437    12.000000000000
         C            3.538506938094    -2.045312339222     0.347464370563    12.000000000000
         C           -1.611084061906    -1.284041339222    -0.627437629437    12.000000000000
         C           -2.980936061906    -1.522929339222    -0.564463629437    12.000000000000
         C           -3.192909061906     0.520593660778     0.662767370563    12.000000000000
         C           -3.793298061906    -0.605195339222     0.100998370563    12.000000000000
         H            0.813470938094    -1.973399339222     0.336953370563     1.007825032230
         H            2.754200938094     2.513095660778    -0.375412629437     1.007825032230
         H            4.239838938094     0.565408660778    -0.120474629437     1.007825032230
         H            3.858805938094    -2.109304339222     1.393411370563     1.007825032230
         H            3.029031938094    -2.980968339222     0.098978370563     1.007825032230
         H            4.439699938094    -1.977923339222    -0.269641629437     1.007825032230
         H           -0.954193061906    -1.959552339222    -1.167590629437     1.007825032230
         H            0.584890938094     3.389322660778    -0.207876629437     1.007825032230
         H           -0.770797061906     2.446144660778     0.113383370563     1.007825032230
         H           -3.401444561906    -2.385282539222    -1.032480029437     1.007825032230
         H           -3.791524061906     1.272161660778     1.175194370563     1.007825032230
         H           -4.867962061906    -0.747087339222     0.171622370563     1.007825032230

  Basis Set: AUG-CC-PVTZ
    Blend: AUG-CC-PVTZ
  Basis Set: (AUG-CC-PVTZ AUX)
    Blend: AUG-CC-PVTZ-JKFIT
	 Reference Energy          =    -570.5018582379224199 [Eh]
	 Singles Energy            =      -0.0000000000000000 [Eh]
	 Same-Spin Energy          =      -0.6408011810843399 [Eh]
	 Opposite-Spin Energy      =      -1.9775547508403928 [Eh]
	 Correlation Energy        =      -2.6183559319247327 [Eh]
	 Total Energy              =    -573.1202141698471451 [Eh]

	 ================> DF-SCS-MP2 Energies <==================
	-----------------------------------------------------------
	 SCS Same-Spin Scale       =       0.3333333333333333 [-]
	 SCS Opposite-Spin Scale   =       1.2000000000000000 [-]
	 SCS Same-Spin Energy      =      -0.2136003936947800 [Eh]
	 SCS Opposite-Spin Energy  =      -2.3730657010084713 [Eh]
	 SCS Correlation Energy    =      -2.5866660947032512 [Eh]
	 SCS Total Energy          =    -573.0885243326256386 [Eh]
	-----------------------------------------------------------

  Dipole Moment: [D]
     X:    -1.1015      Y:    -0.9685      Z:     0.0751     Total:     1.4686

*** Psi4 exiting successfully. Buy a developer a beer!
