                               Psi4 1.4a3.dev225

  ==> Input File <==

--------------------------------------------------------------------------
#psi4
#
memory 32 gb

molecule  {
0 1
  N        0.0801310     2.5312230    -0.3913130
  N       -1.9006720     0.7782080     0.6229160
  C        0.3499640     0.1224320    -0.0065570
  C        0.8960730     1.4188800    -0.1658420
  C        2.6063130    -0.8406050     0.1180930
  C        1.2173430    -0.9692250     0.1590540
  C       -1.1077440    -0.1233710    -0.0042630
  C        2.2932590     1.5435480    -0.2281840
  C        3.1306880     0.4434260    -0.0762550
  C        3.5085210    -2.0251140     0.3469700
  C       -1.6410700    -1.2638430    -0.6279320
  C       -3.0109220    -1.5027310    -0.5649580
  C       -3.2228950     0.5407920     0.6622730
  C       -3.7371498    -0.4234868     0.1810977
  H        0.7834850    -1.9532010     0.3364590
  H        2.7242150     2.5332940    -0.3759070
  H        4.2098530     0.5856070    -0.1209690
  H        3.8288200    -2.0891060     1.3929170
  H        2.9990460    -2.9607700     0.0984840
  H        4.4097140    -1.9577250    -0.2701360
  H       -0.9841790    -1.9393540    -1.1680850
  H        0.5549050     3.4095210    -0.2083710
  H       -0.8007830     2.4663430     0.1128890
  H       -3.4393090    -2.3812410    -1.0417430
  H       -3.8215100     1.2923600     1.1747000
  H       -4.8979480    -0.7268890     0.1711280
units angstrom
no_reorient  #important for SAPT in psi4, default
symmetry c1  #important for SAPT in psi4, default
}

set PROPERTIES_ORIGIN ["COM"]
properties('MP2/aug-cc-pvtz', properties = ['dipole'])
--------------------------------------------------------------------------

    Molecular point group: c1
  Charge       = 0
  Multiplicity = 1
  Basis Set: AUG-CC-PVTZ
    Blend: AUG-CC-PVTZ
  Basis Set: (AUG-CC-PVTZ AUX)
    Blend: AUG-CC-PVTZ-JKFIT

    Orbital Energies [Eh]
    ---------------------

    Doubly Occupied:

       1A    -15.560254     2A    -15.547666     3A    -11.291967
       4A    -11.276784     5A    -11.274413     6A    -11.244193
       7A    -11.243050     8A    -11.235167     9A    -11.233975
      10A    -11.233722    11A    -11.232686    12A    -11.227819
      13A    -11.223674    14A    -11.220444    15A     -1.267213
      16A     -1.212009    17A     -1.133383    18A     -1.083385
      19A     -1.074177    20A     -1.017936    21A     -1.005488
      22A     -0.916503    23A     -0.882815    24A     -0.852627
      25A     -0.809758    26A     -0.785850    27A     -0.710153
      28A     -0.691414    29A     -0.681802    30A     -0.663117
      31A     -0.638438    32A     -0.617178    33A     -0.604955
      34A     -0.599112    35A     -0.581841    36A     -0.575195
      37A     -0.570887    38A     -0.555594    39A     -0.532463
      40A     -0.517392    41A     -0.501598    42A     -0.488180
      43A     -0.470604    44A     -0.436037    45A     -0.420362
      46A     -0.389092    47A     -0.373208    48A     -0.323179
      49A     -0.281001

  @DF-RHF Final Energy:  -570.43916789025627

   => Energetics <=

    Nuclear Repulsion Energy =            814.7220467799050994
    One-Electron Energy =               -2389.7029087733335473
    Two-Electron Energy =                1004.5416941031720626
    Total Energy =                       -570.4391678902562717
  Basis Set: (AUG-CC-PVTZ AUX)
    Blend: AUG-CC-PVTZ-RI
    Molecular point group: c1

    Geometry (in Angstrom), charge = 0, multiplicity = 1:

       Center              X                  Y                   Z               Mass
    ------------   -----------------  -----------------  -----------------  -----------------
         N            0.104545672581     2.500585558837    -0.396023881656    14.003074004430
         N           -1.876257327419     0.747570558837     0.618205118344    14.003074004430
         C            0.374378672581     0.091794558837    -0.011267881656    12.000000000000
         C            0.920487672581     1.388242558837    -0.170552881656    12.000000000000
         C            2.630727672581    -0.871242441163     0.113382118344    12.000000000000
         C            1.241757672581    -0.999862441163     0.154343118344    12.000000000000
         C           -1.083329327419    -0.154008441163    -0.008973881656    12.000000000000
         C            2.317673672581     1.512910558837    -0.232894881656    12.000000000000
         C            3.155102672581     0.412788558837    -0.080965881656    12.000000000000
         C            3.532935672581    -2.055751441163     0.342259118344    12.000000000000
         C           -1.616655327419    -1.294480441163    -0.632642881656    12.000000000000
         C           -2.986507327419    -1.533368441163    -0.569668881656    12.000000000000
         C           -3.198480327419     0.510154558837     0.657562118344    12.000000000000
         C           -3.712735127419    -0.454124241163     0.176386818344    12.000000000000
         H            0.807899672581    -1.983838441163     0.331748118344     1.007825032230
         H            2.748629672581     2.502656558837    -0.380617881656     1.007825032230
         H            4.234267672581     0.554969558837    -0.125679881656     1.007825032230
         H            3.853234672581    -2.119743441163     1.388206118344     1.007825032230
         H            3.023460672581    -2.991407441163     0.093773118344     1.007825032230
         H            4.434128672581    -1.988362441163    -0.274846881656     1.007825032230
         H           -0.959764327419    -1.969991441163    -1.172795881656     1.007825032230
         H            0.579319672581     3.378883558837    -0.213081881656     1.007825032230
         H           -0.776368327419     2.435705558837     0.108178118344     1.007825032230
         H           -3.414894327419    -2.411878441163    -1.046453881656     1.007825032230
         H           -3.797095327419     1.261722558837     1.169989118344     1.007825032230
         H           -4.873533327419    -0.757526441163     0.166417118344     1.007825032230

  Basis Set: AUG-CC-PVTZ
    Blend: AUG-CC-PVTZ
  Basis Set: (AUG-CC-PVTZ AUX)
    Blend: AUG-CC-PVTZ-JKFIT
	 Reference Energy          =    -570.4391678902562717 [Eh]
	 Singles Energy            =      -0.0000000000000000 [Eh]
	 Same-Spin Energy          =      -0.6403247936330498 [Eh]
	 Opposite-Spin Energy      =      -1.9790124530642728 [Eh]
	 Correlation Energy        =      -2.6193372466973228 [Eh]
	 Total Energy              =    -573.0585051369536131 [Eh]

	 ================> DF-SCS-MP2 Energies <==================
	-----------------------------------------------------------
	 SCS Same-Spin Scale       =       0.3333333333333333 [-]
	 SCS Opposite-Spin Scale   =       1.2000000000000000 [-]
	 SCS Same-Spin Energy      =      -0.2134415978776833 [Eh]
	 SCS Opposite-Spin Energy  =      -2.3748149436771273 [Eh]
	 SCS Correlation Energy    =      -2.5882565415548107 [Eh]
	 SCS Total Energy          =    -573.0274244318110277 [Eh]
	-----------------------------------------------------------

  Dipole Moment: [D]
     X:    -0.8525      Y:    -1.0560      Z:    -0.0132     Total:     1.3572

*** Psi4 exiting successfully. Buy a developer a beer!
