                               Psi4 1.4a3.dev225

  ==> Input File <==

--------------------------------------------------------------------------
#psi4
#
memory 32 gb

molecule  {
0 1
  N        0.0801310     2.5312230    -0.3913130
  N       -1.9006720     0.7782080     0.6229160
  C        0.3499640     0.1224320    -0.0065570
  C        0.8960730     1.4188800    -0.1658420
  C        2.6126830    -0.9843813     0.1430844
  C        1.2173430    -0.9692250     0.1590540
  C       -1.1077440    -0.1233710    -0.0042630
  C        2.2932590     1.5435480    -0.2281840
  C        3.1306880     0.4434260    -0.0762550
  C        3.5085210    -2.0251140     0.3469700
  C       -1.6410700    -1.2638430    -0.6279320
  C       -3.0109220    -1.5027310    -0.5649580
  C       -3.2228950     0.5407920     0.6622730
  C       -3.8232840    -0.5849970     0.1005040
  H        0.7834850    -1.9532010     0.3364590
  H        2.7242150     2.5332940    -0.3759070
  H        4.2098530     0.5856070    -0.1209690
  H        3.8288200    -2.0891060     1.3929170
  H        2.9990460    -2.9607700     0.0984840
  H        4.4097140    -1.9577250    -0.2701360
  H       -0.9841790    -1.9393540    -1.1680850
  H        0.5549050     3.4095210    -0.2083710
  H       -0.8007830     2.4663430     0.1128890
  H       -3.4393090    -2.3812410    -1.0417430
  H       -3.8215100     1.2923600     1.1747000
  H       -4.8979480    -0.7268890     0.1711280
units angstrom
no_reorient  #important for SAPT in psi4, default
symmetry c1  #important for SAPT in psi4, default
}

set PROPERTIES_ORIGIN ["COM"]
properties('MP2/aug-cc-pvtz', properties = ['dipole'])
--------------------------------------------------------------------------

    Molecular point group: c1
  Charge       = 0
  Multiplicity = 1
  Basis Set: AUG-CC-PVTZ
    Blend: AUG-CC-PVTZ
  Basis Set: (AUG-CC-PVTZ AUX)
    Blend: AUG-CC-PVTZ-JKFIT

    Orbital Energies [Eh]
    ---------------------

    Doubly Occupied:

       1A    -15.565855     2A    -15.550327     3A    -11.287693
       4A    -11.278817     5A    -11.278341     6A    -11.260799
       7A    -11.245709     8A    -11.239794     9A    -11.238824
      10A    -11.234802    11A    -11.232478    12A    -11.229721
      13A    -11.225921    14A    -11.216724    15A     -1.259515
      16A     -1.211512    17A     -1.126769    18A     -1.086174
      19A     -1.063111    20A     -1.033320    21A     -0.989409
      22A     -0.919323    23A     -0.865875    24A     -0.860336
      25A     -0.808742    26A     -0.780883    27A     -0.710237
      28A     -0.687746    29A     -0.678471    30A     -0.659798
      31A     -0.651435    32A     -0.621128    33A     -0.603373
      34A     -0.585735    35A     -0.583693    36A     -0.582061
      37A     -0.569591    38A     -0.550959    39A     -0.540577
      40A     -0.532713    41A     -0.514205    42A     -0.506689
      43A     -0.455291    44A     -0.428836    45A     -0.416320
      46A     -0.385640    47A     -0.363390    48A     -0.319550
      49A     -0.270090

  @DF-RHF Final Energy:  -570.47345693665238

   => Energetics <=

    Nuclear Repulsion Energy =            810.8530024473992626
    One-Electron Energy =               -2382.0363049695502013
    Two-Electron Energy =                1000.7098455854984422
    Total Energy =                       -570.4734569366523829
  Basis Set: (AUG-CC-PVTZ AUX)
    Blend: AUG-CC-PVTZ-RI
    Molecular point group: c1

    Geometry (in Angstrom), charge = 0, multiplicity = 1:

       Center              X                  Y                   Z               Mass
    ------------   -----------------  -----------------  -----------------  -----------------
         N            0.109744858613     2.520484727968    -0.392399615363    14.003074004430
         N           -1.871058141387     0.767469727968     0.621829384637    14.003074004430
         C            0.379577858613     0.111693727968    -0.007643615363    12.000000000000
         C            0.925686858613     1.408141727968    -0.166928615363    12.000000000000
         C            2.642296858613    -0.995119572032     0.141997784637    12.000000000000
         C            1.246956858613    -0.979963272032     0.157967384637    12.000000000000
         C           -1.078130141387    -0.134109272032    -0.005349615363    12.000000000000
         C            2.322872858613     1.532809727968    -0.229270615363    12.000000000000
         C            3.160301858613     0.432687727968    -0.077341615363    12.000000000000
         C            3.538134858613    -2.035852272032     0.345883384637    12.000000000000
         C           -1.611456141387    -1.274581272032    -0.629018615363    12.000000000000
         C           -2.981308141387    -1.513469272032    -0.566044615363    12.000000000000
         C           -3.193281141387     0.530053727968     0.661186384637    12.000000000000
         C           -3.793670141387    -0.595735272032     0.099417384637    12.000000000000
         H            0.813098858613    -1.963939272032     0.335372384637     1.007825032230
         H            2.753828858613     2.522555727968    -0.376993615363     1.007825032230
         H            4.239466858613     0.574868727968    -0.122055615363     1.007825032230
         H            3.858433858613    -2.099844272032     1.391830384637     1.007825032230
         H            3.028659858613    -2.971508272032     0.097397384637     1.007825032230
         H            4.439327858613    -1.968463272032    -0.271222615363     1.007825032230
         H           -0.954565141387    -1.950092272032    -1.169171615363     1.007825032230
         H            0.584518858613     3.398782727968    -0.209457615363     1.007825032230
         H           -0.771169141387     2.455604727968     0.111802384637     1.007825032230
         H           -3.409695141387    -2.391979272032    -1.042829615363     1.007825032230
         H           -3.791896141387     1.281621727968     1.173613384637     1.007825032230
         H           -4.868334141387    -0.737627272032     0.170041384637     1.007825032230

  Basis Set: AUG-CC-PVTZ
    Blend: AUG-CC-PVTZ
  Basis Set: (AUG-CC-PVTZ AUX)
    Blend: AUG-CC-PVTZ-JKFIT
	 Reference Energy          =    -570.4734569366523829 [Eh]
	 Singles Energy            =      -0.0000000000000000 [Eh]
	 Same-Spin Energy          =      -0.6422268550940431 [Eh]
	 Opposite-Spin Energy      =      -1.9808179412258378 [Eh]
	 Correlation Energy        =      -2.6230447963198809 [Eh]
	 Total Energy              =    -573.0965017329722286 [Eh]

	 ================> DF-SCS-MP2 Energies <==================
	-----------------------------------------------------------
	 SCS Same-Spin Scale       =       0.3333333333333333 [-]
	 SCS Opposite-Spin Scale   =       1.2000000000000000 [-]
	 SCS Same-Spin Energy      =      -0.2140756183646810 [Eh]
	 SCS Opposite-Spin Energy  =      -2.3769815294710051 [Eh]
	 SCS Correlation Energy    =      -2.5910571478356861 [Eh]
	 SCS Total Energy          =    -573.0645140844881098 [Eh]
	-----------------------------------------------------------

  Dipole Moment: [D]
     X:    -0.9010      Y:    -1.0203      Z:     0.0937     Total:     1.3644

*** Psi4 exiting successfully. Buy a developer a beer!
