                               Psi4 1.4a3.dev225

  ==> Input File <==

--------------------------------------------------------------------------
#psi4
#
memory 32 gb

molecule  {
0 1
  N        0.0801310     2.5312230    -0.3913130
  N       -1.9006720     0.7782080     0.6229160
  C        0.3499640     0.1224320    -0.0065570
  C        0.8960730     1.4188800    -0.1658420
  C        2.6122583    -0.9363964     0.1347209
  C        1.2173430    -0.9692250     0.1590540
  C       -1.1077440    -0.1233710    -0.0042630
  C        2.2932590     1.5435480    -0.2281840
  C        3.1306880     0.4434260    -0.0762550
  C        3.5085210    -2.0251140     0.3469700
  C       -1.6410700    -1.2638430    -0.6279320
  C       -3.0109220    -1.5027310    -0.5649580
  C       -3.2228950     0.5407920     0.6622730
  C       -3.8232840    -0.5849970     0.1005040
  H        0.7834850    -1.9532010     0.3364590
  H        2.7242150     2.5332940    -0.3759070
  H        4.2098530     0.5856070    -0.1209690
  H        3.8288200    -2.0891060     1.3929170
  H        2.9990460    -2.9607700     0.0984840
  H        4.4097140    -1.9577250    -0.2701360
  H       -0.9841790    -1.9393540    -1.1680850
  H        0.5549050     3.4095210    -0.2083710
  H       -0.8007830     2.4663430     0.1128890
  H       -3.4393090    -2.3812410    -1.0417430
  H       -3.8215100     1.2923600     1.1747000
  H       -4.8979480    -0.7268890     0.1711280
units angstrom
no_reorient  #important for SAPT in psi4, default
symmetry c1  #important for SAPT in psi4, default
}

set PROPERTIES_ORIGIN ["COM"]
properties('MP2/aug-cc-pvtz', properties = ['dipole'])
--------------------------------------------------------------------------

    Molecular point group: c1
  Charge       = 0
  Multiplicity = 1
  Basis Set: AUG-CC-PVTZ
    Blend: AUG-CC-PVTZ
  Basis Set: (AUG-CC-PVTZ AUX)
    Blend: AUG-CC-PVTZ-JKFIT

    Orbital Energies [Eh]
    ---------------------

    Doubly Occupied:

       1A    -15.566420     2A    -15.549446     3A    -11.288030
       4A    -11.279293     5A    -11.277355     6A    -11.261340
       7A    -11.241907     8A    -11.240407     9A    -11.239501
      10A    -11.232956    11A    -11.231636    12A    -11.230566
      13A    -11.224942    14A    -11.217655    15A     -1.260011
      16A     -1.211165    17A     -1.127615    18A     -1.086734
      19A     -1.062086    20A     -1.028007    21A     -0.990079
      22A     -0.918206    23A     -0.867228    24A     -0.860963
      25A     -0.810416    26A     -0.782189    27A     -0.709796
      28A     -0.688363    29A     -0.679320    30A     -0.659954
      31A     -0.650815    32A     -0.618330    33A     -0.602035
      34A     -0.586260    35A     -0.582109    36A     -0.579348
      37A     -0.570239    38A     -0.549388    39A     -0.537031
      40A     -0.531666    41A     -0.513944    42A     -0.504915
      43A     -0.466958    44A     -0.430702    45A     -0.417244
      46A     -0.386276    47A     -0.364381    48A     -0.318436
      49A     -0.272916

  @DF-RHF Final Energy:  -570.48833835141988

   => Energetics <=

    Nuclear Repulsion Energy =            811.1963090667287588
    One-Electron Energy =               -2382.7561370131688818
    Two-Electron Energy =                1001.0714895950203527
    Total Energy =                       -570.4883383514198840
  Basis Set: (AUG-CC-PVTZ AUX)
    Blend: AUG-CC-PVTZ-RI
    Molecular point group: c1

    Geometry (in Angstrom), charge = 0, multiplicity = 1:

       Center              X                  Y                   Z               Mass
    ------------   -----------------  -----------------  -----------------  -----------------
         N            0.109772541386     2.517356978654    -0.391854466131    14.003074004430
         N           -1.871030458614     0.764341978654     0.622374533869    14.003074004430
         C            0.379605541386     0.108565978654    -0.007098466131    12.000000000000
         C            0.925714541386     1.405013978654    -0.166383466131    12.000000000000
         C            2.641899841386    -0.950262421346     0.134179433869    12.000000000000
         C            1.246984541386    -0.983091021346     0.158512533869    12.000000000000
         C           -1.078102458614    -0.137237021346    -0.004804466131    12.000000000000
         C            2.322900541386     1.529681978654    -0.228725466131    12.000000000000
         C            3.160329541386     0.429559978654    -0.076796466131    12.000000000000
         C            3.538162541386    -2.038980021346     0.346428533869    12.000000000000
         C           -1.611428458614    -1.277709021346    -0.628473466131    12.000000000000
         C           -2.981280458614    -1.516597021346    -0.565499466131    12.000000000000
         C           -3.193253458614     0.526925978654     0.661731533869    12.000000000000
         C           -3.793642458614    -0.598863021346     0.099962533869    12.000000000000
         H            0.813126541386    -1.967067021346     0.335917533869     1.007825032230
         H            2.753856541386     2.519427978654    -0.376448466131     1.007825032230
         H            4.239494541386     0.571740978654    -0.121510466131     1.007825032230
         H            3.858461541386    -2.102972021346     1.392375533869     1.007825032230
         H            3.028687541386    -2.974636021346     0.097942533869     1.007825032230
         H            4.439355541386    -1.971591021346    -0.270677466131     1.007825032230
         H           -0.954537458614    -1.953220021346    -1.168626466131     1.007825032230
         H            0.584546541386     3.395654978654    -0.208912466131     1.007825032230
         H           -0.771141458614     2.452476978654     0.112347533869     1.007825032230
         H           -3.409667458614    -2.395107021346    -1.042284466131     1.007825032230
         H           -3.791868458614     1.278493978654     1.174158533869     1.007825032230
         H           -4.868306458614    -0.740755021346     0.170586533869     1.007825032230

  Basis Set: AUG-CC-PVTZ
    Blend: AUG-CC-PVTZ
  Basis Set: (AUG-CC-PVTZ AUX)
    Blend: AUG-CC-PVTZ-JKFIT
	 Reference Energy          =    -570.4883383514198840 [Eh]
	 Singles Energy            =      -0.0000000000000000 [Eh]
	 Same-Spin Energy          =      -0.6416465590090354 [Eh]
	 Opposite-Spin Energy      =      -1.9794503647243618 [Eh]
	 Correlation Energy        =      -2.6210969237333970 [Eh]
	 Total Energy              =    -573.1094352751532597 [Eh]

	 ================> DF-SCS-MP2 Energies <==================
	-----------------------------------------------------------
	 SCS Same-Spin Scale       =       0.3333333333333333 [-]
	 SCS Opposite-Spin Scale   =       1.2000000000000000 [-]
	 SCS Same-Spin Energy      =      -0.2138821863363451 [Eh]
	 SCS Opposite-Spin Energy  =      -2.3753404376692342 [Eh]
	 SCS Correlation Energy    =      -2.5892226240055791 [Eh]
	 SCS Total Energy          =    -573.0775609754255129 [Eh]
	-----------------------------------------------------------

  Dipole Moment: [D]
     X:    -0.9682      Y:    -0.9993      Z:     0.0878     Total:     1.3942

*** Psi4 exiting successfully. Buy a developer a beer!
