                               Psi4 1.4a3.dev225

  ==> Input File <==

--------------------------------------------------------------------------
#psi4
#
memory 32 gb

molecule  {
0 1
  N        0.0801310     2.5312230    -0.3913130
  N       -1.9006720     0.7782080     0.6229160
  C        0.3499640     0.1224320    -0.0065570
  C        0.8960730     1.4188800    -0.1658420
  C        2.6063130    -0.8406050     0.1180930
  C        1.2173430    -0.9692250     0.1590540
  C       -1.1077440    -0.1233710    -0.0042630
  C        2.2932590     1.5435480    -0.2281840
  C        3.1306880     0.4434260    -0.0762550
  C        3.5085210    -2.0251140     0.3469700
  C       -1.6410700    -1.2638430    -0.6279320
  C       -3.0910645    -1.5544956    -0.5842838
  C       -3.2228950     0.5407920     0.6622730
  C       -3.8232840    -0.5849970     0.1005040
  H        0.7834850    -1.9532010     0.3364590
  H        2.7242150     2.5332940    -0.3759070
  H        4.2098530     0.5856070    -0.1209690
  H        3.8288200    -2.0891060     1.3929170
  H        2.9990460    -2.9607700     0.0984840
  H        4.4097140    -1.9577250    -0.2701360
  H       -0.9841790    -1.9393540    -1.1680850
  H        0.5549050     3.4095210    -0.2083710
  H       -0.8007830     2.4663430     0.1128890
  H       -3.4393090    -2.3812410    -1.0417430
  H       -3.8215100     1.2923600     1.1747000
  H       -4.8979480    -0.7268890     0.1711280
units angstrom
no_reorient  #important for SAPT in psi4, default
symmetry c1  #important for SAPT in psi4, default
}

set PROPERTIES_ORIGIN ["COM"]
properties('MP2/aug-cc-pvtz', properties = ['dipole'])
--------------------------------------------------------------------------

    Molecular point group: c1
  Charge       = 0
  Multiplicity = 1
  Basis Set: AUG-CC-PVTZ
    Blend: AUG-CC-PVTZ
  Basis Set: (AUG-CC-PVTZ AUX)
    Blend: AUG-CC-PVTZ-JKFIT

    Orbital Energies [Eh]
    ---------------------

    Doubly Occupied:

       1A    -15.569779     2A    -15.547195     3A    -11.286657
       4A    -11.282982     5A    -11.274300     6A    -11.267050
       7A    -11.249417     8A    -11.245165     9A    -11.232555
      10A    -11.231453    11A    -11.231272    12A    -11.225694
      13A    -11.221896    14A    -11.218826    15A     -1.259544
      16A     -1.209876    17A     -1.130732    18A     -1.081541
      19A     -1.060970    20A     -1.015225    21A     -0.988580
      22A     -0.914597    23A     -0.872542    24A     -0.865828
      25A     -0.813155    26A     -0.786336    27A     -0.712093
      28A     -0.688513    29A     -0.680936    30A     -0.661041
      31A     -0.647320    32A     -0.618859    33A     -0.599376
      34A     -0.594711    35A     -0.582511    36A     -0.579881
      37A     -0.570556    38A     -0.545854    39A     -0.530269
      40A     -0.518641    41A     -0.510890    42A     -0.490769
      43A     -0.484351    44A     -0.434779    45A     -0.421509
      46A     -0.384362    47A     -0.362664    48A     -0.315485
      49A     -0.277628

  @DF-RHF Final Energy:  -570.48756232940434

   => Energetics <=

    Nuclear Repulsion Energy =            810.1249373124983322
    One-Electron Energy =               -2380.6326739454257222
    Two-Electron Energy =                1000.0201743035230493
    Total Energy =                       -570.4875623294043407
  Basis Set: (AUG-CC-PVTZ AUX)
    Blend: AUG-CC-PVTZ-RI
    Molecular point group: c1

    Geometry (in Angstrom), charge = 0, multiplicity = 1:

       Center              X                  Y                   Z               Mass
    ------------   -----------------  -----------------  -----------------  -----------------
         N            0.115383911992     2.514487226014    -0.389510933884    14.003074004430
         N           -1.865419088008     0.761472226014     0.624718066116    14.003074004430
         C            0.385216911992     0.105696226014    -0.004754933884    12.000000000000
         C            0.931325911992     1.402144226014    -0.164039933884    12.000000000000
         C            2.641565911992    -0.857340773986     0.119895066116    12.000000000000
         C            1.252595911992    -0.985960773986     0.160856066116    12.000000000000
         C           -1.072491088008    -0.140106773986    -0.002460933884    12.000000000000
         C            2.328511911992     1.526812226014    -0.226381933884    12.000000000000
         C            3.165940911992     0.426690226014    -0.074452933884    12.000000000000
         C            3.543773911992    -2.041849773986     0.348772066116    12.000000000000
         C           -1.605817088008    -1.280578773986    -0.626129933884    12.000000000000
         C           -3.055811588008    -1.571231373986    -0.582481733884    12.000000000000
         C           -3.187642088008     0.524056226014     0.664075066116    12.000000000000
         C           -3.788031088008    -0.601732773986     0.102306066116    12.000000000000
         H            0.818737911992    -1.969936773986     0.338261066116     1.007825032230
         H            2.759467911992     2.516558226014    -0.374104933884     1.007825032230
         H            4.245105911992     0.568871226014    -0.119166933884     1.007825032230
         H            3.864072911992    -2.105841773986     1.394719066116     1.007825032230
         H            3.034298911992    -2.977505773986     0.100286066116     1.007825032230
         H            4.444966911992    -1.974460773986    -0.268333933884     1.007825032230
         H           -0.948926088008    -1.956089773986    -1.166282933884     1.007825032230
         H            0.590157911992     3.392785226014    -0.206568933884     1.007825032230
         H           -0.765530088008     2.449607226014     0.114691066116     1.007825032230
         H           -3.404056088008    -2.397976773986    -1.039940933884     1.007825032230
         H           -3.786257088008     1.275624226014     1.176502066116     1.007825032230
         H           -4.862695088008    -0.743624773986     0.172930066116     1.007825032230

  Basis Set: AUG-CC-PVTZ
    Blend: AUG-CC-PVTZ
  Basis Set: (AUG-CC-PVTZ AUX)
    Blend: AUG-CC-PVTZ-JKFIT
	 Reference Energy          =    -570.4875623294043407 [Eh]
	 Singles Energy            =      -0.0000000000000000 [Eh]
	 Same-Spin Energy          =      -0.6411889108140501 [Eh]
	 Opposite-Spin Energy      =      -1.9792737873523893 [Eh]
	 Correlation Energy        =      -2.6204626981664392 [Eh]
	 Total Energy              =    -573.1080250275707613 [Eh]

	 ================> DF-SCS-MP2 Energies <==================
	-----------------------------------------------------------
	 SCS Same-Spin Scale       =       0.3333333333333333 [-]
	 SCS Opposite-Spin Scale   =       1.2000000000000000 [-]
	 SCS Same-Spin Energy      =      -0.2137296369380167 [Eh]
	 SCS Opposite-Spin Energy  =      -2.3751285448228669 [Eh]
	 SCS Correlation Energy    =      -2.5888581817608838 [Eh]
	 SCS Total Energy          =    -573.0764205111652245 [Eh]
	-----------------------------------------------------------

  Dipole Moment: [D]
     X:    -1.1460      Y:    -1.0009      Z:     0.0631     Total:     1.5228

*** Psi4 exiting successfully. Buy a developer a beer!
