                               Psi4 1.4a3.dev225

  ==> Input File <==

--------------------------------------------------------------------------
#psi4
#
memory 32 gb

molecule  {
0 1
  N        0.0801310     2.5312230    -0.3913130
  N       -1.9006720     0.7782080     0.6229160
  C        0.3499640     0.1224320    -0.0065570
  C        0.9252592     1.3790916    -0.1577769
  C        2.6063130    -0.8406050     0.1180930
  C        1.2173430    -0.9692250     0.1590540
  C       -1.1077440    -0.1233710    -0.0042630
  C        2.2932590     1.5435480    -0.2281840
  C        3.1306880     0.4434260    -0.0762550
  C        3.5085210    -2.0251140     0.3469700
  C       -1.6410700    -1.2638430    -0.6279320
  C       -3.0109220    -1.5027310    -0.5649580
  C       -3.2228950     0.5407920     0.6622730
  C       -3.8232840    -0.5849970     0.1005040
  H        0.7834850    -1.9532010     0.3364590
  H        2.7242150     2.5332940    -0.3759070
  H        4.2098530     0.5856070    -0.1209690
  H        3.8288200    -2.0891060     1.3929170
  H        2.9990460    -2.9607700     0.0984840
  H        4.4097140    -1.9577250    -0.2701360
  H       -0.9841790    -1.9393540    -1.1680850
  H        0.5549050     3.4095210    -0.2083710
  H       -0.8007830     2.4663430     0.1128890
  H       -3.4393090    -2.3812410    -1.0417430
  H       -3.8215100     1.2923600     1.1747000
  H       -4.8979480    -0.7268890     0.1711280
units angstrom
no_reorient  #important for SAPT in psi4, default
symmetry c1  #important for SAPT in psi4, default
}

set PROPERTIES_ORIGIN ["COM"]
properties('MP2/aug-cc-pvtz', properties = ['dipole'])
--------------------------------------------------------------------------

    Molecular point group: c1
  Charge       = 0
  Multiplicity = 1
  Basis Set: AUG-CC-PVTZ
    Blend: AUG-CC-PVTZ
  Basis Set: (AUG-CC-PVTZ AUX)
    Blend: AUG-CC-PVTZ-JKFIT

    Orbital Energies [Eh]
    ---------------------

    Doubly Occupied:

       1A    -15.568045     2A    -15.541841     3A    -11.290110
       4A    -11.280455     5A    -11.270711     6A    -11.262965
       7A    -11.242433     8A    -11.242049     9A    -11.234096
      10A    -11.233310    11A    -11.232525    12A    -11.229054
      13A    -11.222438    14A    -11.220891    15A     -1.261014
      16A     -1.197968    17A     -1.130271    18A     -1.088384
      19A     -1.064685    20A     -1.019936    21A     -0.995245
      22A     -0.917205    23A     -0.872097    24A     -0.862973
      25A     -0.817825    26A     -0.783331    27A     -0.710064
      28A     -0.685580    29A     -0.675506    30A     -0.660145
      31A     -0.649673    32A     -0.613051    33A     -0.602721
      34A     -0.591379    35A     -0.578275    36A     -0.572895
      37A     -0.570108    38A     -0.548324    39A     -0.533615
      40A     -0.531094    41A     -0.510987    42A     -0.492037
      43A     -0.489519    44A     -0.430211    45A     -0.418424
      46A     -0.387903    47A     -0.367548    48A     -0.317866
      49A     -0.284854

  @DF-RHF Final Energy:  -570.49942191118112

   => Energetics <=

    Nuclear Repulsion Energy =            812.3228463545784734
    One-Electron Energy =               -2385.0372712251901248
    Two-Electron Energy =                1002.2150029594306488
    Total Energy =                       -570.4994219111811162
  Basis Set: (AUG-CC-PVTZ AUX)
    Blend: AUG-CC-PVTZ-RI
    Molecular point group: c1

    Geometry (in Angstrom), charge = 0, multiplicity = 1:

       Center              X                  Y                   Z               Mass
    ------------   -----------------  -----------------  -----------------  -----------------
         N            0.108257654224     2.513706593954    -0.391296326136    14.003074004430
         N           -1.872545345776     0.760691593954     0.622932673864    14.003074004430
         C            0.378090654224     0.104915593954    -0.006540326136    12.000000000000
         C            0.953385854224     1.361575193954    -0.157760226136    12.000000000000
         C            2.634439654224    -0.858121406046     0.118109673864    12.000000000000
         C            1.245469654224    -0.986741406046     0.159070673864    12.000000000000
         C           -1.079617345776    -0.140887406046    -0.004246326136    12.000000000000
         C            2.321385654224     1.526031593954    -0.228167326136    12.000000000000
         C            3.158814654224     0.425909593954    -0.076238326136    12.000000000000
         C            3.536647654224    -2.042630406046     0.346986673864    12.000000000000
         C           -1.612943345776    -1.281359406046    -0.627915326136    12.000000000000
         C           -2.982795345776    -1.520247406046    -0.564941326136    12.000000000000
         C           -3.194768345776     0.523275593954     0.662289673864    12.000000000000
         C           -3.795157345776    -0.602513406046     0.100520673864    12.000000000000
         H            0.811611654224    -1.970717406046     0.336475673864     1.007825032230
         H            2.752341654224     2.515777593954    -0.375890326136     1.007825032230
         H            4.237979654224     0.568090593954    -0.120952326136     1.007825032230
         H            3.856946654224    -2.106622406046     1.392933673864     1.007825032230
         H            3.027172654224    -2.978286406046     0.098500673864     1.007825032230
         H            4.437840654224    -1.975241406046    -0.270119326136     1.007825032230
         H           -0.956052345776    -1.956870406046    -1.168068326136     1.007825032230
         H            0.583031654224     3.392004593954    -0.208354326136     1.007825032230
         H           -0.772656345776     2.448826593954     0.112905673864     1.007825032230
         H           -3.411182345776    -2.398757406046    -1.041726326136     1.007825032230
         H           -3.793383345776     1.274843593954     1.174716673864     1.007825032230
         H           -4.869821345776    -0.744405406046     0.171144673864     1.007825032230

  Basis Set: AUG-CC-PVTZ
    Blend: AUG-CC-PVTZ
  Basis Set: (AUG-CC-PVTZ AUX)
    Blend: AUG-CC-PVTZ-JKFIT
	 Reference Energy          =    -570.4994219111811162 [Eh]
	 Singles Energy            =      -0.0000000000000000 [Eh]
	 Same-Spin Energy          =      -0.6405246920227704 [Eh]
	 Opposite-Spin Energy      =      -1.9775805716400825 [Eh]
	 Correlation Energy        =      -2.6181052636628528 [Eh]
	 Total Energy              =    -573.1175271748439854 [Eh]

	 ================> DF-SCS-MP2 Energies <==================
	-----------------------------------------------------------
	 SCS Same-Spin Scale       =       0.3333333333333333 [-]
	 SCS Opposite-Spin Scale   =       1.2000000000000000 [-]
	 SCS Same-Spin Energy      =      -0.2135082306742568 [Eh]
	 SCS Opposite-Spin Energy  =      -2.3730966859680991 [Eh]
	 SCS Correlation Energy    =      -2.5866049166423557 [Eh]
	 SCS Total Energy          =    -573.0860268278235026 [Eh]
	-----------------------------------------------------------

  Dipole Moment: [D]
     X:    -0.9632      Y:    -1.2265      Z:     0.1282     Total:     1.5648

*** Psi4 exiting successfully. Buy a developer a beer!
