                               Psi4 1.4a3.dev225

  ==> Input File <==

--------------------------------------------------------------------------
#psi4
#
memory 32 gb

molecule  {
0 1
  N        0.0801310     2.5312230    -0.3913130
  N       -1.9006720     0.7782080     0.6229160
  C        0.3499640     0.1224320    -0.0065570
  C        0.8960730     1.4188800    -0.1658420
  C        2.6063130    -0.8406050     0.1180930
  C        1.2173430    -0.9692250     0.1590540
  C       -1.1077440    -0.1233710    -0.0042630
  C        2.2932590     1.5435480    -0.2281840
  C        3.1306880     0.4434260    -0.0762550
  C        3.5085210    -2.0251140     0.3469700
  C       -1.6410700    -1.2638430    -0.6279320
  C       -3.0109220    -1.5027310    -0.5649580
  C       -3.2228950     0.5407920     0.6622730
  C       -3.8232840    -0.5849970     0.1005040
  H        0.7834850    -1.9532010     0.3364590
  H        2.7242150     2.5332940    -0.3759070
  H        4.2098530     0.5856070    -0.1209690
  H        3.8346661    -2.0902740     1.4120078
  H        2.9990460    -2.9607700     0.0984840
  H        4.4097140    -1.9577250    -0.2701360
  H       -0.9841790    -1.9393540    -1.1680850
  H        0.5549050     3.4095210    -0.2083710
  H       -0.8007830     2.4663430     0.1128890
  H       -3.4393090    -2.3812410    -1.0417430
  H       -3.8215100     1.2923600     1.1747000
  H       -4.8979480    -0.7268890     0.1711280
units angstrom
no_reorient  #important for SAPT in psi4, default
symmetry c1  #important for SAPT in psi4, default
}

set PROPERTIES_ORIGIN ["COM"]
properties('MP2/aug-cc-pvtz', properties = ['dipole'])
--------------------------------------------------------------------------

    Molecular point group: c1
  Charge       = 0
  Multiplicity = 1
  Basis Set: AUG-CC-PVTZ
    Blend: AUG-CC-PVTZ
  Basis Set: (AUG-CC-PVTZ AUX)
    Blend: AUG-CC-PVTZ-JKFIT

    Orbital Energies [Eh]
    ---------------------

    Doubly Occupied:

       1A    -15.567576     2A    -15.547804     3A    -11.288722
       4A    -11.280265     5A    -11.275490     6A    -11.262439
       7A    -11.241649     8A    -11.240876     9A    -11.233569
      10A    -11.232653    11A    -11.232376    12A    -11.226773
      13A    -11.222783    14A    -11.221901    15A     -1.261049
      16A     -1.210721    17A     -1.131707    18A     -1.087876
      19A     -1.063018    20A     -1.015723    21A     -0.992392
      22A     -0.914381    23A     -0.870597    24A     -0.862127
      25A     -0.814783    26A     -0.783241    27A     -0.708861
      28A     -0.689850    29A     -0.681450    30A     -0.660498
      31A     -0.650163    32A     -0.613554    33A     -0.600654
      34A     -0.589057    35A     -0.582024    36A     -0.573000
      37A     -0.567836    38A     -0.547819    39A     -0.532352
      40A     -0.529541    41A     -0.512905    42A     -0.492786
      43A     -0.485815    44A     -0.434910    45A     -0.418841
      46A     -0.387595    47A     -0.366641    48A     -0.316531
      49A     -0.278522

  @DF-RHF Final Energy:  -570.50123011311018

   => Energetics <=

    Nuclear Repulsion Energy =            811.9246557159509621
    One-Electron Energy =               -2384.2443788351624789
    Two-Electron Energy =                1001.8184930061014484
    Total Energy =                       -570.5012301131101822
  Basis Set: (AUG-CC-PVTZ AUX)
    Blend: AUG-CC-PVTZ-RI
    Molecular point group: c1

    Geometry (in Angstrom), charge = 0, multiplicity = 1:

       Center              X                  Y                   Z               Mass
    ------------   -----------------  -----------------  -----------------  -----------------
         N            0.110128064129     2.511119502508    -0.390875136601    14.003074004430
         N           -1.870674935871     0.758104502508     0.623353863399    14.003074004430
         C            0.379961064129     0.102328502508    -0.006119136601    12.000000000000
         C            0.926070064129     1.398776502508    -0.165404136601    12.000000000000
         C            2.636310064129    -0.860708497492     0.118530863399    12.000000000000
         C            1.247340064129    -0.989328497492     0.159491863399    12.000000000000
         C           -1.077746935871    -0.143474497492    -0.003825136601    12.000000000000
         C            2.323256064129     1.523444502508    -0.227746136601    12.000000000000
         C            3.160685064129     0.423322502508    -0.075817136601    12.000000000000
         C            3.538518064129    -2.045217497492     0.347407863399    12.000000000000
         C           -1.611072935871    -1.283946497492    -0.627494136601    12.000000000000
         C           -2.980924935871    -1.522834497492    -0.564520136601    12.000000000000
         C           -3.192897935871     0.520688502508     0.662710863399    12.000000000000
         C           -3.793286935871    -0.605100497492     0.100941863399    12.000000000000
         H            0.813482064129    -1.973304497492     0.336896863399     1.007825032230
         H            2.754212064129     2.513190502508    -0.375469136601     1.007825032230
         H            4.239850064129     0.565503502508    -0.120531136601     1.007825032230
         H            3.864663164129    -2.110377497492     1.412445663399     1.007825032230
         H            3.029043064129    -2.980873497492     0.098921863399     1.007825032230
         H            4.439711064129    -1.977828497492    -0.269698136601     1.007825032230
         H           -0.954181935871    -1.959457497492    -1.167647136601     1.007825032230
         H            0.584902064129     3.389417502508    -0.207933136601     1.007825032230
         H           -0.770785935871     2.446239502508     0.113326863399     1.007825032230
         H           -3.409311935871    -2.401344497492    -1.041305136601     1.007825032230
         H           -3.791512935871     1.272256502508     1.175137863399     1.007825032230
         H           -4.867950935871    -0.746992497492     0.171565863399     1.007825032230

  Basis Set: AUG-CC-PVTZ
    Blend: AUG-CC-PVTZ
  Basis Set: (AUG-CC-PVTZ AUX)
    Blend: AUG-CC-PVTZ-JKFIT
	 Reference Energy          =    -570.5012301131101822 [Eh]
	 Singles Energy            =      -0.0000000000000000 [Eh]
	 Same-Spin Energy          =      -0.6408290688178233 [Eh]
	 Opposite-Spin Energy      =      -1.9778055082715844 [Eh]
	 Correlation Energy        =      -2.6186345770894075 [Eh]
	 Total Energy              =    -573.1198646901996199 [Eh]

	 ================> DF-SCS-MP2 Energies <==================
	-----------------------------------------------------------
	 SCS Same-Spin Scale       =       0.3333333333333333 [-]
	 SCS Opposite-Spin Scale   =       1.2000000000000000 [-]
	 SCS Same-Spin Energy      =      -0.2136096896059411 [Eh]
	 SCS Opposite-Spin Energy  =      -2.3733666099259012 [Eh]
	 SCS Correlation Energy    =      -2.5869762995318424 [Eh]
	 SCS Total Energy          =    -573.0882064126420801 [Eh]
	-----------------------------------------------------------

  Dipole Moment: [D]
     X:    -1.1063      Y:    -0.9563      Z:     0.0682     Total:     1.4639

*** Psi4 exiting successfully. Buy a developer a beer!
