                               Psi4 1.4a3.dev225

  ==> Input File <==

--------------------------------------------------------------------------
#psi4
#
memory 32 gb

molecule  {
0 1
  N        0.0801310     2.5312230    -0.3913130
  N       -1.9006720     0.7782080     0.6229160
  C        0.3499640     0.1224320    -0.0065570
  C        0.8960730     1.4188800    -0.1658420
  C        2.6063130    -0.8406050     0.1180930
  C        1.2173430    -0.9692250     0.1590540
  C       -1.1077440    -0.1233710    -0.0042630
  C        2.2435060     1.5391086    -0.2259640
  C        3.1306880     0.4434260    -0.0762550
  C        3.5085210    -2.0251140     0.3469700
  C       -1.6410700    -1.2638430    -0.6279320
  C       -3.0109220    -1.5027310    -0.5649580
  C       -3.2228950     0.5407920     0.6622730
  C       -3.8232840    -0.5849970     0.1005040
  H        0.7834850    -1.9532010     0.3364590
  H        2.7242150     2.5332940    -0.3759070
  H        4.2098530     0.5856070    -0.1209690
  H        3.8288200    -2.0891060     1.3929170
  H        2.9990460    -2.9607700     0.0984840
  H        4.4097140    -1.9577250    -0.2701360
  H       -0.9841790    -1.9393540    -1.1680850
  H        0.5549050     3.4095210    -0.2083710
  H       -0.8007830     2.4663430     0.1128890
  H       -3.4393090    -2.3812410    -1.0417430
  H       -3.8215100     1.2923600     1.1747000
  H       -4.8979480    -0.7268890     0.1711280
units angstrom
no_reorient  #important for SAPT in psi4, default
symmetry c1  #important for SAPT in psi4, default
}

set PROPERTIES_ORIGIN ["COM"]
properties('MP2/aug-cc-pvtz', properties = ['dipole'])
--------------------------------------------------------------------------

    Molecular point group: c1
  Charge       = 0
  Multiplicity = 1
  Basis Set: AUG-CC-PVTZ
    Blend: AUG-CC-PVTZ
  Basis Set: (AUG-CC-PVTZ AUX)
    Blend: AUG-CC-PVTZ-JKFIT

    Orbital Energies [Eh]
    ---------------------

    Doubly Occupied:

       1A    -15.567922     2A    -15.544739     3A    -11.289001
       4A    -11.280457     5A    -11.268136     6A    -11.262645
       7A    -11.242038     8A    -11.241277     9A    -11.235105
      10A    -11.234910    11A    -11.233175    12A    -11.227849
      13A    -11.220904    14A    -11.220024    15A     -1.261405
      16A     -1.211817    17A     -1.131550    18A     -1.088159
      19A     -1.062653    20A     -1.018990    21A     -0.990536
      22A     -0.918209    23A     -0.873050    24A     -0.862189
      25A     -0.814208    26A     -0.782152    27A     -0.709208
      28A     -0.689296    29A     -0.681445    30A     -0.660350
      31A     -0.650215    32A     -0.609483    33A     -0.601220
      34A     -0.588107    35A     -0.583656    36A     -0.573350
      37A     -0.569956    38A     -0.548768    39A     -0.533417
      40A     -0.529995    41A     -0.515104    42A     -0.493852
      43A     -0.482409    44A     -0.434026    45A     -0.419040
      46A     -0.387578    47A     -0.365650    48A     -0.315003
      49A     -0.282640

  @DF-RHF Final Energy:  -570.49855002644915

   => Energetics <=

    Nuclear Repulsion Energy =            812.7771727919902105
    One-Electron Energy =               -2385.9377078023940157
    Two-Electron Energy =                1002.6619849839545395
    Total Energy =                       -570.4985500264491520
  Basis Set: (AUG-CC-PVTZ AUX)
    Blend: AUG-CC-PVTZ-RI
    Molecular point group: c1

    Geometry (in Angstrom), charge = 0, multiplicity = 1:

       Center              X                  Y                   Z               Mass
    ------------   -----------------  -----------------  -----------------  -----------------
         N            0.113403065147     2.511402477232    -0.390915331125    14.003074004430
         N           -1.867399934853     0.758387477232     0.623313668875    14.003074004430
         C            0.383236065147     0.102611477232    -0.006159331125    12.000000000000
         C            0.929345065147     1.399059477232    -0.165444331125    12.000000000000
         C            2.639585065147    -0.860425522768     0.118490668875    12.000000000000
         C            1.250615065147    -0.989045522768     0.159451668875    12.000000000000
         C           -1.074471934853    -0.143191522768    -0.003865331125    12.000000000000
         C            2.276778065147     1.519288077232    -0.225566331125    12.000000000000
         C            3.163960065147     0.423605477232    -0.075857331125    12.000000000000
         C            3.541793065147    -2.044934522768     0.347367668875    12.000000000000
         C           -1.607797934853    -1.283663522768    -0.627534331125    12.000000000000
         C           -2.977649934853    -1.522551522768    -0.564560331125    12.000000000000
         C           -3.189622934853     0.520971477232     0.662670668875    12.000000000000
         C           -3.790011934853    -0.604817522768     0.100901668875    12.000000000000
         H            0.816757065147    -1.973021522768     0.336856668875     1.007825032230
         H            2.757487065147     2.513473477232    -0.375509331125     1.007825032230
         H            4.243125065147     0.565786477232    -0.120571331125     1.007825032230
         H            3.862092065147    -2.108926522768     1.393314668875     1.007825032230
         H            3.032318065147    -2.980590522768     0.098881668875     1.007825032230
         H            4.442986065147    -1.977545522768    -0.269738331125     1.007825032230
         H           -0.950906934853    -1.959174522768    -1.167687331125     1.007825032230
         H            0.588177065147     3.389700477232    -0.207973331125     1.007825032230
         H           -0.767510934853     2.446522477232     0.113286668875     1.007825032230
         H           -3.406036934853    -2.401061522768    -1.041345331125     1.007825032230
         H           -3.788237934853     1.272539477232     1.175097668875     1.007825032230
         H           -4.864675934853    -0.746709522768     0.171525668875     1.007825032230

  Basis Set: AUG-CC-PVTZ
    Blend: AUG-CC-PVTZ
  Basis Set: (AUG-CC-PVTZ AUX)
    Blend: AUG-CC-PVTZ-JKFIT
	 Reference Energy          =    -570.4985500264491520 [Eh]
	 Singles Energy            =      -0.0000000000000000 [Eh]
	 Same-Spin Energy          =      -0.6409478760829778 [Eh]
	 Opposite-Spin Energy      =      -1.9778894210173679 [Eh]
	 Correlation Energy        =      -2.6188372971003457 [Eh]
	 Total Energy              =    -573.1173873235494511 [Eh]

	 ================> DF-SCS-MP2 Energies <==================
	-----------------------------------------------------------
	 SCS Same-Spin Scale       =       0.3333333333333333 [-]
	 SCS Opposite-Spin Scale   =       1.2000000000000000 [-]
	 SCS Same-Spin Energy      =      -0.2136492920276593 [Eh]
	 SCS Opposite-Spin Energy  =      -2.3734673052208413 [Eh]
	 SCS Correlation Energy    =      -2.5871165972485004 [Eh]
	 SCS Total Energy          =    -573.0856666236976480 [Eh]
	-----------------------------------------------------------

  Dipole Moment: [D]
     X:    -1.0733      Y:    -1.0607      Z:     0.0972     Total:     1.5122

*** Psi4 exiting successfully. Buy a developer a beer!
