                               Psi4 1.4a3.dev225

  ==> Input File <==

--------------------------------------------------------------------------
#psi4
#
memory 32 gb

molecule  {
0 1
  N        0.0801310     2.5312230    -0.3913130
  N       -1.9006720     0.7782080     0.6229160
  C        0.3499640     0.1224320    -0.0065570
  C        0.8960730     1.4188800    -0.1658420
  C        2.6063130    -0.8406050     0.1180930
  C        1.2173430    -0.9692250     0.1590540
  C       -1.1077440    -0.1233710    -0.0042630
  C        2.2932590     1.5435480    -0.2281840
  C        3.1306880     0.4434260    -0.0762550
  C        3.5085210    -2.0251140     0.3469700
  C       -1.6410700    -1.2638430    -0.6279320
  C       -3.0306015    -1.5161016    -0.5700973
  C       -3.2228950     0.5407920     0.6622730
  C       -3.8232840    -0.5849970     0.1005040
  H        0.7834850    -1.9532010     0.3364590
  H        2.7242150     2.5332940    -0.3759070
  H        4.2098530     0.5856070    -0.1209690
  H        3.8288200    -2.0891060     1.3929170
  H        2.9990460    -2.9607700     0.0984840
  H        4.4097140    -1.9577250    -0.2701360
  H       -0.9841790    -1.9393540    -1.1680850
  H        0.5549050     3.4095210    -0.2083710
  H       -0.8007830     2.4663430     0.1128890
  H       -3.4393090    -2.3812410    -1.0417430
  H       -3.8215100     1.2923600     1.1747000
  H       -4.8979480    -0.7268890     0.1711280
units angstrom
no_reorient  #important for SAPT in psi4, default
symmetry c1  #important for SAPT in psi4, default
}

set PROPERTIES_ORIGIN ["COM"]
properties('MP2/aug-cc-pvtz', properties = ['dipole'])
--------------------------------------------------------------------------

    Molecular point group: c1
  Charge       = 0
  Multiplicity = 1
  Basis Set: AUG-CC-PVTZ
    Blend: AUG-CC-PVTZ
  Basis Set: (AUG-CC-PVTZ AUX)
    Blend: AUG-CC-PVTZ-JKFIT

    Orbital Energies [Eh]
    ---------------------

    Doubly Occupied:

       1A    -15.568057     2A    -15.547568     3A    -11.288140
       4A    -11.280869     5A    -11.275092     6A    -11.263541
       7A    -11.243074     8A    -11.242368     9A    -11.233203
      10A    -11.232259    11A    -11.232034    12A    -11.226378
      13A    -11.222491    14A    -11.219323    15A     -1.260529
      16A     -1.210421    17A     -1.131417    18A     -1.085878
      19A     -1.062557    20A     -1.015884    21A     -0.991360
      22A     -0.915283    23A     -0.869381    24A     -0.864420
      25A     -0.814229    26A     -0.784103    27A     -0.709448
      28A     -0.689459    29A     -0.681226    30A     -0.660222
      31A     -0.649438    32A     -0.614485    33A     -0.600222
      34A     -0.589150    35A     -0.581677    36A     -0.577367
      37A     -0.570786    38A     -0.547612    39A     -0.531300
      40A     -0.527304    41A     -0.512623    42A     -0.492467
      43A     -0.485418    44A     -0.434972    45A     -0.419602
      46A     -0.386362    47A     -0.365771    48A     -0.316231
      49A     -0.278288

  @DF-RHF Final Energy:  -570.50054549943616

   => Energetics <=

    Nuclear Repulsion Energy =            811.5269492618198228
    One-Electron Energy =               -2383.4524081826662041
    Two-Electron Energy =                1001.4249134214101105
    Total Energy =                       -570.5005454994361571
  Basis Set: (AUG-CC-PVTZ AUX)
    Blend: AUG-CC-PVTZ-RI
    Molecular point group: c1

    Geometry (in Angstrom), charge = 0, multiplicity = 1:

       Center              X                  Y                   Z               Mass
    ------------   -----------------  -----------------  -----------------  -----------------
         N            0.111442815798     2.511984630257    -0.390435637606    14.003074004430
         N           -1.869360184202     0.758969630257     0.623793362394    14.003074004430
         C            0.381275815798     0.103193630257    -0.005679637606    12.000000000000
         C            0.927384815798     1.399641630257    -0.164964637606    12.000000000000
         C            2.637624815798    -0.859843369743     0.118970362394    12.000000000000
         C            1.248654815798    -0.988463369743     0.159931362394    12.000000000000
         C           -1.076432184202    -0.142609369743    -0.003385637606    12.000000000000
         C            2.324570815798     1.524309630257    -0.227306637606    12.000000000000
         C            3.161999815798     0.424187630257    -0.075377637606    12.000000000000
         C            3.539832815798    -2.044352369743     0.347847362394    12.000000000000
         C           -1.609758184202    -1.283081369743    -0.627054637606    12.000000000000
         C           -2.999289684202    -1.535339969743    -0.569219937606    12.000000000000
         C           -3.191583184202     0.521553630257     0.663150362394    12.000000000000
         C           -3.791972184202    -0.604235369743     0.101381362394    12.000000000000
         H            0.814796815798    -1.972439369743     0.337336362394     1.007825032230
         H            2.755526815798     2.514055630257    -0.375029637606     1.007825032230
         H            4.241164815798     0.566368630257    -0.120091637606     1.007825032230
         H            3.860131815798    -2.108344369743     1.393794362394     1.007825032230
         H            3.030357815798    -2.980008369743     0.099361362394     1.007825032230
         H            4.441025815798    -1.976963369743    -0.269258637606     1.007825032230
         H           -0.952867184202    -1.958592369743    -1.167207637606     1.007825032230
         H            0.586216815798     3.390282630257    -0.207493637606     1.007825032230
         H           -0.769471184202     2.447104630257     0.113766362394     1.007825032230
         H           -3.407997184202    -2.400479369743    -1.040865637606     1.007825032230
         H           -3.790198184202     1.273121630257     1.175577362394     1.007825032230
         H           -4.866636184202    -0.746127369743     0.172005362394     1.007825032230

  Basis Set: AUG-CC-PVTZ
    Blend: AUG-CC-PVTZ
  Basis Set: (AUG-CC-PVTZ AUX)
    Blend: AUG-CC-PVTZ-JKFIT
	 Reference Energy          =    -570.5005454994361571 [Eh]
	 Singles Energy            =      -0.0000000000000000 [Eh]
	 Same-Spin Energy          =      -0.6408969064156425 [Eh]
	 Opposite-Spin Energy      =      -1.9779579589786143 [Eh]
	 Correlation Energy        =      -2.6188548653942565 [Eh]
	 Total Energy              =    -573.1194003648304260 [Eh]

	 ================> DF-SCS-MP2 Energies <==================
	-----------------------------------------------------------
	 SCS Same-Spin Scale       =       0.3333333333333333 [-]
	 SCS Opposite-Spin Scale   =       1.2000000000000000 [-]
	 SCS Same-Spin Energy      =      -0.2136323021385475 [Eh]
	 SCS Opposite-Spin Energy  =      -2.3735495507743369 [Eh]
	 SCS Correlation Energy    =      -2.5871818529128845 [Eh]
	 SCS Total Energy          =    -573.0877273523490203 [Eh]
	-----------------------------------------------------------

  Dipole Moment: [D]
     X:    -1.1118      Y:    -0.9767      Z:     0.0719     Total:     1.4816

*** Psi4 exiting successfully. Buy a developer a beer!
