                               Psi4 1.4a3.dev225

  ==> Input File <==

--------------------------------------------------------------------------
#psi4
#
memory 32 gb

molecule  {
0 1
  N        0.0801310     2.5312230    -0.3913130
  N       -1.9006720     0.7782080     0.6229160
  C        0.3499640     0.1224320    -0.0065570
  C        0.8960730     1.4188800    -0.1658420
  C        2.6063130    -0.8406050     0.1180930
  C        1.2173430    -0.9692250     0.1590540
  C       -1.1077440    -0.1233710    -0.0042630
  C        2.2932590     1.5435480    -0.2281840
  C        3.1306880     0.4434260    -0.0762550
  C        3.5085210    -2.0251140     0.3469700
  C       -1.6410700    -1.2638430    -0.6279320
  C       -3.0109220    -1.5027310    -0.5649580
  C       -3.2228950     0.5407920     0.6622730
  C       -3.8232840    -0.5849970     0.1005040
  H        0.7635817    -1.9983410     0.3445975
  H        2.7242150     2.5332940    -0.3759070
  H        4.2098530     0.5856070    -0.1209690
  H        3.8288200    -2.0891060     1.3929170
  H        2.9990460    -2.9607700     0.0984840
  H        4.4097140    -1.9577250    -0.2701360
  H       -0.9841790    -1.9393540    -1.1680850
  H        0.5549050     3.4095210    -0.2083710
  H       -0.8007830     2.4663430     0.1128890
  H       -3.4393090    -2.3812410    -1.0417430
  H       -3.8215100     1.2923600     1.1747000
  H       -4.8979480    -0.7268890     0.1711280
units angstrom
no_reorient  #important for SAPT in psi4, default
symmetry c1  #important for SAPT in psi4, default
}

set PROPERTIES_ORIGIN ["COM"]
properties('MP2/aug-cc-pvtz', properties = ['dipole'])
--------------------------------------------------------------------------

    Molecular point group: c1
  Charge       = 0
  Multiplicity = 1
  Basis Set: AUG-CC-PVTZ
    Blend: AUG-CC-PVTZ
  Basis Set: (AUG-CC-PVTZ AUX)
    Blend: AUG-CC-PVTZ-JKFIT

    Orbital Energies [Eh]
    ---------------------

    Doubly Occupied:

       1A    -15.567534     2A    -15.547950     3A    -11.288671
       4A    -11.280141     5A    -11.275798     6A    -11.262277
       7A    -11.241564     8A    -11.240706     9A    -11.238782
      10A    -11.233281    11A    -11.232966    12A    -11.227181
      13A    -11.222947    14A    -11.219472    15A     -1.260986
      16A     -1.210876    17A     -1.131516    18A     -1.087757
      19A     -1.063022    20A     -1.015928    21A     -0.991790
      22A     -0.915076    23A     -0.870098    24A     -0.862047
      25A     -0.812855    26A     -0.783174    27A     -0.708804
      28A     -0.689944    29A     -0.678434    30A     -0.660381
      31A     -0.649713    32A     -0.613265    33A     -0.600375
      34A     -0.589066    35A     -0.578398    36A     -0.573757
      37A     -0.570044    38A     -0.547839    39A     -0.530806
      40A     -0.529438    41A     -0.513131    42A     -0.492841
      43A     -0.484253    44A     -0.435331    45A     -0.418826
      46A     -0.387516    47A     -0.366590    48A     -0.316664
      49A     -0.278813

  @DF-RHF Final Energy:  -570.49913560070036

   => Energetics <=

    Nuclear Repulsion Energy =            811.7651522785726002
    One-Electron Energy =               -2383.9313342082546114
    Two-Electron Energy =                1001.6670463289815416
    Total Energy =                       -570.4991356007003560
  Basis Set: (AUG-CC-PVTZ AUX)
    Blend: AUG-CC-PVTZ-RI
    Molecular point group: c1

    Geometry (in Angstrom), charge = 0, multiplicity = 1:

       Center              X                  Y                   Z               Mass
    ------------   -----------------  -----------------  -----------------  -----------------
         N            0.110269024928     2.511360219894    -0.390815180060    14.003074004430
         N           -1.870533975072     0.758345219894     0.623413819940    14.003074004430
         C            0.380102024928     0.102569219894    -0.006059180060    12.000000000000
         C            0.926211024928     1.399017219894    -0.165344180060    12.000000000000
         C            2.636451024928    -0.860467780106     0.118590819940    12.000000000000
         C            1.247481024928    -0.989087780106     0.159551819940    12.000000000000
         C           -1.077605975072    -0.143233780106    -0.003765180060    12.000000000000
         C            2.323397024928     1.523685219894    -0.227686180060    12.000000000000
         C            3.160826024928     0.423563219894    -0.075757180060    12.000000000000
         C            3.538659024928    -2.044976780106     0.347467819940    12.000000000000
         C           -1.610931975072    -1.283705780106    -0.627434180060    12.000000000000
         C           -2.980783975072    -1.522593780106    -0.564460180060    12.000000000000
         C           -3.192756975072     0.520929219894     0.662770819940    12.000000000000
         C           -3.793145975072    -0.604859780106     0.101001819940    12.000000000000
         H            0.793719724928    -2.018203780106     0.345095319940     1.007825032230
         H            2.754353024928     2.513431219894    -0.375409180060     1.007825032230
         H            4.239991024928     0.565744219894    -0.120471180060     1.007825032230
         H            3.858958024928    -2.108968780106     1.393414819940     1.007825032230
         H            3.029184024928    -2.980632780106     0.098981819940     1.007825032230
         H            4.439852024928    -1.977587780106    -0.269638180060     1.007825032230
         H           -0.954040975072    -1.959216780106    -1.167587180060     1.007825032230
         H            0.585043024928     3.389658219894    -0.207873180060     1.007825032230
         H           -0.770644975072     2.446480219894     0.113386819940     1.007825032230
         H           -3.409170975072    -2.401103780106    -1.041245180060     1.007825032230
         H           -3.791371975072     1.272497219894     1.175197819940     1.007825032230
         H           -4.867809975072    -0.746751780106     0.171625819940     1.007825032230

  Basis Set: AUG-CC-PVTZ
    Blend: AUG-CC-PVTZ
  Basis Set: (AUG-CC-PVTZ AUX)
    Blend: AUG-CC-PVTZ-JKFIT
	 Reference Energy          =    -570.4991356007003560 [Eh]
	 Singles Energy            =      -0.0000000000000000 [Eh]
	 Same-Spin Energy          =      -0.6410274698799703 [Eh]
	 Opposite-Spin Energy      =      -1.9782077555952284 [Eh]
	 Correlation Energy        =      -2.6192352254751987 [Eh]
	 Total Energy              =    -573.1183708261755783 [Eh]

	 ================> DF-SCS-MP2 Energies <==================
	-----------------------------------------------------------
	 SCS Same-Spin Scale       =       0.3333333333333333 [-]
	 SCS Opposite-Spin Scale   =       1.2000000000000000 [-]
	 SCS Same-Spin Energy      =      -0.2136758232933234 [Eh]
	 SCS Opposite-Spin Energy  =      -2.3738493067142739 [Eh]
	 SCS Correlation Energy    =      -2.5875251300075974 [Eh]
	 SCS Total Energy          =    -573.0866607307079903 [Eh]
	-----------------------------------------------------------

  Dipole Moment: [D]
     X:    -1.0869      Y:    -0.9428      Z:     0.0733     Total:     1.4407

*** Psi4 exiting successfully. Buy a developer a beer!
