                               Psi4 1.4a3.dev225

  ==> Input File <==

--------------------------------------------------------------------------
#psi4
#
memory 32 gb

molecule  {
0 1
  N        0.0801310     2.5312230    -0.3913130
  N       -1.9006720     0.7782080     0.6229160
  C        0.3499640     0.1224320    -0.0065570
  C        0.8960730     1.4188800    -0.1658420
  C        2.6084354    -0.8645123     0.1222344
  C        1.2173430    -0.9692250     0.1590540
  C       -1.1077440    -0.1233710    -0.0042630
  C        2.2932590     1.5435480    -0.2281840
  C        3.1306880     0.4434260    -0.0762550
  C        3.5085210    -2.0251140     0.3469700
  C       -1.6410700    -1.2638430    -0.6279320
  C       -3.0109220    -1.5027310    -0.5649580
  C       -3.2228950     0.5407920     0.6622730
  C       -3.8232840    -0.5849970     0.1005040
  H        0.7834850    -1.9532010     0.3364590
  H        2.7242150     2.5332940    -0.3759070
  H        4.2098530     0.5856070    -0.1209690
  H        3.8288200    -2.0891060     1.3929170
  H        2.9990460    -2.9607700     0.0984840
  H        4.4097140    -1.9577250    -0.2701360
  H       -0.9841790    -1.9393540    -1.1680850
  H        0.5549050     3.4095210    -0.2083710
  H       -0.8007830     2.4663430     0.1128890
  H       -3.4393090    -2.3812410    -1.0417430
  H       -3.8215100     1.2923600     1.1747000
  H       -4.8979480    -0.7268890     0.1711280
units angstrom
no_reorient  #important for SAPT in psi4, default
symmetry c1  #important for SAPT in psi4, default
}

set PROPERTIES_ORIGIN ["COM"]
properties('MP2/aug-cc-pvtz', properties = ['dipole'])
--------------------------------------------------------------------------

    Molecular point group: c1
  Charge       = 0
  Multiplicity = 1
  Basis Set: AUG-CC-PVTZ
    Blend: AUG-CC-PVTZ
  Basis Set: (AUG-CC-PVTZ AUX)
    Blend: AUG-CC-PVTZ-JKFIT

    Orbital Energies [Eh]
    ---------------------

    Doubly Occupied:

       1A    -15.567257     2A    -15.548142     3A    -11.288517
       4A    -11.279997     5A    -11.275872     6A    -11.262140
       7A    -11.241314     8A    -11.240503     9A    -11.235059
      10A    -11.233167    11A    -11.231896    12A    -11.227914
      13A    -11.223281    14A    -11.219078    15A     -1.260756
      16A     -1.210741    17A     -1.130380    18A     -1.087564
      19A     -1.062512    20A     -1.019099    21A     -0.991663
      22A     -0.916266    23A     -0.869639    24A     -0.861837
      25A     -0.813567    26A     -0.783265    27A     -0.709131
      28A     -0.689405    29A     -0.680832    30A     -0.660322
      31A     -0.650252    32A     -0.614638    33A     -0.600766
      34A     -0.588124    35A     -0.582041    36A     -0.574371
      37A     -0.570676    38A     -0.548403    39A     -0.533006
      40A     -0.529667    41A     -0.513144    42A     -0.497314
      43A     -0.481687    44A     -0.433885    45A     -0.418459
      46A     -0.387237    47A     -0.366015    48A     -0.316909
      49A     -0.277155

  @DF-RHF Final Energy:  -570.50052247647352

   => Energetics <=

    Nuclear Repulsion Energy =            811.7919819027316635
    One-Electron Energy =               -2383.9752792775302623
    Two-Electron Energy =                1001.6827748983251922
    Total Energy =                       -570.5005224764735203
  Basis Set: (AUG-CC-PVTZ AUX)
    Blend: AUG-CC-PVTZ-RI
    Molecular point group: c1

    Geometry (in Angstrom), charge = 0, multiplicity = 1:

       Center              X                  Y                   Z               Mass
    ------------   -----------------  -----------------  -----------------  -----------------
         N            0.110021725460     2.512671432901    -0.391040571722    14.003074004430
         N           -1.870781274540     0.759656432901     0.623188428278    14.003074004430
         C            0.379854725460     0.103880432901    -0.006284571722    12.000000000000
         C            0.925963725460     1.400328432901    -0.165569571722    12.000000000000
         C            2.638326125460    -0.883063867099     0.122506828278    12.000000000000
         C            1.247233725460    -0.987776567099     0.159326428278    12.000000000000
         C           -1.077853274540    -0.141922567099    -0.003990571722    12.000000000000
         C            2.323149725460     1.524996432901    -0.227911571722    12.000000000000
         C            3.160578725460     0.424874432901    -0.075982571722    12.000000000000
         C            3.538411725460    -2.043665567099     0.347242428278    12.000000000000
         C           -1.611179274540    -1.282394567099    -0.627659571722    12.000000000000
         C           -2.981031274540    -1.521282567099    -0.564685571722    12.000000000000
         C           -3.193004274540     0.522240432901     0.662545428278    12.000000000000
         C           -3.793393274540    -0.603548567099     0.100776428278    12.000000000000
         H            0.813375725460    -1.971752567099     0.336731428278     1.007825032230
         H            2.754105725460     2.514742432901    -0.375634571722     1.007825032230
         H            4.239743725460     0.567055432901    -0.120696571722     1.007825032230
         H            3.858710725460    -2.107657567099     1.393189428278     1.007825032230
         H            3.028936725460    -2.979321567099     0.098756428278     1.007825032230
         H            4.439604725460    -1.976276567099    -0.269863571722     1.007825032230
         H           -0.954288274540    -1.957905567099    -1.167812571722     1.007825032230
         H            0.584795725460     3.390969432901    -0.208098571722     1.007825032230
         H           -0.770892274540     2.447791432901     0.113161428278     1.007825032230
         H           -3.409418274540    -2.399792567099    -1.041470571722     1.007825032230
         H           -3.791619274540     1.273808432901     1.174972428278     1.007825032230
         H           -4.868057274540    -0.745440567099     0.171400428278     1.007825032230

  Basis Set: AUG-CC-PVTZ
    Blend: AUG-CC-PVTZ
  Basis Set: (AUG-CC-PVTZ AUX)
    Blend: AUG-CC-PVTZ-JKFIT
	 Reference Energy          =    -570.5005224764735203 [Eh]
	 Singles Energy            =      -0.0000000000000000 [Eh]
	 Same-Spin Energy          =      -0.6409939739425558 [Eh]
	 Opposite-Spin Energy      =      -1.9780015690729922 [Eh]
	 Correlation Energy        =      -2.6189955430155480 [Eh]
	 Total Energy              =    -573.1195180194890781 [Eh]

	 ================> DF-SCS-MP2 Energies <==================
	-----------------------------------------------------------
	 SCS Same-Spin Scale       =       0.3333333333333333 [-]
	 SCS Opposite-Spin Scale   =       1.2000000000000000 [-]
	 SCS Same-Spin Energy      =      -0.2136646579808519 [Eh]
	 SCS Opposite-Spin Energy  =      -2.3736018828875904 [Eh]
	 SCS Correlation Energy    =      -2.5872665408684425 [Eh]
	 SCS Total Energy          =    -573.0877890173419473 [Eh]
	-----------------------------------------------------------

  Dipole Moment: [D]
     X:    -1.0653      Y:    -0.9723      Z:     0.0799     Total:     1.4445

*** Psi4 exiting successfully. Buy a developer a beer!
