                               Psi4 1.4a3.dev225

  ==> Input File <==

--------------------------------------------------------------------------
#psi4
#
memory 32 gb

molecule  {
0 1
  N        0.0801310     2.5312230    -0.3913130
  N       -1.9006720     0.7782080     0.6229160
  C        0.2165178     0.1868315    -0.0088538
  C        0.8960730     1.4188800    -0.1658420
  C        2.6063130    -0.8406050     0.1180930
  C        1.2173430    -0.9692250     0.1590540
  C       -1.1077440    -0.1233710    -0.0042630
  C        2.2932590     1.5435480    -0.2281840
  C        3.1306880     0.4434260    -0.0762550
  C        3.5085210    -2.0251140     0.3469700
  C       -1.6410700    -1.2638430    -0.6279320
  C       -3.0109220    -1.5027310    -0.5649580
  C       -3.2228950     0.5407920     0.6622730
  C       -3.8232840    -0.5849970     0.1005040
  H        0.7834850    -1.9532010     0.3364590
  H        2.7242150     2.5332940    -0.3759070
  H        4.2098530     0.5856070    -0.1209690
  H        3.8288200    -2.0891060     1.3929170
  H        2.9990460    -2.9607700     0.0984840
  H        4.4097140    -1.9577250    -0.2701360
  H       -0.9841790    -1.9393540    -1.1680850
  H        0.5549050     3.4095210    -0.2083710
  H       -0.8007830     2.4663430     0.1128890
  H       -3.4393090    -2.3812410    -1.0417430
  H       -3.8215100     1.2923600     1.1747000
  H       -4.8979480    -0.7268890     0.1711280
units angstrom
no_reorient  #important for SAPT in psi4, default
symmetry c1  #important for SAPT in psi4, default
}

set PROPERTIES_ORIGIN ["COM"]
properties('MP2/aug-cc-pvtz', properties = ['dipole'])
--------------------------------------------------------------------------

    Molecular point group: c1
  Charge       = 0
  Multiplicity = 1
  Basis Set: AUG-CC-PVTZ
    Blend: AUG-CC-PVTZ
  Basis Set: (AUG-CC-PVTZ AUX)
    Blend: AUG-CC-PVTZ-JKFIT

    Orbital Energies [Eh]
    ---------------------

    Doubly Occupied:

       1A    -15.563624     2A    -15.544854     3A    -11.280213
       4A    -11.279934     5A    -11.278207     6A    -11.261491
       7A    -11.245652     8A    -11.240400     9A    -11.239513
      10A    -11.239365    11A    -11.232951    12A    -11.229788
      13A    -11.227423    14A    -11.221657    15A     -1.264206
      16A     -1.210786    17A     -1.125180    18A     -1.087473
      19A     -1.073940    20A     -1.016994    21A     -0.981712
      22A     -0.915389    23A     -0.882847    24A     -0.863028
      25A     -0.817252    26A     -0.778936    27A     -0.710218
      28A     -0.690999    29A     -0.680333    30A     -0.666109
      31A     -0.650014    32A     -0.615444    33A     -0.599716
      34A     -0.592819    35A     -0.575822    36A     -0.572132
      37A     -0.570416    38A     -0.550649    39A     -0.530958
      40A     -0.529742    41A     -0.510125    42A     -0.499889
      43A     -0.476501    44A     -0.431765    45A     -0.419805
      46A     -0.387861    47A     -0.368547    48A     -0.307761
      49A     -0.276563

  @DF-RHF Final Energy:  -570.47096956257440

   => Energetics <=

    Nuclear Repulsion Energy =            812.2705868926153698
    One-Electron Energy =               -2384.8491045333244074
    Two-Electron Energy =                1002.1075480781345277
    Total Energy =                       -570.4709695625743962
  Basis Set: (AUG-CC-PVTZ AUX)
    Blend: AUG-CC-PVTZ-RI
    Molecular point group: c1

    Geometry (in Angstrom), charge = 0, multiplicity = 1:

       Center              X                  Y                   Z               Mass
    ------------   -----------------  -----------------  -----------------  -----------------
         N            0.118858351057     2.506915423550    -0.390620917297    14.003074004430
         N           -1.861944648943     0.753900423550     0.623608082703    14.003074004430
         C            0.255245151057     0.162523923550    -0.008161717297    12.000000000000
         C            0.934800351057     1.394572423550    -0.165149917297    12.000000000000
         C            2.645040351057    -0.864912576450     0.118785082703    12.000000000000
         C            1.256070351057    -0.993532576450     0.159746082703    12.000000000000
         C           -1.069016648943    -0.147678576450    -0.003570917297    12.000000000000
         C            2.331986351057     1.519240423550    -0.227491917297    12.000000000000
         C            3.169415351057     0.419118423550    -0.075562917297    12.000000000000
         C            3.547248351057    -2.049421576450     0.347662082703    12.000000000000
         C           -1.602342648943    -1.288150576450    -0.627239917297    12.000000000000
         C           -2.972194648943    -1.527038576450    -0.564265917297    12.000000000000
         C           -3.184167648943     0.516484423550     0.662965082703    12.000000000000
         C           -3.784556648943    -0.609304576450     0.101196082703    12.000000000000
         H            0.822212351057    -1.977508576450     0.337151082703     1.007825032230
         H            2.762942351057     2.508986423550    -0.375214917297     1.007825032230
         H            4.248580351057     0.561299423550    -0.120276917297     1.007825032230
         H            3.867547351057    -2.113413576450     1.393609082703     1.007825032230
         H            3.037773351057    -2.985077576450     0.099176082703     1.007825032230
         H            4.448441351057    -1.982032576450    -0.269443917297     1.007825032230
         H           -0.945451648943    -1.963661576450    -1.167392917297     1.007825032230
         H            0.593632351057     3.385213423550    -0.207678917297     1.007825032230
         H           -0.762055648943     2.442035423550     0.113581082703     1.007825032230
         H           -3.400581648943    -2.405548576450    -1.041050917297     1.007825032230
         H           -3.782782648943     1.268052423550     1.175392082703     1.007825032230
         H           -4.859220648943    -0.751196576450     0.171820082703     1.007825032230

  Basis Set: AUG-CC-PVTZ
    Blend: AUG-CC-PVTZ
  Basis Set: (AUG-CC-PVTZ AUX)
    Blend: AUG-CC-PVTZ-JKFIT
	 Reference Energy          =    -570.4709695625743962 [Eh]
	 Singles Energy            =      -0.0000000000000000 [Eh]
	 Same-Spin Energy          =      -0.6430189501422459 [Eh]
	 Opposite-Spin Energy      =      -1.9820545051008107 [Eh]
	 Correlation Energy        =      -2.6250734552430566 [Eh]
	 Total Energy              =    -573.0960430178174647 [Eh]

	 ================> DF-SCS-MP2 Energies <==================
	-----------------------------------------------------------
	 SCS Same-Spin Scale       =       0.3333333333333333 [-]
	 SCS Opposite-Spin Scale   =       1.2000000000000000 [-]
	 SCS Same-Spin Energy      =      -0.2143396500474153 [Eh]
	 SCS Opposite-Spin Energy  =      -2.3784654061209727 [Eh]
	 SCS Correlation Energy    =      -2.5928050561683880 [Eh]
	 SCS Total Energy          =    -573.0637746187427410 [Eh]
	-----------------------------------------------------------

  Dipole Moment: [D]
     X:    -0.8951      Y:    -0.9554      Z:     0.0588     Total:     1.3105

*** Psi4 exiting successfully. Buy a developer a beer!
