                               Psi4 1.4a3.dev225

  ==> Input File <==

--------------------------------------------------------------------------
#psi4
#
memory 32 gb

molecule  {
0 1
  N        0.0801310     2.5312230    -0.3913130
  N       -1.9006720     0.7782080     0.6229160
  C        0.3499640     0.1224320    -0.0065570
  C        0.8960730     1.4188800    -0.1658420
  C        2.6063130    -0.8406050     0.1180930
  C        1.2173430    -0.9692250     0.1590540
  C       -1.1077440    -0.1233710    -0.0042630
  C        2.2932590     1.5435480    -0.2281840
  C        3.0102737     0.6016131    -0.0981009
  C        3.5085210    -2.0251140     0.3469700
  C       -1.6410700    -1.2638430    -0.6279320
  C       -3.0109220    -1.5027310    -0.5649580
  C       -3.2228950     0.5407920     0.6622730
  C       -3.8232840    -0.5849970     0.1005040
  H        0.7834850    -1.9532010     0.3364590
  H        2.7242150     2.5332940    -0.3759070
  H        4.2098530     0.5856070    -0.1209690
  H        3.8288200    -2.0891060     1.3929170
  H        2.9990460    -2.9607700     0.0984840
  H        4.4097140    -1.9577250    -0.2701360
  H       -0.9841790    -1.9393540    -1.1680850
  H        0.5549050     3.4095210    -0.2083710
  H       -0.8007830     2.4663430     0.1128890
  H       -3.4393090    -2.3812410    -1.0417430
  H       -3.8215100     1.2923600     1.1747000
  H       -4.8979480    -0.7268890     0.1711280
units angstrom
no_reorient  #important for SAPT in psi4, default
symmetry c1  #important for SAPT in psi4, default
}

set PROPERTIES_ORIGIN ["COM"]
properties('MP2/aug-cc-pvtz', properties = ['dipole'])
--------------------------------------------------------------------------

    Molecular point group: c1
  Charge       = 0
  Multiplicity = 1
  Basis Set: AUG-CC-PVTZ
    Blend: AUG-CC-PVTZ
  Basis Set: (AUG-CC-PVTZ AUX)
    Blend: AUG-CC-PVTZ-JKFIT

    Orbital Energies [Eh]
    ---------------------

    Doubly Occupied:

       1A    -15.564842     2A    -15.553041     3A    -11.286308
       4A    -11.280089     5A    -11.278336     6A    -11.260490
       7A    -11.239018     8A    -11.238139     9A    -11.232971
      10A    -11.228840    11A    -11.227763    12A    -11.223889
      13A    -11.223550    14A    -11.203855    15A     -1.259016
      16A     -1.217223    17A     -1.140721    18A     -1.085612
      19A     -1.070458    20A     -1.033795    21A     -0.991706
      22A     -0.912816    23A     -0.865553    24A     -0.859963
      25A     -0.803279    26A     -0.790831    27A     -0.709210
      28A     -0.693120    29A     -0.679344    30A     -0.659335
      31A     -0.644576    32A     -0.622645    33A     -0.603968
      34A     -0.588998    35A     -0.577571    36A     -0.571287
      37A     -0.563554    38A     -0.547770    39A     -0.543048
      40A     -0.528359    41A     -0.519573    42A     -0.501244
      43A     -0.446124    44A     -0.437665    45A     -0.415724
      46A     -0.390714    47A     -0.375718    48A     -0.331635
      49A     -0.266229

  @DF-RHF Final Energy:  -570.43874643120910

   => Energetics <=

    Nuclear Repulsion Energy =            814.0836511568776359
    One-Electron Energy =               -2388.4657579701965915
    Two-Electron Energy =                1003.9433603821097449
    Total Energy =                       -570.4387464312090970
  Basis Set: (AUG-CC-PVTZ AUX)
    Blend: AUG-CC-PVTZ-RI
    Molecular point group: c1

    Geometry (in Angstrom), charge = 0, multiplicity = 1:

       Center              X                  Y                   Z               Mass
    ------------   -----------------  -----------------  -----------------  -----------------
         N            0.118008906413     2.500802164973    -0.389346668854    14.003074004430
         N           -1.862794093587     0.747787164973     0.624882331146    14.003074004430
         C            0.387841906413     0.092011164973    -0.004590668854    12.000000000000
         C            0.933950906413     1.388459164973    -0.163875668854    12.000000000000
         C            2.644190906413    -0.871025835027     0.120059331146    12.000000000000
         C            1.255220906413    -0.999645835027     0.161020331146    12.000000000000
         C           -1.069866093587    -0.153791835027    -0.002296668854    12.000000000000
         C            2.331136906413     1.513127164973    -0.226217668854    12.000000000000
         C            3.048151606413     0.571192264973    -0.096134568854    12.000000000000
         C            3.546398906413    -2.055534835027     0.348936331146    12.000000000000
         C           -1.603192093587    -1.294263835027    -0.625965668854    12.000000000000
         C           -2.973044093587    -1.533151835027    -0.562991668854    12.000000000000
         C           -3.185017093587     0.510371164973     0.664239331146    12.000000000000
         C           -3.785406093587    -0.615417835027     0.102470331146    12.000000000000
         H            0.821362906413    -1.983621835027     0.338425331146     1.007825032230
         H            2.762092906413     2.502873164973    -0.373940668854     1.007825032230
         H            4.247730906413     0.555186164973    -0.119002668854     1.007825032230
         H            3.866697906413    -2.119526835027     1.394883331146     1.007825032230
         H            3.036923906413    -2.991190835027     0.100450331146     1.007825032230
         H            4.447591906413    -1.988145835027    -0.268169668854     1.007825032230
         H           -0.946301093587    -1.969774835027    -1.166118668854     1.007825032230
         H            0.592782906413     3.379100164973    -0.206404668854     1.007825032230
         H           -0.762905093587     2.435922164973     0.114855331146     1.007825032230
         H           -3.401431093587    -2.411661835027    -1.039776668854     1.007825032230
         H           -3.783632093587     1.261939164973     1.176666331146     1.007825032230
         H           -4.860070093587    -0.757309835027     0.173094331146     1.007825032230

  Basis Set: AUG-CC-PVTZ
    Blend: AUG-CC-PVTZ
  Basis Set: (AUG-CC-PVTZ AUX)
    Blend: AUG-CC-PVTZ-JKFIT
	 Reference Energy          =    -570.4387464312090970 [Eh]
	 Singles Energy            =      -0.0000000000000000 [Eh]
	 Same-Spin Energy          =      -0.6400990514230703 [Eh]
	 Opposite-Spin Energy      =      -1.9787140830954681 [Eh]
	 Correlation Energy        =      -2.6188131345185384 [Eh]
	 Total Energy              =    -573.0575595657276153 [Eh]

	 ================> DF-SCS-MP2 Energies <==================
	-----------------------------------------------------------
	 SCS Same-Spin Scale       =       0.3333333333333333 [-]
	 SCS Opposite-Spin Scale   =       1.2000000000000000 [-]
	 SCS Same-Spin Energy      =      -0.2133663504743568 [Eh]
	 SCS Opposite-Spin Energy  =      -2.3744568997145619 [Eh]
	 SCS Correlation Energy    =      -2.5878232501889187 [Eh]
	 SCS Total Energy          =    -573.0265696813979730 [Eh]
	-----------------------------------------------------------

  Dipole Moment: [D]
     X:    -0.9391      Y:    -0.8631      Z:     0.0657     Total:     1.2772

*** Psi4 exiting successfully. Buy a developer a beer!
