                               Psi4 1.4a3.dev225

  ==> Input File <==

--------------------------------------------------------------------------
#psi4
#
memory 32 gb

molecule  {
0 1
  N        0.0801310     2.5312230    -0.3913130
  N       -1.9006720     0.7782080     0.6229160
  C        0.3499640     0.1224320    -0.0065570
  C        0.8960730     1.4188800    -0.1658420
  C        2.6063130    -0.8406050     0.1180930
  C        1.2173430    -0.9692250     0.1590540
  C       -1.1077440    -0.1233710    -0.0042630
  C        2.2932590     1.5435480    -0.2281840
  C        3.1306880     0.4434260    -0.0762550
  C        3.5085210    -2.0251140     0.3469700
  C       -1.6600493    -1.3044287    -0.6501263
  C       -3.0109220    -1.5027310    -0.5649580
  C       -3.2228950     0.5407920     0.6622730
  C       -3.8232840    -0.5849970     0.1005040
  H        0.7834850    -1.9532010     0.3364590
  H        2.7242150     2.5332940    -0.3759070
  H        4.2098530     0.5856070    -0.1209690
  H        3.8288200    -2.0891060     1.3929170
  H        2.9990460    -2.9607700     0.0984840
  H        4.4097140    -1.9577250    -0.2701360
  H       -0.9841790    -1.9393540    -1.1680850
  H        0.5549050     3.4095210    -0.2083710
  H       -0.8007830     2.4663430     0.1128890
  H       -3.4393090    -2.3812410    -1.0417430
  H       -3.8215100     1.2923600     1.1747000
  H       -4.8979480    -0.7268890     0.1711280
units angstrom
no_reorient  #important for SAPT in psi4, default
symmetry c1  #important for SAPT in psi4, default
}

set PROPERTIES_ORIGIN ["COM"]
properties('MP2/aug-cc-pvtz', properties = ['dipole'])
--------------------------------------------------------------------------

    Molecular point group: c1
  Charge       = 0
  Multiplicity = 1
  Basis Set: AUG-CC-PVTZ
    Blend: AUG-CC-PVTZ
  Basis Set: (AUG-CC-PVTZ AUX)
    Blend: AUG-CC-PVTZ-JKFIT

    Orbital Energies [Eh]
    ---------------------

    Doubly Occupied:

       1A    -15.567442     2A    -15.548470     3A    -11.295311
       4A    -11.279064     5A    -11.276707     6A    -11.258313
       7A    -11.241518     8A    -11.240245     9A    -11.234780
      10A    -11.233749    11A    -11.233584    12A    -11.227606
      13A    -11.223669    14A    -11.220198    15A     -1.259151
      16A     -1.211324    17A     -1.132510    18A     -1.090231
      19A     -1.060327    20A     -1.016955    21A     -0.991928
      22A     -0.916474    23A     -0.873134    24A     -0.857536
      25A     -0.816068    26A     -0.782415    27A     -0.709088
      28A     -0.690298    29A     -0.682345    30A     -0.664451
      31A     -0.648605    32A     -0.612175    33A     -0.601808
      34A     -0.589458    35A     -0.583015    36A     -0.572887
      37A     -0.567234    38A     -0.546472    39A     -0.536895
      40A     -0.531304    41A     -0.513626    42A     -0.494564
      43A     -0.486937    44A     -0.435753    45A     -0.416216
      46A     -0.391197    47A     -0.364181    48A     -0.315408
      49A     -0.278872

  @DF-RHF Final Energy:  -570.49884240884796

   => Energetics <=

    Nuclear Repulsion Energy =            811.2020461092829464
    One-Electron Energy =               -2382.7587803637038633
    Two-Electron Energy =                1001.0578918455729536
    Total Energy =                       -570.4988424088479633
  Basis Set: (AUG-CC-PVTZ AUX)
    Blend: AUG-CC-PVTZ-RI
    Molecular point group: c1

    Geometry (in Angstrom), charge = 0, multiplicity = 1:

       Center              X                  Y                   Z               Mass
    ------------   -----------------  -----------------  -----------------  -----------------
         N            0.111397175397     2.513758563522    -0.389323959463    14.003074004430
         N           -1.869405824603     0.760743563522     0.624905040537    14.003074004430
         C            0.381230175397     0.104967563522    -0.004567959463    12.000000000000
         C            0.927339175397     1.401415563522    -0.163852959463    12.000000000000
         C            2.637579175397    -0.858069436478     0.120082040537    12.000000000000
         C            1.248609175397    -0.986689436478     0.161043040537    12.000000000000
         C           -1.076477824603    -0.140835436478    -0.002273959463    12.000000000000
         C            2.324525175397     1.526083563522    -0.226194959463    12.000000000000
         C            3.161954175397     0.425961563522    -0.074265959463    12.000000000000
         C            3.539787175397    -2.042578436478     0.348959040537    12.000000000000
         C           -1.628783124603    -1.321893136478    -0.648137259463    12.000000000000
         C           -2.979655824603    -1.520195436478    -0.562968959463    12.000000000000
         C           -3.191628824603     0.523327563522     0.664262040537    12.000000000000
         C           -3.792017824603    -0.602461436478     0.102493040537    12.000000000000
         H            0.814751175397    -1.970665436478     0.338448040537     1.007825032230
         H            2.755481175397     2.515829563522    -0.373917959463     1.007825032230
         H            4.241119175397     0.568142563522    -0.118979959463     1.007825032230
         H            3.860086175397    -2.106570436478     1.394906040537     1.007825032230
         H            3.030312175397    -2.978234436478     0.100473040537     1.007825032230
         H            4.440980175397    -1.975189436478    -0.268146959463     1.007825032230
         H           -0.952912824603    -1.956818436478    -1.166095959463     1.007825032230
         H            0.586171175397     3.392056563522    -0.206381959463     1.007825032230
         H           -0.769516824603     2.448878563522     0.114878040537     1.007825032230
         H           -3.408042824603    -2.398705436478    -1.039753959463     1.007825032230
         H           -3.790243824603     1.274895563522     1.176689040537     1.007825032230
         H           -4.866681824603    -0.744353436478     0.173117040537     1.007825032230

  Basis Set: AUG-CC-PVTZ
    Blend: AUG-CC-PVTZ
  Basis Set: (AUG-CC-PVTZ AUX)
    Blend: AUG-CC-PVTZ-JKFIT
	 Reference Energy          =    -570.4988424088479633 [Eh]
	 Singles Energy            =      -0.0000000000000000 [Eh]
	 Same-Spin Energy          =      -0.6406782161731515 [Eh]
	 Opposite-Spin Energy      =      -1.9777044382814555 [Eh]
	 Correlation Energy        =      -2.6183826544546069 [Eh]
	 Total Energy              =    -573.1172250633026124 [Eh]

	 ================> DF-SCS-MP2 Energies <==================
	-----------------------------------------------------------
	 SCS Same-Spin Scale       =       0.3333333333333333 [-]
	 SCS Opposite-Spin Scale   =       1.2000000000000000 [-]
	 SCS Same-Spin Energy      =      -0.2135594053910505 [Eh]
	 SCS Opposite-Spin Energy  =      -2.3732453259377464 [Eh]
	 SCS Correlation Energy    =      -2.5868047313287970 [Eh]
	 SCS Total Energy          =    -573.0856471401767749 [Eh]
	-----------------------------------------------------------

  Dipole Moment: [D]
     X:    -1.0044      Y:    -0.9371      Z:     0.0776     Total:     1.3759

*** Psi4 exiting successfully. Buy a developer a beer!
