                               Psi4 1.4a3.dev225

  ==> Input File <==

--------------------------------------------------------------------------
#psi4
#
memory 32 gb

molecule  {
0 1
  N        0.0801310     2.5312230    -0.3913130
  N       -1.9006720     0.7782080     0.6229160
  C        0.3499640     0.1224320    -0.0065570
  C        0.8960730     1.4188800    -0.1658420
  C        2.6063130    -0.8406050     0.1180930
  C        1.2173430    -0.9692250     0.1590540
  C       -1.1077440    -0.1233710    -0.0042630
  C        2.2932590     1.5435480    -0.2281840
  C        3.1306880     0.4434260    -0.0762550
  C        3.5085210    -2.0251140     0.3469700
  C       -1.6410700    -1.2638430    -0.6279320
  C       -3.0305496    -1.5163033    -0.5697557
  C       -3.2228950     0.5407920     0.6622730
  C       -3.8232840    -0.5849970     0.1005040
  H        0.7834850    -1.9532010     0.3364590
  H        2.7242150     2.5332940    -0.3759070
  H        4.2098530     0.5856070    -0.1209690
  H        3.8288200    -2.0891060     1.3929170
  H        2.9990460    -2.9607700     0.0984840
  H        4.4097140    -1.9577250    -0.2701360
  H       -0.9841790    -1.9393540    -1.1680850
  H        0.5549050     3.4095210    -0.2083710
  H       -0.8007830     2.4663430     0.1128890
  H       -3.4393090    -2.3812410    -1.0417430
  H       -3.8215100     1.2923600     1.1747000
  H       -4.8979480    -0.7268890     0.1711280
units angstrom
no_reorient  #important for SAPT in psi4, default
symmetry c1  #important for SAPT in psi4, default
}

set PROPERTIES_ORIGIN ["COM"]
properties('MP2/aug-cc-pvtz', properties = ['dipole'])
--------------------------------------------------------------------------

    Molecular point group: c1
  Charge       = 0
  Multiplicity = 1
  Basis Set: AUG-CC-PVTZ
    Blend: AUG-CC-PVTZ
  Basis Set: (AUG-CC-PVTZ AUX)
    Blend: AUG-CC-PVTZ-JKFIT

    Orbital Energies [Eh]
    ---------------------

    Doubly Occupied:

       1A    -15.568057     2A    -15.547569     3A    -11.288139
       4A    -11.280868     5A    -11.275093     6A    -11.263541
       7A    -11.243074     8A    -11.242368     9A    -11.233204
      10A    -11.232260    11A    -11.232035    12A    -11.226378
      13A    -11.222491    14A    -11.219323    15A     -1.260529
      16A     -1.210422    17A     -1.131417    18A     -1.085878
      19A     -1.062557    20A     -1.015884    21A     -0.991360
      22A     -0.915283    23A     -0.869381    24A     -0.864419
      25A     -0.814229    26A     -0.784103    27A     -0.709448
      28A     -0.689459    29A     -0.681226    30A     -0.660222
      31A     -0.649437    32A     -0.614484    33A     -0.600223
      34A     -0.589149    35A     -0.581677    36A     -0.577369
      37A     -0.570785    38A     -0.547608    39A     -0.531300
      40A     -0.527305    41A     -0.512624    42A     -0.492467
      43A     -0.485418    44A     -0.434972    45A     -0.419601
      46A     -0.386363    47A     -0.365768    48A     -0.316233
      49A     -0.278289

  @DF-RHF Final Energy:  -570.50054494618212

   => Energetics <=

    Nuclear Repulsion Energy =            811.5270096381601661
    One-Electron Energy =               -2383.4525312304945146
    Two-Electron Energy =                1001.4249766461523450
    Total Energy =                       -570.5005449461821172
  Basis Set: (AUG-CC-PVTZ AUX)
    Blend: AUG-CC-PVTZ-RI
    Molecular point group: c1

    Geometry (in Angstrom), charge = 0, multiplicity = 1:

       Center              X                  Y                   Z               Mass
    ------------   -----------------  -----------------  -----------------  -----------------
         N            0.111439432855     2.511997777456    -0.390457903760    14.003074004430
         N           -1.869363567145     0.758982777456     0.623771096240    14.003074004430
         C            0.381272432855     0.103206777456    -0.005701903760    12.000000000000
         C            0.927381432855     1.399654777456    -0.164986903760    12.000000000000
         C            2.637621432855    -0.859830222544     0.118948096240    12.000000000000
         C            1.248651432855    -0.988450222544     0.159909096240    12.000000000000
         C           -1.076435567145    -0.142596222544    -0.003407903760    12.000000000000
         C            2.324567432855     1.524322777456    -0.227328903760    12.000000000000
         C            3.161996432855     0.424200777456    -0.075399903760    12.000000000000
         C            3.539829432855    -2.044339222544     0.347825096240    12.000000000000
         C           -1.609761567145    -1.283068222544    -0.627076903760    12.000000000000
         C           -2.999241167145    -1.535528522544    -0.568900603760    12.000000000000
         C           -3.191586567145     0.521566777456     0.663128096240    12.000000000000
         C           -3.791975567145    -0.604222222544     0.101359096240    12.000000000000
         H            0.814793432855    -1.972426222544     0.337314096240     1.007825032230
         H            2.755523432855     2.514068777456    -0.375051903760     1.007825032230
         H            4.241161432855     0.566381777456    -0.120113903760     1.007825032230
         H            3.860128432855    -2.108331222544     1.393772096240     1.007825032230
         H            3.030354432855    -2.979995222544     0.099339096240     1.007825032230
         H            4.441022432855    -1.976950222544    -0.269280903760     1.007825032230
         H           -0.952870567145    -1.958579222544    -1.167229903760     1.007825032230
         H            0.586213432855     3.390295777456    -0.207515903760     1.007825032230
         H           -0.769474567145     2.447117777456     0.113744096240     1.007825032230
         H           -3.408000567145    -2.400466222544    -1.040887903760     1.007825032230
         H           -3.790201567145     1.273134777456     1.175555096240     1.007825032230
         H           -4.866639567145    -0.746114222544     0.171983096240     1.007825032230

  Basis Set: AUG-CC-PVTZ
    Blend: AUG-CC-PVTZ
  Basis Set: (AUG-CC-PVTZ AUX)
    Blend: AUG-CC-PVTZ-JKFIT
	 Reference Energy          =    -570.5005449461821172 [Eh]
	 Singles Energy            =      -0.0000000000000000 [Eh]
	 Same-Spin Energy          =      -0.6408970410094422 [Eh]
	 Opposite-Spin Energy      =      -1.9779580893223176 [Eh]
	 Correlation Energy        =      -2.6188551303317600 [Eh]
	 Total Energy              =    -573.1194000765138981 [Eh]

	 ================> DF-SCS-MP2 Energies <==================
	-----------------------------------------------------------
	 SCS Same-Spin Scale       =       0.3333333333333333 [-]
	 SCS Opposite-Spin Scale   =       1.2000000000000000 [-]
	 SCS Same-Spin Energy      =      -0.2136323470031474 [Eh]
	 SCS Opposite-Spin Energy  =      -2.3735497071867813 [Eh]
	 SCS Correlation Energy    =      -2.5871820541899289 [Eh]
	 SCS Total Energy          =    -573.0877270003720696 [Eh]
	-----------------------------------------------------------

  Dipole Moment: [D]
     X:    -1.1117      Y:    -0.9766      Z:     0.0717     Total:     1.4815

*** Psi4 exiting successfully. Buy a developer a beer!
