                               Psi4 1.4a3.dev225

  ==> Input File <==

--------------------------------------------------------------------------
#psi4
#
memory 32 gb

molecule  {
0 1
  N        0.0801310     2.5312230    -0.3913130
  N       -1.9006720     0.7782080     0.6229160
  C        0.3499640     0.1224320    -0.0065570
  C        0.8960730     1.4188800    -0.1658420
  C        2.6063130    -0.8406050     0.1180930
  C        1.2173430    -0.9692250     0.1590540
  C       -1.1077440    -0.1233710    -0.0042630
  C        2.2932590     1.5435480    -0.2281840
  C        3.1306880     0.4434260    -0.0762550
  C        3.5085210    -2.0251140     0.3469700
  C       -1.6410700    -1.2638430    -0.6279320
  C       -2.9347373    -1.4464952    -0.5423901
  C       -3.2228950     0.5407920     0.6622730
  C       -3.8232840    -0.5849970     0.1005040
  H        0.7834850    -1.9532010     0.3364590
  H        2.7242150     2.5332940    -0.3759070
  H        4.2098530     0.5856070    -0.1209690
  H        3.8288200    -2.0891060     1.3929170
  H        2.9990460    -2.9607700     0.0984840
  H        4.4097140    -1.9577250    -0.2701360
  H       -0.9841790    -1.9393540    -1.1680850
  H        0.5549050     3.4095210    -0.2083710
  H       -0.8007830     2.4663430     0.1128890
  H       -3.4393090    -2.3812410    -1.0417430
  H       -3.8215100     1.2923600     1.1747000
  H       -4.8979480    -0.7268890     0.1711280
units angstrom
no_reorient  #important for SAPT in psi4, default
symmetry c1  #important for SAPT in psi4, default
}

set PROPERTIES_ORIGIN ["COM"]
properties('MP2/aug-cc-pvtz', properties = ['dipole'])
--------------------------------------------------------------------------

    Molecular point group: c1
  Charge       = 0
  Multiplicity = 1
  Basis Set: AUG-CC-PVTZ
    Blend: AUG-CC-PVTZ
  Basis Set: (AUG-CC-PVTZ AUX)
    Blend: AUG-CC-PVTZ-JKFIT

    Orbital Energies [Eh]
    ---------------------

    Doubly Occupied:

       1A    -15.565743     2A    -15.548450     3A    -11.291087
       4A    -11.278081     5A    -11.276657     6A    -11.258129
       7A    -11.239526     8A    -11.234786     9A    -11.233834
      10A    -11.233294    11A    -11.231645    12A    -11.227739
      13A    -11.223701    14A    -11.220300    15A     -1.263839
      16A     -1.211727    17A     -1.132837    18A     -1.098157
      19A     -1.064631    20A     -1.017207    21A     -0.996685
      22A     -0.916673    23A     -0.875840    24A     -0.853859
      25A     -0.817026    26A     -0.781038    27A     -0.708558
      28A     -0.691045    29A     -0.682413    30A     -0.663162
      31A     -0.652346    32A     -0.612198    33A     -0.602294
      34A     -0.592120    35A     -0.583390    36A     -0.572559
      37A     -0.555848    38A     -0.546722    39A     -0.535065
      40A     -0.531664    41A     -0.513994    42A     -0.494428
      43A     -0.486898    44A     -0.435615    45A     -0.414755
      46A     -0.394990    47A     -0.368828    48A     -0.317516
      49A     -0.279591

  @DF-RHF Final Energy:  -570.49017152613442

   => Energetics <=

    Nuclear Repulsion Energy =            814.0508314322514707
    One-Electron Energy =               -2388.4250304700613015
    Two-Electron Energy =                1003.8840275116754128
    Total Energy =                       -570.4901715261344179
  Basis Set: (AUG-CC-PVTZ AUX)
    Blend: AUG-CC-PVTZ-RI
    Molecular point group: c1

    Geometry (in Angstrom), charge = 0, multiplicity = 1:

       Center              X                  Y                   Z               Mass
    ------------   -----------------  -----------------  -----------------  -----------------
         N            0.105194200385     2.507447549429    -0.392241646909    14.003074004430
         N           -1.875608799615     0.754432549429     0.621987353091    14.003074004430
         C            0.375027200385     0.098656549429    -0.007485646909    12.000000000000
         C            0.921136200385     1.395104549429    -0.166770646909    12.000000000000
         C            2.631376200385    -0.864380450571     0.117164353091    12.000000000000
         C            1.242406200385    -0.993000450571     0.158125353091    12.000000000000
         C           -1.082680799615    -0.147146450571    -0.005191646909    12.000000000000
         C            2.318322200385     1.519772549429    -0.229112646909    12.000000000000
         C            3.155751200385     0.419650549429    -0.077183646909    12.000000000000
         C            3.533584200385    -2.048889450571     0.346041353091    12.000000000000
         C           -1.616006799615    -1.287618450571    -0.628860646909    12.000000000000
         C           -2.909674099615    -1.470270650571    -0.543318746909    12.000000000000
         C           -3.197831799615     0.517016549429     0.661344353091    12.000000000000
         C           -3.798220799615    -0.608772450571     0.099575353091    12.000000000000
         H            0.808548200385    -1.976976450571     0.335530353091     1.007825032230
         H            2.749278200385     2.509518549429    -0.376835646909     1.007825032230
         H            4.234916200385     0.561831549429    -0.121897646909     1.007825032230
         H            3.853883200385    -2.112881450571     1.391988353091     1.007825032230
         H            3.024109200385    -2.984545450571     0.097555353091     1.007825032230
         H            4.434777200385    -1.981500450571    -0.271064646909     1.007825032230
         H           -0.959115799615    -1.963129450571    -1.169013646909     1.007825032230
         H            0.579968200385     3.385745549429    -0.209299646909     1.007825032230
         H           -0.775719799615     2.442567549429     0.111960353091     1.007825032230
         H           -3.414245799615    -2.405016450571    -1.042671646909     1.007825032230
         H           -3.796446799615     1.268584549429     1.173771353091     1.007825032230
         H           -4.872884799615    -0.750664450571     0.170199353091     1.007825032230

  Basis Set: AUG-CC-PVTZ
    Blend: AUG-CC-PVTZ
  Basis Set: (AUG-CC-PVTZ AUX)
    Blend: AUG-CC-PVTZ-JKFIT
	 Reference Energy          =    -570.4901715261344179 [Eh]
	 Singles Energy            =      -0.0000000000000000 [Eh]
	 Same-Spin Energy          =      -0.6407774459318012 [Eh]
	 Opposite-Spin Energy      =      -1.9774360155523749 [Eh]
	 Correlation Energy        =      -2.6182134614841761 [Eh]
	 Total Energy              =    -573.1083849876185923 [Eh]

	 ================> DF-SCS-MP2 Energies <==================
	-----------------------------------------------------------
	 SCS Same-Spin Scale       =       0.3333333333333333 [-]
	 SCS Opposite-Spin Scale   =       1.2000000000000000 [-]
	 SCS Same-Spin Energy      =      -0.2135924819772670 [Eh]
	 SCS Opposite-Spin Energy  =      -2.3729232186628497 [Eh]
	 SCS Correlation Energy    =      -2.5865157006401169 [Eh]
	 SCS Total Energy          =    -573.0766872267745384 [Eh]
	-----------------------------------------------------------

  Dipole Moment: [D]
     X:    -1.0145      Y:    -0.8817      Z:     0.1148     Total:     1.3490

*** Psi4 exiting successfully. Buy a developer a beer!
