                               Psi4 1.4a3.dev225

  ==> Input File <==

--------------------------------------------------------------------------
#psi4
#
memory 32 gb

molecule  {
0 1
  N        0.0801310     2.5312230    -0.3913130
  N       -1.9006720     0.7782080     0.6229160
  C        0.3499640     0.1224320    -0.0065570
  C        0.8960730     1.4188800    -0.1658420
  C        2.6063130    -0.8406050     0.1180930
  C        1.2671085    -0.9646167     0.1575864
  C       -1.1077440    -0.1233710    -0.0042630
  C        2.2932590     1.5435480    -0.2281840
  C        3.1306880     0.4434260    -0.0762550
  C        3.5085210    -2.0251140     0.3469700
  C       -1.6410700    -1.2638430    -0.6279320
  C       -3.0109220    -1.5027310    -0.5649580
  C       -3.2228950     0.5407920     0.6622730
  C       -3.8232840    -0.5849970     0.1005040
  H        0.7834850    -1.9532010     0.3364590
  H        2.7242150     2.5332940    -0.3759070
  H        4.2098530     0.5856070    -0.1209690
  H        3.8288200    -2.0891060     1.3929170
  H        2.9990460    -2.9607700     0.0984840
  H        4.4097140    -1.9577250    -0.2701360
  H       -0.9841790    -1.9393540    -1.1680850
  H        0.5549050     3.4095210    -0.2083710
  H       -0.8007830     2.4663430     0.1128890
  H       -3.4393090    -2.3812410    -1.0417430
  H       -3.8215100     1.2923600     1.1747000
  H       -4.8979480    -0.7268890     0.1711280
units angstrom
no_reorient  #important for SAPT in psi4, default
symmetry c1  #important for SAPT in psi4, default
}

set PROPERTIES_ORIGIN ["COM"]
properties('MP2/aug-cc-pvtz', properties = ['dipole'])
--------------------------------------------------------------------------

    Molecular point group: c1
  Charge       = 0
  Multiplicity = 1
  Basis Set: AUG-CC-PVTZ
    Blend: AUG-CC-PVTZ
  Basis Set: (AUG-CC-PVTZ AUX)
    Blend: AUG-CC-PVTZ-JKFIT

    Orbital Energies [Eh]
    ---------------------

    Doubly Occupied:

       1A    -15.567299     2A    -15.547791     3A    -11.288971
       4A    -11.280039     5A    -11.275435     6A    -11.262094
       7A    -11.241292     8A    -11.240520     9A    -11.234156
      10A    -11.233109    11A    -11.231370    12A    -11.224162
      13A    -11.221645    14A    -11.219453    15A     -1.260589
      16A     -1.210818    17A     -1.135647    18A     -1.087530
      19A     -1.061545    20A     -1.019185    21A     -0.989507
      22A     -0.917935    23A     -0.871447    24A     -0.861857
      25A     -0.814399    26A     -0.783290    27A     -0.708743
      28A     -0.690176    29A     -0.679909    30A     -0.660159
      31A     -0.650874    32A     -0.613415    33A     -0.601535
      34A     -0.588808    35A     -0.579443    36A     -0.574272
      37A     -0.570547    38A     -0.547496    39A     -0.532136
      40A     -0.528870    41A     -0.512833    42A     -0.494400
      43A     -0.482143    44A     -0.437286    45A     -0.419008
      46A     -0.387117    47A     -0.365519    48A     -0.317469
      49A     -0.280509

  @DF-RHF Final Energy:  -570.49889525335220

   => Energetics <=

    Nuclear Repulsion Energy =            812.0910824647288564
    One-Electron Energy =               -2384.5724553691475194
    Two-Electron Energy =                1001.9824776510663469
    Total Energy =                       -570.4988952533522024
  Basis Set: (AUG-CC-PVTZ AUX)
    Blend: AUG-CC-PVTZ-RI
    Molecular point group: c1

    Geometry (in Angstrom), charge = 0, multiplicity = 1:

       Center              X                  Y                   Z               Mass
    ------------   -----------------  -----------------  -----------------  -----------------
         N            0.106916255337     2.510812730510    -0.390674966169    14.003074004430
         N           -1.873886744663     0.757797730510     0.623554033831    14.003074004430
         C            0.376749255337     0.102021730510    -0.005918966169    12.000000000000
         C            0.922858255337     1.398469730510    -0.165203966169    12.000000000000
         C            2.633098255337    -0.861015269490     0.118731033831    12.000000000000
         C            1.293893755337    -0.985026969490     0.158224433831    12.000000000000
         C           -1.080958744663    -0.143781269490    -0.003624966169    12.000000000000
         C            2.320044255337     1.523137730510    -0.227545966169    12.000000000000
         C            3.157473255337     0.423015730510    -0.075616966169    12.000000000000
         C            3.535306255337    -2.045524269490     0.347608033831    12.000000000000
         C           -1.614284744663    -1.284253269490    -0.627293966169    12.000000000000
         C           -2.984136744663    -1.523141269490    -0.564319966169    12.000000000000
         C           -3.196109744663     0.520381730510     0.662911033831    12.000000000000
         C           -3.796498744663    -0.605407269490     0.101142033831    12.000000000000
         H            0.810270255337    -1.973611269490     0.337097033831     1.007825032230
         H            2.751000255337     2.512883730510    -0.375268966169     1.007825032230
         H            4.236638255337     0.565196730510    -0.120330966169     1.007825032230
         H            3.855605255337    -2.109516269490     1.393555033831     1.007825032230
         H            3.025831255337    -2.981180269490     0.099122033831     1.007825032230
         H            4.436499255337    -1.978135269490    -0.269497966169     1.007825032230
         H           -0.957393744663    -1.959764269490    -1.167446966169     1.007825032230
         H            0.581690255337     3.389110730510    -0.207732966169     1.007825032230
         H           -0.773997744663     2.445932730510     0.113527033831     1.007825032230
         H           -3.412523744663    -2.401651269490    -1.041104966169     1.007825032230
         H           -3.794724744663     1.271949730510     1.175338033831     1.007825032230
         H           -4.871162744663    -0.747299269490     0.171766033831     1.007825032230

  Basis Set: AUG-CC-PVTZ
    Blend: AUG-CC-PVTZ
  Basis Set: (AUG-CC-PVTZ AUX)
    Blend: AUG-CC-PVTZ-JKFIT
	 Reference Energy          =    -570.4988952533522024 [Eh]
	 Singles Energy            =      -0.0000000000000000 [Eh]
	 Same-Spin Energy          =      -0.6407154199596965 [Eh]
	 Opposite-Spin Energy      =      -1.9776348710350853 [Eh]
	 Correlation Energy        =      -2.6183502909947816 [Eh]
	 Total Energy              =    -573.1172455443469289 [Eh]

	 ================> DF-SCS-MP2 Energies <==================
	-----------------------------------------------------------
	 SCS Same-Spin Scale       =       0.3333333333333333 [-]
	 SCS Opposite-Spin Scale   =       1.2000000000000000 [-]
	 SCS Same-Spin Energy      =      -0.2135718066532322 [Eh]
	 SCS Opposite-Spin Energy  =      -2.3731618452421022 [Eh]
	 SCS Correlation Energy    =      -2.5867336518953343 [Eh]
	 SCS Total Energy          =    -573.0856289052475177 [Eh]
	-----------------------------------------------------------

  Dipole Moment: [D]
     X:    -1.0824      Y:    -0.9361      Z:     0.0683     Total:     1.4327

*** Psi4 exiting successfully. Buy a developer a beer!
