                               Psi4 1.4a3.dev225

  ==> Input File <==

--------------------------------------------------------------------------
#psi4
#
memory 32 gb

molecule  {
0 1
  N        0.0801310     2.5312230    -0.3913130
  N       -1.9006720     0.7782080     0.6229160
  C        0.3499640     0.1224320    -0.0065570
  C        0.8960730     1.4188800    -0.1658420
  C        2.6063130    -0.8406050     0.1180930
  C        1.2173430    -0.9692250     0.1590540
  C       -1.1077440    -0.1233710    -0.0042630
  C        2.2932590     1.5435480    -0.2281840
  C        3.1427294     0.4276073    -0.0740704
  C        3.5085210    -2.0251140     0.3469700
  C       -1.6410700    -1.2638430    -0.6279320
  C       -3.0109220    -1.5027310    -0.5649580
  C       -3.2228950     0.5407920     0.6622730
  C       -3.8232840    -0.5849970     0.1005040
  H        0.7834850    -1.9532010     0.3364590
  H        2.7242150     2.5332940    -0.3759070
  H        4.2098530     0.5856070    -0.1209690
  H        3.8288200    -2.0891060     1.3929170
  H        2.9990460    -2.9607700     0.0984840
  H        4.4097140    -1.9577250    -0.2701360
  H       -0.9841790    -1.9393540    -1.1680850
  H        0.5549050     3.4095210    -0.2083710
  H       -0.8007830     2.4663430     0.1128890
  H       -3.4393090    -2.3812410    -1.0417430
  H       -3.8215100     1.2923600     1.1747000
  H       -4.8979480    -0.7268890     0.1711280
units angstrom
no_reorient  #important for SAPT in psi4, default
symmetry c1  #important for SAPT in psi4, default
}

set PROPERTIES_ORIGIN ["COM"]
properties('MP2/aug-cc-pvtz', properties = ['dipole'])
--------------------------------------------------------------------------

    Molecular point group: c1
  Charge       = 0
  Multiplicity = 1
  Basis Set: AUG-CC-PVTZ
    Blend: AUG-CC-PVTZ
  Basis Set: (AUG-CC-PVTZ AUX)
    Blend: AUG-CC-PVTZ-JKFIT

    Orbital Energies [Eh]
    ---------------------

    Doubly Occupied:

       1A    -15.567841     2A    -15.547250     3A    -11.288948
       4A    -11.280446     5A    -11.274964     6A    -11.262620
       7A    -11.241905     8A    -11.241138     9A    -11.234232
      10A    -11.233043    11A    -11.232470    12A    -11.226029
      13A    -11.223978    14A    -11.219059    15A     -1.261254
      16A     -1.210168    17A     -1.131632    18A     -1.088091
      19A     -1.063276    20A     -1.014393    21A     -0.991935
      22A     -0.915670    23A     -0.871440    24A     -0.862282
      25A     -0.815403    26A     -0.782845    27A     -0.709036
      28A     -0.689208    29A     -0.682083    30A     -0.660625
      31A     -0.650557    32A     -0.613209    33A     -0.600633
      34A     -0.589547    35A     -0.582081    36A     -0.573884
      37A     -0.570201    38A     -0.548351    39A     -0.531461
      40A     -0.529517    41A     -0.512532    42A     -0.491177
      43A     -0.488233    44A     -0.434942    45A     -0.419077
      46A     -0.387624    47A     -0.366134    48A     -0.314695
      49A     -0.279905

  @DF-RHF Final Energy:  -570.50105545234612

   => Energetics <=

    Nuclear Repulsion Energy =            811.8465694346718919
    One-Electron Energy =               -2384.0812004874755985
    Two-Electron Energy =                1001.7335756004575842
    Total Energy =                       -570.5010554523461224
  Basis Set: (AUG-CC-PVTZ AUX)
    Blend: AUG-CC-PVTZ-RI
    Molecular point group: c1

    Geometry (in Angstrom), charge = 0, multiplicity = 1:

       Center              X                  Y                   Z               Mass
    ------------   -----------------  -----------------  -----------------  -----------------
         N            0.109375185706     2.512144202186    -0.390913023684    14.003074004430
         N           -1.871427814294     0.759129202186     0.623315976316    14.003074004430
         C            0.379208185706     0.103353202186    -0.006157023684    12.000000000000
         C            0.925317185706     1.399801202186    -0.165442023684    12.000000000000
         C            2.635557185706    -0.859683797814     0.118492976316    12.000000000000
         C            1.246587185706    -0.988303797814     0.159453976316    12.000000000000
         C           -1.078499814294    -0.142449797814    -0.003863023684    12.000000000000
         C            2.322503185706     1.524469202186    -0.227784023684    12.000000000000
         C            3.171973585706     0.408528502186    -0.073670423684    12.000000000000
         C            3.537765185706    -2.044192797814     0.347369976316    12.000000000000
         C           -1.611825814294    -1.282921797814    -0.627532023684    12.000000000000
         C           -2.981677814294    -1.521809797814    -0.564558023684    12.000000000000
         C           -3.193650814294     0.521713202186     0.662672976316    12.000000000000
         C           -3.794039814294    -0.604075797814     0.100903976316    12.000000000000
         H            0.812729185706    -1.972279797814     0.336858976316     1.007825032230
         H            2.753459185706     2.514215202186    -0.375507023684     1.007825032230
         H            4.239097185706     0.566528202186    -0.120569023684     1.007825032230
         H            3.858064185706    -2.108184797814     1.393316976316     1.007825032230
         H            3.028290185706    -2.979848797814     0.098883976316     1.007825032230
         H            4.438958185706    -1.976803797814    -0.269736023684     1.007825032230
         H           -0.954934814294    -1.958432797814    -1.167685023684     1.007825032230
         H            0.584149185706     3.390442202186    -0.207971023684     1.007825032230
         H           -0.771538814294     2.447264202186     0.113288976316     1.007825032230
         H           -3.410064814294    -2.400319797814    -1.041343023684     1.007825032230
         H           -3.792265814294     1.273281202186     1.175099976316     1.007825032230
         H           -4.868703814294    -0.745967797814     0.171527976316     1.007825032230

  Basis Set: AUG-CC-PVTZ
    Blend: AUG-CC-PVTZ
  Basis Set: (AUG-CC-PVTZ AUX)
    Blend: AUG-CC-PVTZ-JKFIT
	 Reference Energy          =    -570.5010554523461224 [Eh]
	 Singles Energy            =      -0.0000000000000000 [Eh]
	 Same-Spin Energy          =      -0.6408661869727519 [Eh]
	 Opposite-Spin Energy      =      -1.9778197439321543 [Eh]
	 Correlation Energy        =      -2.6186859309049062 [Eh]
	 Total Energy              =    -573.1197413832510392 [Eh]

	 ================> DF-SCS-MP2 Energies <==================
	-----------------------------------------------------------
	 SCS Same-Spin Scale       =       0.3333333333333333 [-]
	 SCS Opposite-Spin Scale   =       1.2000000000000000 [-]
	 SCS Same-Spin Energy      =      -0.2136220623242506 [Eh]
	 SCS Opposite-Spin Energy  =      -2.3733836927185852 [Eh]
	 SCS Correlation Energy    =      -2.5870057550428358 [Eh]
	 SCS Total Energy          =    -573.0880612073889324 [Eh]
	-----------------------------------------------------------

  Dipole Moment: [D]
     X:    -1.1155      Y:    -0.9714      Z:     0.0783     Total:     1.4813

*** Psi4 exiting successfully. Buy a developer a beer!
