                               Psi4 1.4a3.dev225

  ==> Input File <==

--------------------------------------------------------------------------
#psi4
#
memory 32 gb

molecule  {
0 1
  N        0.0801310     2.5312230    -0.3913130
  N       -1.9006720     0.7782080     0.6229160
  C        0.3499640     0.1224320    -0.0065570
  C        0.8960730     1.4188800    -0.1658420
  C        2.6063130    -0.8406050     0.1180930
  C        1.2173430    -0.9692250     0.1590540
  C       -1.1077440    -0.1233710    -0.0042630
  C        2.2932590     1.5435480    -0.2281840
  C        3.1306880     0.4434260    -0.0762550
  C        3.5085210    -2.0251140     0.3469700
  C       -1.6410700    -1.2638430    -0.6279320
  C       -3.0109220    -1.5027310    -0.5649580
  C       -3.2228950     0.5407920     0.6622730
  C       -3.9094182    -0.7465072     0.0199103
  H        0.7834850    -1.9532010     0.3364590
  H        2.7242150     2.5332940    -0.3759070
  H        4.2098530     0.5856070    -0.1209690
  H        3.8288200    -2.0891060     1.3929170
  H        2.9990460    -2.9607700     0.0984840
  H        4.4097140    -1.9577250    -0.2701360
  H       -0.9841790    -1.9393540    -1.1680850
  H        0.5549050     3.4095210    -0.2083710
  H       -0.8007830     2.4663430     0.1128890
  H       -3.4393090    -2.3812410    -1.0417430
  H       -3.8215100     1.2923600     1.1747000
  H       -4.8979480    -0.7268890     0.1711280
units angstrom
no_reorient  #important for SAPT in psi4, default
symmetry c1  #important for SAPT in psi4, default
}

set PROPERTIES_ORIGIN ["COM"]
properties('MP2/aug-cc-pvtz', properties = ['dipole'])
--------------------------------------------------------------------------

    Molecular point group: c1
  Charge       = 0
  Multiplicity = 1
  Basis Set: AUG-CC-PVTZ
    Blend: AUG-CC-PVTZ
  Basis Set: (AUG-CC-PVTZ AUX)
    Blend: AUG-CC-PVTZ-JKFIT

    Orbital Energies [Eh]
    ---------------------

    Doubly Occupied:

       1A    -15.572747     2A    -15.548036     3A    -11.303351
       4A    -11.287110     5A    -11.274739     6A    -11.250885
       7A    -11.246553     8A    -11.237471     9A    -11.232537
      10A    -11.231844    11A    -11.231353    12A    -11.225892
      13A    -11.222193    14A    -11.218889    15A     -1.258457
      16A     -1.210156    17A     -1.130872    18A     -1.098564
      19A     -1.056145    20A     -1.015358    21A     -0.985244
      22A     -0.915506    23A     -0.879784    24A     -0.850256
      25A     -0.816621    26A     -0.781666    27A     -0.711572
      28A     -0.693404    29A     -0.682743    30A     -0.670026
      31A     -0.650932    32A     -0.610721    33A     -0.600358
      34A     -0.589626    35A     -0.580497    36A     -0.570918
      37A     -0.553884    38A     -0.550517    39A     -0.541165
      40A     -0.529408    41A     -0.512427    42A     -0.492872
      43A     -0.484411    44A     -0.434175    45A     -0.406492
      46A     -0.403779    47A     -0.357745    48A     -0.310959
      49A     -0.276556

  @DF-RHF Final Energy:  -570.46035996508078

   => Energetics <=

    Nuclear Repulsion Energy =            809.8154926342890576
    One-Electron Energy =               -2379.9568761461359827
    Two-Electron Energy =                 999.6810235467661414
    Total Energy =                       -570.4603599650807837
  Basis Set: (AUG-CC-PVTZ AUX)
    Blend: AUG-CC-PVTZ-RI
    Molecular point group: c1

    Geometry (in Angstrom), charge = 0, multiplicity = 1:

       Center              X                  Y                   Z               Mass
    ------------   -----------------  -----------------  -----------------  -----------------
         N            0.115774462677     2.521640658137    -0.385517372740    14.003074004430
         N           -1.865028537323     0.768625658137     0.628711627260    14.003074004430
         C            0.385607462677     0.112849658137    -0.000761372740    12.000000000000
         C            0.931716462677     1.409297658137    -0.160046372740    12.000000000000
         C            2.641956462677    -0.850187341863     0.123888627260    12.000000000000
         C            1.252986462677    -0.978807341863     0.164849627260    12.000000000000
         C           -1.072100537323    -0.132953341863     0.001532627260    12.000000000000
         C            2.328902462677     1.533965658137    -0.222388372740    12.000000000000
         C            3.166331462677     0.433843658137    -0.070459372740    12.000000000000
         C            3.544164462677    -2.034696341863     0.352765627260    12.000000000000
         C           -1.605426537323    -1.273425341863    -0.622136372740    12.000000000000
         C           -2.975278537323    -1.512313341863    -0.559162372740    12.000000000000
         C           -3.187251537323     0.531209658137     0.668068627260    12.000000000000
         C           -3.873774737323    -0.756089541863     0.025705927260    12.000000000000
         H            0.819128462677    -1.962783341863     0.342254627260     1.007825032230
         H            2.759858462677     2.523711658137    -0.370111372740     1.007825032230
         H            4.245496462677     0.576024658137    -0.115173372740     1.007825032230
         H            3.864463462677    -2.098688341863     1.398712627260     1.007825032230
         H            3.034689462677    -2.970352341863     0.104279627260     1.007825032230
         H            4.445357462677    -1.967307341863    -0.264340372740     1.007825032230
         H           -0.948535537323    -1.948936341863    -1.162289372740     1.007825032230
         H            0.590548462677     3.399938658137    -0.202575372740     1.007825032230
         H           -0.765139537323     2.456760658137     0.118684627260     1.007825032230
         H           -3.403665537323    -2.390823341863    -1.035947372740     1.007825032230
         H           -3.785866537323     1.282777658137     1.180495627260     1.007825032230
         H           -4.862304537323    -0.736471341863     0.176923627260     1.007825032230

  Basis Set: AUG-CC-PVTZ
    Blend: AUG-CC-PVTZ
  Basis Set: (AUG-CC-PVTZ AUX)
    Blend: AUG-CC-PVTZ-JKFIT
	 Reference Energy          =    -570.4603599650807837 [Eh]
	 Singles Energy            =      -0.0000000000000000 [Eh]
	 Same-Spin Energy          =      -0.6405491490048225 [Eh]
	 Opposite-Spin Energy      =      -1.9797985819814041 [Eh]
	 Correlation Energy        =      -2.6203477309862269 [Eh]
	 Total Energy              =    -573.0807076960670656 [Eh]

	 ================> DF-SCS-MP2 Energies <==================
	-----------------------------------------------------------
	 SCS Same-Spin Scale       =       0.3333333333333333 [-]
	 SCS Opposite-Spin Scale   =       1.2000000000000000 [-]
	 SCS Same-Spin Energy      =      -0.2135163830016075 [Eh]
	 SCS Opposite-Spin Energy  =      -2.3757582983776850 [Eh]
	 SCS Correlation Energy    =      -2.5892746813792926 [Eh]
	 SCS Total Energy          =    -573.0496346464600492 [Eh]
	-----------------------------------------------------------

  Dipole Moment: [D]
     X:    -1.1887      Y:    -0.8270      Z:     0.1727     Total:     1.4583

*** Psi4 exiting successfully. Buy a developer a beer!
