                               Psi4 1.4a3.dev225

  ==> Input File <==

--------------------------------------------------------------------------
#psi4
#
memory 32 gb

molecule  {
0 1
  N        0.0801310     2.5312230    -0.3913130
  N       -1.9006720     0.7782080     0.6229160
  C        0.3499640     0.1224320    -0.0065570
  C        0.8960730     1.4188800    -0.1658420
  C        2.6063130    -0.8406050     0.1180930
  C        1.2173430    -0.9692250     0.1590540
  C       -1.1077440    -0.1233710    -0.0042630
  C        2.2932590     1.5435480    -0.2281840
  C        3.1306880     0.4434260    -0.0762550
  C        3.5085210    -2.0251140     0.3469700
  C       -1.6410700    -1.2638430    -0.6279320
  C       -3.0109220    -1.5027310    -0.5649580
  C       -3.2228950     0.5407920     0.6622730
  C       -3.8232840    -0.5849970     0.1005040
  H        0.7834850    -1.9532010     0.3364590
  H        2.7242150     2.5332940    -0.3759070
  H        4.2098530     0.5856070    -0.1209690
  H        3.8288200    -2.0891060     1.3929170
  H        2.9990460    -2.9607700     0.0984840
  H        4.4097140    -1.9577250    -0.2701360
  H       -0.9841790    -1.9393540    -1.1680850
  H        0.5549050     3.4095210    -0.2083710
  H       -0.8007830     2.4663430     0.1128890
  H       -3.3605239    -2.2196734    -0.9540570
  H       -3.8215100     1.2923600     1.1747000
  H       -4.8979480    -0.7268890     0.1711280
units angstrom
no_reorient  #important for SAPT in psi4, default
symmetry c1  #important for SAPT in psi4, default
}

set PROPERTIES_ORIGIN ["COM"]
properties('MP2/aug-cc-pvtz', properties = ['dipole'])
--------------------------------------------------------------------------

    Molecular point group: c1
  Charge       = 0
  Multiplicity = 1
  Basis Set: AUG-CC-PVTZ
    Blend: AUG-CC-PVTZ
  Basis Set: (AUG-CC-PVTZ AUX)
    Blend: AUG-CC-PVTZ-JKFIT

    Orbital Energies [Eh]
    ---------------------

    Doubly Occupied:

       1A    -15.567358     2A    -15.547496     3A    -11.287797
       4A    -11.279315     5A    -11.275065     6A    -11.240863
       7A    -11.240121     8A    -11.238479     9A    -11.233165
      10A    -11.232302    11A    -11.231958    12A    -11.226431
      13A    -11.222494    14A    -11.219379    15A     -1.260559
      16A     -1.210402    17A     -1.131425    18A     -1.096718
      19A     -1.062462    20A     -1.015913    21A     -0.992001
      22A     -0.915332    23A     -0.883403    24A     -0.868900
      25A     -0.815611    26A     -0.791158    27A     -0.720932
      28A     -0.690600    29A     -0.682036    30A     -0.661419
      31A     -0.650318    32A     -0.619469    33A     -0.600728
      34A     -0.597335    35A     -0.582487    36A     -0.581419
      37A     -0.571128    38A     -0.547892    39A     -0.531794
      40A     -0.528895    41A     -0.512698    42A     -0.492620
      43A     -0.485452    44A     -0.434952    45A     -0.419471
      46A     -0.387285    47A     -0.366023    48A     -0.316067
      49A     -0.278232

  @DF-RHF Final Energy:  -570.46700436725769

   => Energetics <=

    Nuclear Repulsion Energy =            813.2243951795787780
    One-Electron Energy =               -2386.6920832061205147
    Two-Electron Energy =                1003.0006836592840500
    Total Energy =                       -570.4670043672576867
  Basis Set: (AUG-CC-PVTZ AUX)
    Blend: AUG-CC-PVTZ-RI
    Molecular point group: c1

    Geometry (in Angstrom), charge = 0, multiplicity = 1:

       Center              X                  Y                   Z               Mass
    ------------   -----------------  -----------------  -----------------  -----------------
         N            0.109728771730     2.510228633588    -0.391250649591    14.003074004430
         N           -1.871074228270     0.757213633588     0.622978350409    14.003074004430
         C            0.379561771730     0.101437633588    -0.006494649591    12.000000000000
         C            0.925670771730     1.397885633588    -0.165779649591    12.000000000000
         C            2.635910771730    -0.861599366412     0.118155350409    12.000000000000
         C            1.246940771730    -0.990219366412     0.159116350409    12.000000000000
         C           -1.078146228270    -0.144365366412    -0.004200649591    12.000000000000
         C            2.322856771730     1.522553633588    -0.228121649591    12.000000000000
         C            3.160285771730     0.422431633588    -0.076192649591    12.000000000000
         C            3.538118771730    -2.046108366412     0.347032350409    12.000000000000
         C           -1.611472228270    -1.284837366412    -0.627869649591    12.000000000000
         C           -2.981324228270    -1.523725366412    -0.564895649591    12.000000000000
         C           -3.193297228270     0.519797633588     0.662335350409    12.000000000000
         C           -3.793686228270    -0.605991366412     0.100566350409    12.000000000000
         H            0.813082771730    -1.974195366412     0.336521350409     1.007825032230
         H            2.753812771730     2.512299633588    -0.375844649591     1.007825032230
         H            4.239450771730     0.564612633588    -0.120906649591     1.007825032230
         H            3.858417771730    -2.110100366412     1.392979350409     1.007825032230
         H            3.028643771730    -2.981764366412     0.098546350409     1.007825032230
         H            4.439311771730    -1.978719366412    -0.270073649591     1.007825032230
         H           -0.954581228270    -1.960348366412    -1.168022649591     1.007825032230
         H            0.584502771730     3.388526633588    -0.208308649591     1.007825032230
         H           -0.771185228270     2.445348633588     0.112951350409     1.007825032230
         H           -3.330926128270    -2.240667766412    -0.953994649591     1.007825032230
         H           -3.791912228270     1.271365633588     1.174762350409     1.007825032230
         H           -4.868350228270    -0.747883366412     0.171190350409     1.007825032230

  Basis Set: AUG-CC-PVTZ
    Blend: AUG-CC-PVTZ
  Basis Set: (AUG-CC-PVTZ AUX)
    Blend: AUG-CC-PVTZ-JKFIT
	 Reference Energy          =    -570.4670043672576867 [Eh]
	 Singles Energy            =      -0.0000000000000000 [Eh]
	 Same-Spin Energy          =      -0.6406942166820021 [Eh]
	 Opposite-Spin Energy      =      -1.9772015480665326 [Eh]
	 Correlation Energy        =      -2.6178957647485346 [Eh]
	 Total Energy              =    -573.0849001320061689 [Eh]

	 ================> DF-SCS-MP2 Energies <==================
	-----------------------------------------------------------
	 SCS Same-Spin Scale       =       0.3333333333333333 [-]
	 SCS Opposite-Spin Scale   =       1.2000000000000000 [-]
	 SCS Same-Spin Energy      =      -0.2135647388940007 [Eh]
	 SCS Opposite-Spin Energy  =      -2.3726418576798389 [Eh]
	 SCS Correlation Energy    =      -2.5862065965738394 [Eh]
	 SCS Total Energy          =    -573.0532109638314751 [Eh]
	-----------------------------------------------------------

  Dipole Moment: [D]
     X:    -1.1226      Y:    -0.9869      Z:     0.0670     Total:     1.4962

*** Psi4 exiting successfully. Buy a developer a beer!
