                               Psi4 1.4a3.dev225

  ==> Input File <==

--------------------------------------------------------------------------
#psi4
#
memory 32 gb

molecule  {
0 1
  N        0.0801310     2.5312230    -0.3913130
  N       -1.9006720     0.7782080     0.6229160
  C        0.3499640     0.1224320    -0.0065570
  C        0.8960730     1.4188800    -0.1658420
  C        2.6063130    -0.8406050     0.1180930
  C        1.2173430    -0.9692250     0.1590540
  C       -1.1077440    -0.1233710    -0.0042630
  C        2.2932590     1.5435480    -0.2281840
  C        3.1306880     0.4434260    -0.0762550
  C        3.5085210    -2.0251140     0.3469700
  C       -1.6031113    -1.1826717    -0.5835433
  C       -3.0109220    -1.5027310    -0.5649580
  C       -3.2228950     0.5407920     0.6622730
  C       -3.8232840    -0.5849970     0.1005040
  H        0.7834850    -1.9532010     0.3364590
  H        2.7242150     2.5332940    -0.3759070
  H        4.2098530     0.5856070    -0.1209690
  H        3.8288200    -2.0891060     1.3929170
  H        2.9990460    -2.9607700     0.0984840
  H        4.4097140    -1.9577250    -0.2701360
  H       -0.9841790    -1.9393540    -1.1680850
  H        0.5549050     3.4095210    -0.2083710
  H       -0.8007830     2.4663430     0.1128890
  H       -3.4393090    -2.3812410    -1.0417430
  H       -3.8215100     1.2923600     1.1747000
  H       -4.8979480    -0.7268890     0.1711280
units angstrom
no_reorient  #important for SAPT in psi4, default
symmetry c1  #important for SAPT in psi4, default
}

set PROPERTIES_ORIGIN ["COM"]
properties('MP2/aug-cc-pvtz', properties = ['dipole'])
--------------------------------------------------------------------------

    Molecular point group: c1
  Charge       = 0
  Multiplicity = 1
  Basis Set: AUG-CC-PVTZ
    Blend: AUG-CC-PVTZ
  Basis Set: (AUG-CC-PVTZ AUX)
    Blend: AUG-CC-PVTZ-JKFIT

    Orbital Energies [Eh]
    ---------------------

    Doubly Occupied:

       1A    -15.567513     2A    -15.546151     3A    -11.283038
       4A    -11.272650     5A    -11.272605     6A    -11.270566
       7A    -11.244503     8A    -11.238585     9A    -11.230735
      10A    -11.230067    11A    -11.229561    12A    -11.224591
      13A    -11.220708    14A    -11.218055    15A     -1.265699
      16A     -1.209185    17A     -1.130108    18A     -1.083296
      19A     -1.070770    20A     -1.014446    21A     -0.993672
      22A     -0.913613    23A     -0.873360    24A     -0.864094
      25A     -0.811359    26A     -0.785025    27A     -0.708757
      28A     -0.688852    29A     -0.679725    30A     -0.661479
      31A     -0.646809    32A     -0.616386    33A     -0.598288
      34A     -0.587830    35A     -0.580574    36A     -0.577672
      37A     -0.569795    38A     -0.552599    39A     -0.529789
      40A     -0.518105    41A     -0.510512    42A     -0.488453
      43A     -0.481092    44A     -0.433664    45A     -0.422101
      46A     -0.382667    47A     -0.372483    48A     -0.318519
      49A     -0.277721

  @DF-RHF Final Energy:  -570.48820170025795

   => Energetics <=

    Nuclear Repulsion Energy =            813.7508178594504216
    One-Electron Energy =               -2387.9423799720125317
    Two-Electron Energy =                1003.7033604123042778
    Total Energy =                       -570.4882017002579460
  Basis Set: (AUG-CC-PVTZ AUX)
    Blend: AUG-CC-PVTZ-RI
    Molecular point group: c1

    Geometry (in Angstrom), charge = 0, multiplicity = 1:

       Center              X                  Y                   Z               Mass
    ------------   -----------------  -----------------  -----------------  -----------------
         N            0.107685845574     2.505822204935    -0.393663969186    14.003074004430
         N           -1.873117154426     0.752807204935     0.620565030814    14.003074004430
         C            0.377518845574     0.097031204935    -0.008907969186    12.000000000000
         C            0.923627845574     1.393479204935    -0.168192969186    12.000000000000
         C            2.633867845574    -0.866005795065     0.115742030814    12.000000000000
         C            1.244897845574    -0.994625795065     0.156703030814    12.000000000000
         C           -1.080189154426    -0.148771795065    -0.006613969186    12.000000000000
         C            2.320813845574     1.518147204935    -0.230534969186    12.000000000000
         C            3.158242845574     0.418025204935    -0.078605969186    12.000000000000
         C            3.536075845574    -2.050514795065     0.344619030814    12.000000000000
         C           -1.575556454426    -1.208072495065    -0.585894269186    12.000000000000
         C           -2.983367154426    -1.528131795065    -0.567308969186    12.000000000000
         C           -3.195340154426     0.515391204935     0.659922030814    12.000000000000
         C           -3.795729154426    -0.610397795065     0.098153030814    12.000000000000
         H            0.811039845574    -1.978601795065     0.334108030814     1.007825032230
         H            2.751769845574     2.507893204935    -0.378257969186     1.007825032230
         H            4.237407845574     0.560206204935    -0.123319969186     1.007825032230
         H            3.856374845574    -2.114506795065     1.390566030814     1.007825032230
         H            3.026600845574    -2.986170795065     0.096133030814     1.007825032230
         H            4.437268845574    -1.983125795065    -0.272486969186     1.007825032230
         H           -0.956624154426    -1.964754795065    -1.170435969186     1.007825032230
         H            0.582459845574     3.384120204935    -0.210721969186     1.007825032230
         H           -0.773228154426     2.440942204935     0.110538030814     1.007825032230
         H           -3.411754154426    -2.406641795065    -1.044093969186     1.007825032230
         H           -3.793955154426     1.266959204935     1.172349030814     1.007825032230
         H           -4.870393154426    -0.752289795065     0.168777030814     1.007825032230

  Basis Set: AUG-CC-PVTZ
    Blend: AUG-CC-PVTZ
  Basis Set: (AUG-CC-PVTZ AUX)
    Blend: AUG-CC-PVTZ-JKFIT
	 Reference Energy          =    -570.4882017002579460 [Eh]
	 Singles Energy            =      -0.0000000000000000 [Eh]
	 Same-Spin Energy          =      -0.6409282398343513 [Eh]
	 Opposite-Spin Energy      =      -1.9783484272334488 [Eh]
	 Correlation Energy        =      -2.6192766670678003 [Eh]
	 Total Energy              =    -573.1074783673257116 [Eh]

	 ================> DF-SCS-MP2 Energies <==================
	-----------------------------------------------------------
	 SCS Same-Spin Scale       =       0.3333333333333333 [-]
	 SCS Opposite-Spin Scale   =       1.2000000000000000 [-]
	 SCS Same-Spin Energy      =      -0.2136427466114504 [Eh]
	 SCS Opposite-Spin Energy  =      -2.3740181126801385 [Eh]
	 SCS Correlation Energy    =      -2.5876608592915891 [Eh]
	 SCS Total Energy          =    -573.0758625595495914 [Eh]
	-----------------------------------------------------------

  Dipole Moment: [D]
     X:    -1.3035      Y:    -1.0031      Z:     0.0886     Total:     1.6472

*** Psi4 exiting successfully. Buy a developer a beer!
