                               Psi4 1.4a3.dev225

  ==> Input File <==

--------------------------------------------------------------------------
#psi4
#
memory 32 gb

molecule  {
0 1
  N        0.0801310     2.5312230    -0.3913130
  N       -1.9006720     0.7782080     0.6229160
  C        0.3499640     0.1224320    -0.0065570
  C        0.9077475     1.4029646    -0.1626160
  C        2.6063130    -0.8406050     0.1180930
  C        1.2173430    -0.9692250     0.1590540
  C       -1.1077440    -0.1233710    -0.0042630
  C        2.2932590     1.5435480    -0.2281840
  C        3.1306880     0.4434260    -0.0762550
  C        3.5085210    -2.0251140     0.3469700
  C       -1.6410700    -1.2638430    -0.6279320
  C       -3.0109220    -1.5027310    -0.5649580
  C       -3.2228950     0.5407920     0.6622730
  C       -3.8232840    -0.5849970     0.1005040
  H        0.7834850    -1.9532010     0.3364590
  H        2.7242150     2.5332940    -0.3759070
  H        4.2098530     0.5856070    -0.1209690
  H        3.8288200    -2.0891060     1.3929170
  H        2.9990460    -2.9607700     0.0984840
  H        4.4097140    -1.9577250    -0.2701360
  H       -0.9841790    -1.9393540    -1.1680850
  H        0.5549050     3.4095210    -0.2083710
  H       -0.8007830     2.4663430     0.1128890
  H       -3.4393090    -2.3812410    -1.0417430
  H       -3.8215100     1.2923600     1.1747000
  H       -4.8979480    -0.7268890     0.1711280
units angstrom
no_reorient  #important for SAPT in psi4, default
symmetry c1  #important for SAPT in psi4, default
}

set PROPERTIES_ORIGIN ["COM"]
properties('MP2/aug-cc-pvtz', properties = ['dipole'])
--------------------------------------------------------------------------

    Molecular point group: c1
  Charge       = 0
  Multiplicity = 1
  Basis Set: AUG-CC-PVTZ
    Blend: AUG-CC-PVTZ
  Basis Set: (AUG-CC-PVTZ AUX)
    Blend: AUG-CC-PVTZ-JKFIT

    Orbital Energies [Eh]
    ---------------------

    Doubly Occupied:

       1A    -15.567742     2A    -15.545305     3A    -11.289248
       4A    -11.280320     5A    -11.273435     6A    -11.262631
       7A    -11.241950     8A    -11.241330     9A    -11.233693
      10A    -11.232845    11A    -11.232417    12A    -11.227659
      13A    -11.222607    14A    -11.220083    15A     -1.260963
      16A     -1.204927    17A     -1.131426    18A     -1.088065
      19A     -1.063683    20A     -1.017697    21A     -0.993505
      22A     -0.916241    23A     -0.871173    24A     -0.862458
      25A     -0.815914    26A     -0.783324    27A     -0.709336
      28A     -0.687893    29A     -0.678709    30A     -0.660428
      31A     -0.650000    32A     -0.613216    33A     -0.601372
      34A     -0.589817    35A     -0.580531    36A     -0.573573
      37A     -0.570427    38A     -0.548262    39A     -0.532682
      40A     -0.530217    41A     -0.511936    42A     -0.492263
      43A     -0.487809    44A     -0.433155    45A     -0.418798
      46A     -0.387700    47A     -0.366981    48A     -0.317028
      49A     -0.281113

  @DF-RHF Final Energy:  -570.50155146219060

   => Energetics <=

    Nuclear Repulsion Energy =            812.1323079860449070
    One-Electron Energy =               -2384.6599479361902922
    Two-Electron Energy =                1002.0260884879547802
    Total Energy =                       -570.5015514621906050
  Basis Set: (AUG-CC-PVTZ AUX)
    Blend: AUG-CC-PVTZ-RI
    Molecular point group: c1

    Geometry (in Angstrom), charge = 0, multiplicity = 1:

       Center              X                  Y                   Z               Mass
    ------------   -----------------  -----------------  -----------------  -----------------
         N            0.109399100963     2.512150505281    -0.390980904166    14.003074004430
         N           -1.871403899037     0.759135505281     0.623248095834    14.003074004430
         C            0.379232100963     0.103359505281    -0.006224904166    12.000000000000
         C            0.937015600963     1.383892105281    -0.162283904166    12.000000000000
         C            2.635581100963    -0.859677494719     0.118425095834    12.000000000000
         C            1.246611100963    -0.988297494719     0.159386095834    12.000000000000
         C           -1.078475899037    -0.142443494719    -0.003930904166    12.000000000000
         C            2.322527100963     1.524475505281    -0.227851904166    12.000000000000
         C            3.159956100963     0.424353505281    -0.075922904166    12.000000000000
         C            3.537789100963    -2.044186494719     0.347302095834    12.000000000000
         C           -1.611801899037    -1.282915494719    -0.627599904166    12.000000000000
         C           -2.981653899037    -1.521803494719    -0.564625904166    12.000000000000
         C           -3.193626899037     0.521719505281     0.662605095834    12.000000000000
         C           -3.794015899037    -0.604069494719     0.100836095834    12.000000000000
         H            0.812753100963    -1.972273494719     0.336791095834     1.007825032230
         H            2.753483100963     2.514221505281    -0.375574904166     1.007825032230
         H            4.239121100963     0.566534505281    -0.120636904166     1.007825032230
         H            3.858088100963    -2.108178494719     1.393249095834     1.007825032230
         H            3.028314100963    -2.979842494719     0.098816095834     1.007825032230
         H            4.438982100963    -1.976797494719    -0.269803904166     1.007825032230
         H           -0.954910899037    -1.958426494719    -1.167752904166     1.007825032230
         H            0.584173100963     3.390448505281    -0.208038904166     1.007825032230
         H           -0.771514899037     2.447270505281     0.113221095834     1.007825032230
         H           -3.410040899037    -2.400313494719    -1.041410904166     1.007825032230
         H           -3.792241899037     1.273287505281     1.175032095834     1.007825032230
         H           -4.868679899037    -0.745961494719     0.171460095834     1.007825032230

  Basis Set: AUG-CC-PVTZ
    Blend: AUG-CC-PVTZ
  Basis Set: (AUG-CC-PVTZ AUX)
    Blend: AUG-CC-PVTZ-JKFIT
	 Reference Energy          =    -570.5015514621906050 [Eh]
	 Singles Energy            =      -0.0000000000000000 [Eh]
	 Same-Spin Energy          =      -0.6406885802174809 [Eh]
	 Opposite-Spin Energy      =      -1.9776037663900032 [Eh]
	 Correlation Energy        =      -2.6182923466074843 [Eh]
	 Total Energy              =    -573.1198438087981231 [Eh]

	 ================> DF-SCS-MP2 Energies <==================
	-----------------------------------------------------------
	 SCS Same-Spin Scale       =       0.3333333333333333 [-]
	 SCS Opposite-Spin Scale   =       1.2000000000000000 [-]
	 SCS Same-Spin Energy      =      -0.2135628600724936 [Eh]
	 SCS Opposite-Spin Energy  =      -2.3731245196680040 [Eh]
	 SCS Correlation Energy    =      -2.5866873797404977 [Eh]
	 SCS Total Energy          =    -573.0882388419311155 [Eh]
	-----------------------------------------------------------

  Dipole Moment: [D]
     X:    -1.0421      Y:    -1.0711      Z:     0.0983     Total:     1.4977

*** Psi4 exiting successfully. Buy a developer a beer!
