                               Psi4 1.4a3.dev225

  ==> Input File <==

--------------------------------------------------------------------------
#psi4
#
memory 32 gb

molecule  {
0 1
  N        0.0801310     2.5312230    -0.3913130
  N       -1.9006720     0.7782080     0.6229160
  C        0.3499640     0.1224320    -0.0065570
  C        0.8960730     1.4188800    -0.1658420
  C        2.6063130    -0.8406050     0.1180930
  C        1.2173430    -0.9692250     0.1590540
  C       -1.1077440    -0.1233710    -0.0042630
  C        2.2932590     1.5435480    -0.2281840
  C        3.1306880     0.4434260    -0.0762550
  C        3.5085210    -2.0251140     0.3469700
  C       -1.6220907    -1.2232573    -0.6057377
  C       -3.0109220    -1.5027310    -0.5649580
  C       -3.2228950     0.5407920     0.6622730
  C       -3.8232840    -0.5849970     0.1005040
  H        0.7834850    -1.9532010     0.3364590
  H        2.7242150     2.5332940    -0.3759070
  H        4.2098530     0.5856070    -0.1209690
  H        3.8288200    -2.0891060     1.3929170
  H        2.9990460    -2.9607700     0.0984840
  H        4.4097140    -1.9577250    -0.2701360
  H       -0.9841790    -1.9393540    -1.1680850
  H        0.5549050     3.4095210    -0.2083710
  H       -0.8007830     2.4663430     0.1128890
  H       -3.4393090    -2.3812410    -1.0417430
  H       -3.8215100     1.2923600     1.1747000
  H       -4.8979480    -0.7268890     0.1711280
units angstrom
no_reorient  #important for SAPT in psi4, default
symmetry c1  #important for SAPT in psi4, default
}

set PROPERTIES_ORIGIN ["COM"]
properties('MP2/aug-cc-pvtz', properties = ['dipole'])
--------------------------------------------------------------------------

    Molecular point group: c1
  Charge       = 0
  Multiplicity = 1
  Basis Set: AUG-CC-PVTZ
    Blend: AUG-CC-PVTZ
  Basis Set: (AUG-CC-PVTZ AUX)
    Blend: AUG-CC-PVTZ-JKFIT

    Orbital Energies [Eh]
    ---------------------

    Doubly Occupied:

       1A    -15.567550     2A    -15.546934     3A    -11.281566
       4A    -11.281085     5A    -11.273996     6A    -11.266536
       7A    -11.243043     8A    -11.239892     9A    -11.232104
      10A    -11.231309    11A    -11.230925    12A    -11.225611
      13A    -11.221712    14A    -11.218781    15A     -1.263163
      16A     -1.209917    17A     -1.130849    18A     -1.085509
      19A     -1.066472    20A     -1.015277    21A     -0.992957
      22A     -0.914570    23A     -0.868923    24A     -0.866064
      25A     -0.813151    26A     -0.784288    27A     -0.708785
      28A     -0.689298    29A     -0.680516    30A     -0.659659
      31A     -0.649476    32A     -0.614971    33A     -0.599366
      34A     -0.588437    35A     -0.581053    36A     -0.576068
      37A     -0.570229    38A     -0.550253    39A     -0.530647
      40A     -0.523830    41A     -0.512068    42A     -0.490826
      43A     -0.484014    44A     -0.434368    45A     -0.420752
      46A     -0.384459    47A     -0.369561    48A     -0.317537
      49A     -0.278137

  @DF-RHF Final Energy:  -570.49853997559148

   => Energetics <=

    Nuclear Repulsion Energy =            812.8607455791109260
    One-Electron Energy =               -2386.1455837201820032
    Two-Electron Energy =                1002.7862981654795931
    Total Energy =                       -570.4985399755914841
  Basis Set: (AUG-CC-PVTZ AUX)
    Blend: AUG-CC-PVTZ-RI
    Molecular point group: c1

    Geometry (in Angstrom), charge = 0, multiplicity = 1:

       Center              X                  Y                   Z               Mass
    ------------   -----------------  -----------------  -----------------  -----------------
         N            0.108922959861     2.508467653452    -0.392217294933    14.003074004430
         N           -1.871880040139     0.755452653452     0.622011705067    14.003074004430
         C            0.378755959861     0.099676653452    -0.007461294933    12.000000000000
         C            0.924864959861     1.396124653452    -0.166746294933    12.000000000000
         C            2.635104959861    -0.863360346548     0.117188705067    12.000000000000
         C            1.246134959861    -0.991980346548     0.158149705067    12.000000000000
         C           -1.078952040139    -0.146126346548    -0.005167294933    12.000000000000
         C            2.322050959861     1.520792653452    -0.229088294933    12.000000000000
         C            3.159479959861     0.420670653452    -0.077159294933    12.000000000000
         C            3.537312959861    -2.047869346548     0.346065705067    12.000000000000
         C           -1.593298740139    -1.246012646548    -0.606641994933    12.000000000000
         C           -2.982130040139    -1.525486346548    -0.565862294933    12.000000000000
         C           -3.194103040139     0.518036653452     0.661368705067    12.000000000000
         C           -3.794492040139    -0.607752346548     0.099599705067    12.000000000000
         H            0.812276959861    -1.975956346548     0.335554705067     1.007825032230
         H            2.753006959861     2.510538653452    -0.376811294933     1.007825032230
         H            4.238644959861     0.562851653452    -0.121873294933     1.007825032230
         H            3.857611959861    -2.111861346548     1.392012705067     1.007825032230
         H            3.027837959861    -2.983525346548     0.097579705067     1.007825032230
         H            4.438505959861    -1.980480346548    -0.271040294933     1.007825032230
         H           -0.955387040139    -1.962109346548    -1.168989294933     1.007825032230
         H            0.583696959861     3.386765653452    -0.209275294933     1.007825032230
         H           -0.771991040139     2.443587653452     0.111984705067     1.007825032230
         H           -3.410517040139    -2.403996346548    -1.042647294933     1.007825032230
         H           -3.792718040139     1.269604653452     1.173795705067     1.007825032230
         H           -4.869156040139    -0.749644346548     0.170223705067     1.007825032230

  Basis Set: AUG-CC-PVTZ
    Blend: AUG-CC-PVTZ
  Basis Set: (AUG-CC-PVTZ AUX)
    Blend: AUG-CC-PVTZ-JKFIT
	 Reference Energy          =    -570.4985399755914841 [Eh]
	 Singles Energy            =      -0.0000000000000000 [Eh]
	 Same-Spin Energy          =      -0.6409227999455095 [Eh]
	 Opposite-Spin Energy      =      -1.9779034803619966 [Eh]
	 Correlation Energy        =      -2.6188262803075060 [Eh]
	 Total Energy              =    -573.1173662558990145 [Eh]

	 ================> DF-SCS-MP2 Energies <==================
	-----------------------------------------------------------
	 SCS Same-Spin Scale       =       0.3333333333333333 [-]
	 SCS Opposite-Spin Scale   =       1.2000000000000000 [-]
	 SCS Same-Spin Energy      =      -0.2136409333151698 [Eh]
	 SCS Opposite-Spin Energy  =      -2.3734841764343959 [Eh]
	 SCS Correlation Energy    =      -2.5871251097495658 [Eh]
	 SCS Total Energy          =    -573.0856650853410201 [Eh]
	-----------------------------------------------------------

  Dipole Moment: [D]
     X:    -1.1962      Y:    -0.9859      Z:     0.0809     Total:     1.5522

*** Psi4 exiting successfully. Buy a developer a beer!
