                               Psi4 1.4a3.dev225

  ==> Input File <==

--------------------------------------------------------------------------
#psi4
#
memory 32 gb

molecule  {
0 1
  N        0.0801310     2.5312230    -0.3913130
  N       -1.9006720     0.7782080     0.6229160
  C        0.3499640     0.1224320    -0.0065570
  C        0.8960730     1.4188800    -0.1658420
  C        2.6063130    -0.8406050     0.1180930
  C        1.2173430    -0.9692250     0.1590540
  C       -1.1077440    -0.1233710    -0.0042630
  C        2.3131602     1.5453237    -0.2290720
  C        3.1306880     0.4434260    -0.0762550
  C        3.5085210    -2.0251140     0.3469700
  C       -1.6410700    -1.2638430    -0.6279320
  C       -3.0109220    -1.5027310    -0.5649580
  C       -3.2228950     0.5407920     0.6622730
  C       -3.8232840    -0.5849970     0.1005040
  H        0.7834850    -1.9532010     0.3364590
  H        2.7242150     2.5332940    -0.3759070
  H        4.2098530     0.5856070    -0.1209690
  H        3.8288200    -2.0891060     1.3929170
  H        2.9990460    -2.9607700     0.0984840
  H        4.4097140    -1.9577250    -0.2701360
  H       -0.9841790    -1.9393540    -1.1680850
  H        0.5549050     3.4095210    -0.2083710
  H       -0.8007830     2.4663430     0.1128890
  H       -3.4393090    -2.3812410    -1.0417430
  H       -3.8215100     1.2923600     1.1747000
  H       -4.8979480    -0.7268890     0.1711280
units angstrom
no_reorient  #important for SAPT in psi4, default
symmetry c1  #important for SAPT in psi4, default
}

set PROPERTIES_ORIGIN ["COM"]
properties('MP2/aug-cc-pvtz', properties = ['dipole'])
--------------------------------------------------------------------------

    Molecular point group: c1
  Charge       = 0
  Multiplicity = 1
  Basis Set: AUG-CC-PVTZ
    Blend: AUG-CC-PVTZ
  Basis Set: (AUG-CC-PVTZ AUX)
    Blend: AUG-CC-PVTZ-JKFIT

    Orbital Energies [Eh]
    ---------------------

    Doubly Occupied:

       1A    -15.567369     2A    -15.548857     3A    -11.288539
       4A    -11.280130     5A    -11.278003     6A    -11.262299
       7A    -11.241436     8A    -11.240651     9A    -11.233144
      10A    -11.231681    11A    -11.231583    12A    -11.226176
      13A    -11.223356    14A    -11.219308    15A     -1.260843
      16A     -1.210285    17A     -1.131735    18A     -1.087703
      19A     -1.063191    20A     -1.015325    21A     -0.993025
      22A     -0.914522    23A     -0.869517    24A     -0.862079
      25A     -0.815067    26A     -0.783685    27A     -0.708828
      28A     -0.689987    29A     -0.681326    30A     -0.660529
      31A     -0.650120    32A     -0.615901    33A     -0.600494
      34A     -0.589552    35A     -0.580884    36A     -0.573595
      37A     -0.569921    38A     -0.548031    39A     -0.531841
      40A     -0.529083    41A     -0.512225    42A     -0.493810
      43A     -0.485060    44A     -0.435490    45A     -0.418692
      46A     -0.387563    47A     -0.367035    48A     -0.317233
      49A     -0.276918

  @DF-RHF Final Energy:  -570.50124045585915

   => Energetics <=

    Nuclear Repulsion Energy =            811.7190376143307731
    One-Electron Energy =               -2383.8332951283427974
    Two-Electron Energy =                1001.6130170581528773
    Total Energy =                       -570.5012404558591470
  Basis Set: (AUG-CC-PVTZ AUX)
    Blend: AUG-CC-PVTZ-RI
    Molecular point group: c1

    Geometry (in Angstrom), charge = 0, multiplicity = 1:

       Center              X                  Y                   Z               Mass
    ------------   -----------------  -----------------  -----------------  -----------------
         N            0.108862868622     2.510997364900    -0.390712745627    14.003074004430
         N           -1.871940131378     0.757982364900     0.623516254373    14.003074004430
         C            0.378695868622     0.102206364900    -0.005956745627    12.000000000000
         C            0.924804868622     1.398654364900    -0.165241745627    12.000000000000
         C            2.635044868622    -0.860830635100     0.118693254373    12.000000000000
         C            1.246074868622    -0.989450635100     0.159654254373    12.000000000000
         C           -1.079012131378    -0.143596635100    -0.003662745627    12.000000000000
         C            2.341892068622     1.525098064900    -0.228471745627    12.000000000000
         C            3.159419868622     0.423200364900    -0.075654745627    12.000000000000
         C            3.537252868622    -2.045339635100     0.347570254373    12.000000000000
         C           -1.612338131378    -1.284068635100    -0.627331745627    12.000000000000
         C           -2.982190131378    -1.522956635100    -0.564357745627    12.000000000000
         C           -3.194163131378     0.520566364900     0.662873254373    12.000000000000
         C           -3.794552131378    -0.605222635100     0.101104254373    12.000000000000
         H            0.812216868622    -1.973426635100     0.337059254373     1.007825032230
         H            2.752946868622     2.513068364900    -0.375306745627     1.007825032230
         H            4.238584868622     0.565381364900    -0.120368745627     1.007825032230
         H            3.857551868622    -2.109331635100     1.393517254373     1.007825032230
         H            3.027777868622    -2.980995635100     0.099084254373     1.007825032230
         H            4.438445868622    -1.977950635100    -0.269535745627     1.007825032230
         H           -0.955447131378    -1.959579635100    -1.167484745627     1.007825032230
         H            0.583636868622     3.389295364900    -0.207770745627     1.007825032230
         H           -0.772051131378     2.446117364900     0.113489254373     1.007825032230
         H           -3.410577131378    -2.401466635100    -1.041142745627     1.007825032230
         H           -3.792778131378     1.272134364900     1.175300254373     1.007825032230
         H           -4.869216131378    -0.747114635100     0.171728254373     1.007825032230

  Basis Set: AUG-CC-PVTZ
    Blend: AUG-CC-PVTZ
  Basis Set: (AUG-CC-PVTZ AUX)
    Blend: AUG-CC-PVTZ-JKFIT
	 Reference Energy          =    -570.5012404558591470 [Eh]
	 Singles Energy            =      -0.0000000000000000 [Eh]
	 Same-Spin Energy          =      -0.6407615929709962 [Eh]
	 Opposite-Spin Energy      =      -1.9776683944063782 [Eh]
	 Correlation Energy        =      -2.6184299873773744 [Eh]
	 Total Energy              =    -573.1196704432364868 [Eh]

	 ================> DF-SCS-MP2 Energies <==================
	-----------------------------------------------------------
	 SCS Same-Spin Scale       =       0.3333333333333333 [-]
	 SCS Opposite-Spin Scale   =       1.2000000000000000 [-]
	 SCS Same-Spin Energy      =      -0.2135871976569987 [Eh]
	 SCS Opposite-Spin Energy  =      -2.3732020732876538 [Eh]
	 SCS Correlation Energy    =      -2.5867892709446525 [Eh]
	 SCS Total Energy          =    -573.0880297268038248 [Eh]
	-----------------------------------------------------------

  Dipole Moment: [D]
     X:    -1.1041      Y:    -0.9279      Z:     0.0702     Total:     1.4439

*** Psi4 exiting successfully. Buy a developer a beer!
