                               Psi4 1.4a3.dev225

  ==> Input File <==

--------------------------------------------------------------------------
#psi4
#
memory 32 gb

molecule  {
0 1
  N        0.0801310     2.5312230    -0.3913130
  N       -1.9006720     0.7782080     0.6229160
  C        0.3499640     0.1224320    -0.0065570
  C        0.8960730     1.4188800    -0.1658420
  C        2.6063130    -0.8406050     0.1180930
  C        1.2173430    -0.9692250     0.1590540
  C       -1.1077440    -0.1233710    -0.0042630
  C        2.2932590     1.5435480    -0.2281840
  C        3.1306880     0.4434260    -0.0762550
  C        3.5085210    -2.0251140     0.3469700
  C       -1.6410700    -1.2638430    -0.6279320
  C       -3.0109220    -1.5027310    -0.5649580
  C       -3.2228950     0.5407920     0.6622730
  C       -3.8232840    -0.5849970     0.1005040
  H        0.7834850    -1.9532010     0.3364590
  H        2.7242150     2.5332940    -0.3759070
  H        4.2098530     0.5856070    -0.1209690
  H        3.8288200    -2.0891060     1.3929170
  H        2.9990460    -2.9607700     0.0984840
  H        4.4097140    -1.9577250    -0.2701360
  H       -0.9841790    -1.9393540    -1.1680850
  H        0.5549050     3.4095210    -0.2083710
  H       -0.8007830     2.4663430     0.1128890
  H       -3.4393090    -2.3812410    -1.0417430
  H       -3.8215100     1.2923600     1.1747000
  H       -4.7000883    -0.7007648     0.1581252
units angstrom
no_reorient  #important for SAPT in psi4, default
symmetry c1  #important for SAPT in psi4, default
}

set PROPERTIES_ORIGIN ["COM"]
properties('MP2/aug-cc-pvtz', properties = ['dipole'])
--------------------------------------------------------------------------

    Molecular point group: c1
  Charge       = 0
  Multiplicity = 1
  Basis Set: AUG-CC-PVTZ
    Blend: AUG-CC-PVTZ
  Basis Set: (AUG-CC-PVTZ AUX)
    Blend: AUG-CC-PVTZ-JKFIT

    Orbital Energies [Eh]
    ---------------------

    Doubly Occupied:

       1A    -15.566414     2A    -15.547456     3A    -11.288290
       4A    -11.279136     5A    -11.275155     6A    -11.261175
       7A    -11.239802     8A    -11.233219     9A    -11.232356
      10A    -11.232027    11A    -11.226415    12A    -11.222499
      13A    -11.219347    14A    -11.217935    15A     -1.260303
      16A     -1.210394    17A     -1.131463    18A     -1.092215
      19A     -1.064661    20A     -1.016120    21A     -0.996860
      22A     -0.915954    23A     -0.880962    24A     -0.861413
      25A     -0.817570    26A     -0.783617    27A     -0.724318
      28A     -0.690638    29A     -0.686543    30A     -0.672694
      31A     -0.651221    32A     -0.613345    33A     -0.600292
      34A     -0.595955    35A     -0.582385    36A     -0.573187
      37A     -0.569579    38A     -0.547998    39A     -0.537518
      40A     -0.530197    41A     -0.512954    42A     -0.492942
      43A     -0.485476    44A     -0.434843    45A     -0.418618
      46A     -0.386856    47A     -0.366090    48A     -0.316233
      49A     -0.278302

  @DF-RHF Final Energy:  -570.46682005347441

   => Energetics <=

    Nuclear Repulsion Energy =            813.2309051228368162
    One-Electron Energy =               -2386.7135741076808699
    Two-Electron Energy =                1003.0158489313697601
    Total Energy =                       -570.4668200534744074
  Basis Set: (AUG-CC-PVTZ AUX)
    Blend: AUG-CC-PVTZ-RI
    Molecular point group: c1

    Geometry (in Angstrom), charge = 0, multiplicity = 1:

       Center              X                  Y                   Z               Mass
    ------------   -----------------  -----------------  -----------------  -----------------
         N            0.109076917677     2.510970095908    -0.390699445536    14.003074004430
         N           -1.871726082323     0.757955095908     0.623529554464    14.003074004430
         C            0.378909917677     0.102179095908    -0.005943445536    12.000000000000
         C            0.925018917677     1.398627095908    -0.165228445536    12.000000000000
         C            2.635258917677    -0.860857904092     0.118706554464    12.000000000000
         C            1.246288917677    -0.989477904092     0.159667554464    12.000000000000
         C           -1.078798082323    -0.143623904092    -0.003649445536    12.000000000000
         C            2.322204917677     1.523295095908    -0.227570445536    12.000000000000
         C            3.159633917677     0.423173095908    -0.075641445536    12.000000000000
         C            3.537466917677    -2.045366904092     0.347583554464    12.000000000000
         C           -1.612124082323    -1.284095904092    -0.627318445536    12.000000000000
         C           -2.981976082323    -1.522983904092    -0.564344445536    12.000000000000
         C           -3.193949082323     0.520539095908     0.662886554464    12.000000000000
         C           -3.794338082323    -0.605249904092     0.101117554464    12.000000000000
         H            0.812430917677    -1.973453904092     0.337072554464     1.007825032230
         H            2.753160917677     2.513041095908    -0.375293445536     1.007825032230
         H            4.238798917677     0.565354095908    -0.120355445536     1.007825032230
         H            3.857765917677    -2.109358904092     1.393530554464     1.007825032230
         H            3.027991917677    -2.981022904092     0.099097554464     1.007825032230
         H            4.438659917677    -1.977977904092    -0.269522445536     1.007825032230
         H           -0.955233082323    -1.959606904092    -1.167471445536     1.007825032230
         H            0.583850917677     3.389268095908    -0.207757445536     1.007825032230
         H           -0.771837082323     2.446090095908     0.113502554464     1.007825032230
         H           -3.410363082323    -2.401493904092    -1.041129445536     1.007825032230
         H           -3.792564082323     1.272107095908     1.175313554464     1.007825032230
         H           -4.671142382323    -0.721017704092     0.158738754464     1.007825032230

  Basis Set: AUG-CC-PVTZ
    Blend: AUG-CC-PVTZ
  Basis Set: (AUG-CC-PVTZ AUX)
    Blend: AUG-CC-PVTZ-JKFIT
	 Reference Energy          =    -570.4668200534744074 [Eh]
	 Singles Energy            =      -0.0000000000000000 [Eh]
	 Same-Spin Energy          =      -0.6406405853601008 [Eh]
	 Opposite-Spin Energy      =      -1.9771296780156764 [Eh]
	 Correlation Energy        =      -2.6177702633757773 [Eh]
	 Total Energy              =    -573.0845903168501536 [Eh]

	 ================> DF-SCS-MP2 Energies <==================
	-----------------------------------------------------------
	 SCS Same-Spin Scale       =       0.3333333333333333 [-]
	 SCS Opposite-Spin Scale   =       1.2000000000000000 [-]
	 SCS Same-Spin Energy      =      -0.2135468617867003 [Eh]
	 SCS Opposite-Spin Energy  =      -2.3725556136188115 [Eh]
	 SCS Correlation Energy    =      -2.5861024754055117 [Eh]
	 SCS Total Energy          =    -573.0529225288798898 [Eh]
	-----------------------------------------------------------

  Dipole Moment: [D]
     X:    -1.1292      Y:    -0.9639      Z:     0.0825     Total:     1.4869

*** Psi4 exiting successfully. Buy a developer a beer!
