                               Psi4 1.4a3.dev225

  ==> Input File <==

--------------------------------------------------------------------------
#psi4
#
memory 32 gb

molecule  {
0 1
  N        0.0801310     2.5312230    -0.3913130
  N       -1.9006720     0.7782080     0.6229160
  C        0.3499640     0.1224320    -0.0065570
  C        0.8960730     1.4188800    -0.1658420
  C        2.6063130    -0.8406050     0.1180930
  C        1.2173430    -0.9692250     0.1590540
  C       -1.1077440    -0.1233710    -0.0042630
  C        2.2178564     1.4833680    -0.2173129
  C        3.1306880     0.4434260    -0.0762550
  C        3.5085210    -2.0251140     0.3469700
  C       -1.6410700    -1.2638430    -0.6279320
  C       -3.0109220    -1.5027310    -0.5649580
  C       -3.2228950     0.5407920     0.6622730
  C       -3.8232840    -0.5849970     0.1005040
  H        0.7834850    -1.9532010     0.3364590
  H        2.7242150     2.5332940    -0.3759070
  H        4.2098530     0.5856070    -0.1209690
  H        3.8288200    -2.0891060     1.3929170
  H        2.9990460    -2.9607700     0.0984840
  H        4.4097140    -1.9577250    -0.2701360
  H       -0.9841790    -1.9393540    -1.1680850
  H        0.5549050     3.4095210    -0.2083710
  H       -0.8007830     2.4663430     0.1128890
  H       -3.4393090    -2.3812410    -1.0417430
  H       -3.8215100     1.2923600     1.1747000
  H       -4.8979480    -0.7268890     0.1711280
units angstrom
no_reorient  #important for SAPT in psi4, default
symmetry c1  #important for SAPT in psi4, default
}

set PROPERTIES_ORIGIN ["COM"]
properties('MP2/aug-cc-pvtz', properties = ['dipole'])
--------------------------------------------------------------------------

    Molecular point group: c1
  Charge       = 0
  Multiplicity = 1
  Basis Set: AUG-CC-PVTZ
    Blend: AUG-CC-PVTZ
  Basis Set: (AUG-CC-PVTZ AUX)
    Blend: AUG-CC-PVTZ-JKFIT

    Orbital Energies [Eh]
    ---------------------

    Doubly Occupied:

       1A    -15.568251     2A    -15.545178     3A    -11.288817
       4A    -11.280646     5A    -11.263972     6A    -11.262786
       7A    -11.242326     8A    -11.241468     9A    -11.235732
      10A    -11.232394    11A    -11.231917    12A    -11.228339
      13A    -11.220773    14A    -11.220097    15A     -1.261726
      16A     -1.213548    17A     -1.135161    18A     -1.088353
      19A     -1.063500    20A     -1.023153    21A     -0.991201
      22A     -0.921271    23A     -0.875235    24A     -0.862178
      25A     -0.811122    26A     -0.782146    27A     -0.709131
      28A     -0.691219    29A     -0.683180    30A     -0.660015
      31A     -0.650053    32A     -0.606456    33A     -0.604965
      34A     -0.590297    35A     -0.579250    36A     -0.572831
      37A     -0.567978    38A     -0.549242    39A     -0.536262
      40A     -0.529981    41A     -0.518080    42A     -0.496581
      43A     -0.470333    44A     -0.435576    45A     -0.419121
      46A     -0.387955    47A     -0.366650    48A     -0.317057
      49A     -0.284384

  @DF-RHF Final Energy:  -570.48985088777545

   => Energetics <=

    Nuclear Repulsion Energy =            814.0372206270845936
    One-Electron Energy =               -2388.4183656041927861
    Two-Electron Energy =                1003.8912940893328596
    Total Energy =                       -570.4898508877754466
  Basis Set: (AUG-CC-PVTZ AUX)
    Blend: AUG-CC-PVTZ-RI
    Molecular point group: c1

    Geometry (in Angstrom), charge = 0, multiplicity = 1:

       Center              X                  Y                   Z               Mass
    ------------   -----------------  -----------------  -----------------  -----------------
         N            0.115074956071     2.515035758189    -0.391479226686    14.003074004430
         N           -1.865728043929     0.762020758189     0.622749773314    14.003074004430
         C            0.384907956071     0.106244758189    -0.006723226686    12.000000000000
         C            0.931016956071     1.402692758189    -0.166008226686    12.000000000000
         C            2.641256956071    -0.856792241811     0.117926773314    12.000000000000
         C            1.252286956071    -0.985412241811     0.158887773314    12.000000000000
         C           -1.072800043929    -0.139558241811    -0.004429226686    12.000000000000
         C            2.252800356071     1.467180758189    -0.217479126686    12.000000000000
         C            3.165631956071     0.427238758189    -0.076421226686    12.000000000000
         C            3.543464956071    -2.041301241811     0.346803773314    12.000000000000
         C           -1.606126043929    -1.280030241811    -0.628098226686    12.000000000000
         C           -2.975978043929    -1.518918241811    -0.565124226686    12.000000000000
         C           -3.187951043929     0.524604758189     0.662106773314    12.000000000000
         C           -3.788340043929    -0.601184241811     0.100337773314    12.000000000000
         H            0.818428956071    -1.969388241811     0.336292773314     1.007825032230
         H            2.759158956071     2.517106758189    -0.376073226686     1.007825032230
         H            4.244796956071     0.569419758189    -0.121135226686     1.007825032230
         H            3.863763956071    -2.105293241811     1.392750773314     1.007825032230
         H            3.033989956071    -2.976957241811     0.098317773314     1.007825032230
         H            4.444657956071    -1.973912241811    -0.270302226686     1.007825032230
         H           -0.949235043929    -1.955541241811    -1.168251226686     1.007825032230
         H            0.589848956071     3.393333758189    -0.208537226686     1.007825032230
         H           -0.765839043929     2.450155758189     0.112722773314     1.007825032230
         H           -3.404365043929    -2.397428241811    -1.041909226686     1.007825032230
         H           -3.786566043929     1.276172758189     1.174533773314     1.007825032230
         H           -4.863004043929    -0.743076241811     0.170961773314     1.007825032230

  Basis Set: AUG-CC-PVTZ
    Blend: AUG-CC-PVTZ
  Basis Set: (AUG-CC-PVTZ AUX)
    Blend: AUG-CC-PVTZ-JKFIT
	 Reference Energy          =    -570.4898508877754466 [Eh]
	 Singles Energy            =      -0.0000000000000000 [Eh]
	 Same-Spin Energy          =      -0.6413248452825809 [Eh]
	 Opposite-Spin Energy      =      -1.9782756230139720 [Eh]
	 Correlation Energy        =      -2.6196004682965528 [Eh]
	 Total Energy              =    -573.1094513560719861 [Eh]

	 ================> DF-SCS-MP2 Energies <==================
	-----------------------------------------------------------
	 SCS Same-Spin Scale       =       0.3333333333333333 [-]
	 SCS Opposite-Spin Scale   =       1.2000000000000000 [-]
	 SCS Same-Spin Energy      =      -0.2137749484275270 [Eh]
	 SCS Opposite-Spin Energy  =      -2.3739307476167664 [Eh]
	 SCS Correlation Energy    =      -2.5877056960442935 [Eh]
	 SCS Total Energy          =    -573.0775565838197281 [Eh]
	-----------------------------------------------------------

  Dipole Moment: [D]
     X:    -1.0675      Y:    -1.1279      Z:     0.1099     Total:     1.5568

*** Psi4 exiting successfully. Buy a developer a beer!
