                               Psi4 1.4a3.dev225

  ==> Input File <==

--------------------------------------------------------------------------
#psi4
#
memory 32 gb

molecule  {
0 1
  N        0.0801310     2.5312230    -0.3913130
  N       -1.9006720     0.7782080     0.6229160
  C        0.3499640     0.1224320    -0.0065570
  C        0.8960730     1.4188800    -0.1658420
  C        2.6063130    -0.8406050     0.1180930
  C        1.2173430    -0.9692250     0.1590540
  C       -1.1077440    -0.1233710    -0.0042630
  C        2.2932590     1.5435480    -0.2281840
  C        3.1306880     0.4434260    -0.0762550
  C        3.5085210    -2.0251140     0.3469700
  C       -1.5651527    -1.1015003    -0.5391546
  C       -3.0109220    -1.5027310    -0.5649580
  C       -3.2228950     0.5407920     0.6622730
  C       -3.8232840    -0.5849970     0.1005040
  H        0.7834850    -1.9532010     0.3364590
  H        2.7242150     2.5332940    -0.3759070
  H        4.2098530     0.5856070    -0.1209690
  H        3.8288200    -2.0891060     1.3929170
  H        2.9990460    -2.9607700     0.0984840
  H        4.4097140    -1.9577250    -0.2701360
  H       -0.9841790    -1.9393540    -1.1680850
  H        0.5549050     3.4095210    -0.2083710
  H       -0.8007830     2.4663430     0.1128890
  H       -3.4393090    -2.3812410    -1.0417430
  H       -3.8215100     1.2923600     1.1747000
  H       -4.8979480    -0.7268890     0.1711280
units angstrom
no_reorient  #important for SAPT in psi4, default
symmetry c1  #important for SAPT in psi4, default
}

set PROPERTIES_ORIGIN ["COM"]
properties('MP2/aug-cc-pvtz', properties = ['dipole'])
--------------------------------------------------------------------------

    Molecular point group: c1
  Charge       = 0
  Multiplicity = 1
  Basis Set: AUG-CC-PVTZ
    Blend: AUG-CC-PVTZ
  Basis Set: (AUG-CC-PVTZ AUX)
    Blend: AUG-CC-PVTZ-JKFIT

    Orbital Energies [Eh]
    ---------------------

    Doubly Occupied:

       1A    -15.567377     2A    -15.544713     3A    -11.286224
       4A    -11.277859     5A    -11.270016     6A    -11.253956
       7A    -11.247334     8A    -11.234675     9A    -11.228222
      10A    -11.227752    11A    -11.227058    12A    -11.222687
      13A    -11.218833    14A    -11.216684    15A     -1.272221
      16A     -1.207838    17A     -1.129238    18A     -1.083915
      19A     -1.077287    20A     -1.012969    21A     -0.995318
      22A     -0.911881    23A     -0.883881    24A     -0.857981
      25A     -0.807135    26A     -0.786212    27A     -0.709256
      28A     -0.687973    29A     -0.678617    30A     -0.665664
      31A     -0.640814    32A     -0.619365    33A     -0.596718
      34A     -0.587035    35A     -0.581946    36A     -0.576874
      37A     -0.569125    38A     -0.558445    39A     -0.528332
      40A     -0.512955    41A     -0.504622    42A     -0.485017
      43A     -0.466989    44A     -0.432131    45A     -0.423397
      46A     -0.389561    47A     -0.372012    48A     -0.320048
      49A     -0.276909

  @DF-RHF Final Energy:  -570.44033824295730

   => Energetics <=

    Nuclear Repulsion Energy =            815.6863046865652223
    One-Electron Energy =               -2391.7871449079516424
    Two-Electron Energy =                1005.6605019784292381
    Total Energy =                       -570.4403382429572957
  Basis Set: (AUG-CC-PVTZ AUX)
    Blend: AUG-CC-PVTZ-RI
    Molecular point group: c1

    Geometry (in Angstrom), charge = 0, multiplicity = 1:

       Center              X                  Y                   Z               Mass
    ------------   -----------------  -----------------  -----------------  -----------------
         N            0.105211630038     2.500531294864    -0.396557311174    14.003074004430
         N           -1.875591369962     0.747516294864     0.617671688826    14.003074004430
         C            0.375044630038     0.091740294864    -0.011801311174    12.000000000000
         C            0.921153630038     1.388188294864    -0.171086311174    12.000000000000
         C            2.631393630038    -0.871296705136     0.112848688826    12.000000000000
         C            1.242423630038    -0.999916705136     0.153809688826    12.000000000000
         C           -1.082663369962    -0.154062705136    -0.009507311174    12.000000000000
         C            2.318339630038     1.512856294864    -0.233428311174    12.000000000000
         C            3.155768630038     0.412734294864    -0.081499311174    12.000000000000
         C            3.533601630038    -2.055805705136     0.341725688826    12.000000000000
         C           -1.540072069962    -1.132192005136    -0.544398911174    12.000000000000
         C           -2.985841369962    -1.533422705136    -0.570202311174    12.000000000000
         C           -3.197814369962     0.510100294864     0.657028688826    12.000000000000
         C           -3.798203369962    -0.615688705136     0.095259688826    12.000000000000
         H            0.808565630038    -1.983892705136     0.331214688826     1.007825032230
         H            2.749295630038     2.502602294864    -0.381151311174     1.007825032230
         H            4.234933630038     0.554915294864    -0.126213311174     1.007825032230
         H            3.853900630038    -2.119797705136     1.387672688826     1.007825032230
         H            3.024126630038    -2.991461705136     0.093239688826     1.007825032230
         H            4.434794630038    -1.988416705136    -0.275380311174     1.007825032230
         H           -0.959098369962    -1.970045705136    -1.173329311174     1.007825032230
         H            0.579985630038     3.378829294864    -0.213615311174     1.007825032230
         H           -0.775702369962     2.435651294864     0.107644688826     1.007825032230
         H           -3.414228369962    -2.411932705136    -1.046987311174     1.007825032230
         H           -3.796429369962     1.261668294864     1.169455688826     1.007825032230
         H           -4.872867369962    -0.757580705136     0.165883688826     1.007825032230

  Basis Set: AUG-CC-PVTZ
    Blend: AUG-CC-PVTZ
  Basis Set: (AUG-CC-PVTZ AUX)
    Blend: AUG-CC-PVTZ-JKFIT
	 Reference Energy          =    -570.4403382429572957 [Eh]
	 Singles Energy            =      -0.0000000000000000 [Eh]
	 Same-Spin Energy          =      -0.6407753912589077 [Eh]
	 Opposite-Spin Energy      =      -1.9799127677129009 [Eh]
	 Correlation Energy        =      -2.6206881589718085 [Eh]
	 Total Energy              =    -573.0610264019290980 [Eh]

	 ================> DF-SCS-MP2 Energies <==================
	-----------------------------------------------------------
	 SCS Same-Spin Scale       =       0.3333333333333333 [-]
	 SCS Opposite-Spin Scale   =       1.2000000000000000 [-]
	 SCS Same-Spin Energy      =      -0.2135917970863025 [Eh]
	 SCS Opposite-Spin Energy  =      -2.3758953212554812 [Eh]
	 SCS Correlation Energy    =      -2.5894871183417836 [Eh]
	 SCS Total Energy          =    -573.0298253612991175 [Eh]
	-----------------------------------------------------------

  Dipole Moment: [D]
     X:    -1.5425      Y:    -1.0192      Z:     0.1184     Total:     1.8526

*** Psi4 exiting successfully. Buy a developer a beer!
