                               Psi4 1.4a3.dev225

  ==> Input File <==

--------------------------------------------------------------------------
#psi4
#
memory 32 gb

molecule  {
0 1
  N        0.0801310     2.5312230    -0.3913130
  N       -1.9006720     0.7782080     0.6229160
  C        0.3499640     0.1224320    -0.0065570
  C        0.8960730     1.4188800    -0.1658420
  C        2.6063130    -0.8406050     0.1180930
  C        1.2173430    -0.9692250     0.1590540
  C       -1.1077440    -0.1233710    -0.0042630
  C        2.2932590     1.5435480    -0.2281840
  C        3.0704808     0.5225195    -0.0871780
  C        3.5085210    -2.0251140     0.3469700
  C       -1.6410700    -1.2638430    -0.6279320
  C       -3.0109220    -1.5027310    -0.5649580
  C       -3.2228950     0.5407920     0.6622730
  C       -3.8232840    -0.5849970     0.1005040
  H        0.7834850    -1.9532010     0.3364590
  H        2.7242150     2.5332940    -0.3759070
  H        4.2098530     0.5856070    -0.1209690
  H        3.8288200    -2.0891060     1.3929170
  H        2.9990460    -2.9607700     0.0984840
  H        4.4097140    -1.9577250    -0.2701360
  H       -0.9841790    -1.9393540    -1.1680850
  H        0.5549050     3.4095210    -0.2083710
  H       -0.8007830     2.4663430     0.1128890
  H       -3.4393090    -2.3812410    -1.0417430
  H       -3.8215100     1.2923600     1.1747000
  H       -4.8979480    -0.7268890     0.1711280
units angstrom
no_reorient  #important for SAPT in psi4, default
symmetry c1  #important for SAPT in psi4, default
}

set PROPERTIES_ORIGIN ["COM"]
properties('MP2/aug-cc-pvtz', properties = ['dipole'])
--------------------------------------------------------------------------

    Molecular point group: c1
  Charge       = 0
  Multiplicity = 1
  Basis Set: AUG-CC-PVTZ
    Blend: AUG-CC-PVTZ
  Basis Set: (AUG-CC-PVTZ AUX)
    Blend: AUG-CC-PVTZ-JKFIT

    Orbital Energies [Eh]
    ---------------------

    Doubly Occupied:

       1A    -15.566066     2A    -15.550258     3A    -11.287373
       4A    -11.279189     5A    -11.277592     6A    -11.261359
       7A    -11.240208     8A    -11.239372     9A    -11.231860
      10A    -11.230721    11A    -11.229401    12A    -11.227873
      13A    -11.221640    14A    -11.214618    15A     -1.259857
      16A     -1.213433    17A     -1.133759    18A     -1.086625
      19A     -1.064016    20A     -1.026428    21A     -0.992616
      22A     -0.914434    23A     -0.866830    24A     -0.861257
      25A     -0.810142    26A     -0.786953    27A     -0.708722
      28A     -0.692133    29A     -0.679348    30A     -0.659768
      31A     -0.647560    32A     -0.617252    33A     -0.602162
      34A     -0.587737    35A     -0.579595    36A     -0.572156
      37A     -0.568320    38A     -0.547783    39A     -0.537974
      40A     -0.528278    41A     -0.515664    42A     -0.499143
      43A     -0.467333    44A     -0.436440    45A     -0.417545
      46A     -0.387899    47A     -0.370493    48A     -0.325100
      49A     -0.271903

  @DF-RHF Final Energy:  -570.48837398128239

   => Energetics <=

    Nuclear Repulsion Energy =            812.9460916690823069
    One-Electron Energy =               -2386.2805533556115734
    Two-Electron Energy =                1002.8460877052468732
    Total Energy =                       -570.4883739812823933
  Basis Set: (AUG-CC-PVTZ AUX)
    Blend: AUG-CC-PVTZ-RI
    Molecular point group: c1

    Geometry (in Angstrom), charge = 0, multiplicity = 1:

       Center              X                  Y                   Z               Mass
    ------------   -----------------  -----------------  -----------------  -----------------
         N            0.114084490280     2.505957639989    -0.390058644767    14.003074004430
         N           -1.866718509720     0.752942639989     0.624170355233    14.003074004430
         C            0.383917490280     0.097166639989    -0.005302644767    12.000000000000
         C            0.930026490280     1.393614639989    -0.164587644767    12.000000000000
         C            2.640266490280    -0.865870360011     0.119347355233    12.000000000000
         C            1.251296490280    -0.994490360011     0.160308355233    12.000000000000
         C           -1.073790509720    -0.148636360011    -0.003008644767    12.000000000000
         C            2.327212490280     1.518282639989    -0.226929644767    12.000000000000
         C            3.104434290280     0.497254139989    -0.085923644767    12.000000000000
         C            3.542474490280    -2.050379360011     0.348224355233    12.000000000000
         C           -1.607116509720    -1.289108360011    -0.626677644767    12.000000000000
         C           -2.976968509720    -1.527996360011    -0.563703644767    12.000000000000
         C           -3.188941509720     0.515526639989     0.663527355233    12.000000000000
         C           -3.789330509720    -0.610262360011     0.101758355233    12.000000000000
         H            0.817438490280    -1.978466360011     0.337713355233     1.007825032230
         H            2.758168490280     2.508028639989    -0.374652644767     1.007825032230
         H            4.243806490280     0.560341639989    -0.119714644767     1.007825032230
         H            3.862773490280    -2.114371360011     1.394171355233     1.007825032230
         H            3.032999490280    -2.986035360011     0.099738355233     1.007825032230
         H            4.443667490280    -1.982990360011    -0.268881644767     1.007825032230
         H           -0.950225509720    -1.964619360011    -1.166830644767     1.007825032230
         H            0.588858490280     3.384255639989    -0.207116644767     1.007825032230
         H           -0.766829509720     2.441077639989     0.114143355233     1.007825032230
         H           -3.405355509720    -2.406506360011    -1.040488644767     1.007825032230
         H           -3.787556509720     1.267094639989     1.175954355233     1.007825032230
         H           -4.863994509720    -0.752154360011     0.172382355233     1.007825032230

  Basis Set: AUG-CC-PVTZ
    Blend: AUG-CC-PVTZ
  Basis Set: (AUG-CC-PVTZ AUX)
    Blend: AUG-CC-PVTZ-JKFIT
	 Reference Energy          =    -570.4883739812823933 [Eh]
	 Singles Energy            =      -0.0000000000000000 [Eh]
	 Same-Spin Energy          =      -0.6405115861915515 [Eh]
	 Opposite-Spin Energy      =      -1.9776933276271009 [Eh]
	 Correlation Energy        =      -2.6182049138186523 [Eh]
	 Total Energy              =    -573.1065788951010518 [Eh]

	 ================> DF-SCS-MP2 Energies <==================
	-----------------------------------------------------------
	 SCS Same-Spin Scale       =       0.3333333333333333 [-]
	 SCS Opposite-Spin Scale   =       1.2000000000000000 [-]
	 SCS Same-Spin Energy      =      -0.2135038620638505 [Eh]
	 SCS Opposite-Spin Energy  =      -2.3732319931525212 [Eh]
	 SCS Correlation Energy    =      -2.5867358552163715 [Eh]
	 SCS Total Energy          =    -573.0751098364987683 [Eh]
	-----------------------------------------------------------

  Dipole Moment: [D]
     X:    -1.0081      Y:    -0.9209      Z:     0.0727     Total:     1.3673

*** Psi4 exiting successfully. Buy a developer a beer!
