                               Psi4 1.4a3.dev225

  ==> Input File <==

--------------------------------------------------------------------------
#psi4
#
memory 32 gb

molecule  {
0 1
  N        0.0801310     2.5312230    -0.3913130
  N       -1.9006720     0.7782080     0.6229160
  C        0.3499640     0.1224320    -0.0065570
  C        0.8960730     1.4188800    -0.1658420
  C        2.6063130    -0.8406050     0.1180930
  C        1.2173430    -0.9692250     0.1590540
  C       -1.1077440    -0.1233710    -0.0042630
  C        2.2932590     1.5435480    -0.2281840
  C        3.1306880     0.4434260    -0.0762550
  C        3.5085210    -2.0251140     0.3469700
  C       -1.6410700    -1.2638430    -0.6279320
  C       -2.9723112    -1.4751554    -0.5540728
  C       -3.2228950     0.5407920     0.6622730
  C       -3.8232840    -0.5849970     0.1005040
  H        0.7834850    -1.9532010     0.3364590
  H        2.7242150     2.5332940    -0.3759070
  H        4.2098530     0.5856070    -0.1209690
  H        3.8288200    -2.0891060     1.3929170
  H        2.9990460    -2.9607700     0.0984840
  H        4.4097140    -1.9577250    -0.2701360
  H       -0.9841790    -1.9393540    -1.1680850
  H        0.5549050     3.4095210    -0.2083710
  H       -0.8007830     2.4663430     0.1128890
  H       -3.4393090    -2.3812410    -1.0417430
  H       -3.8215100     1.2923600     1.1747000
  H       -4.8979480    -0.7268890     0.1711280
units angstrom
no_reorient  #important for SAPT in psi4, default
symmetry c1  #important for SAPT in psi4, default
}

set PROPERTIES_ORIGIN ["COM"]
properties('MP2/aug-cc-pvtz', properties = ['dipole'])
--------------------------------------------------------------------------

    Molecular point group: c1
  Charge       = 0
  Multiplicity = 1
  Basis Set: AUG-CC-PVTZ
    Blend: AUG-CC-PVTZ
  Basis Set: (AUG-CC-PVTZ AUX)
    Blend: AUG-CC-PVTZ-JKFIT

    Orbital Energies [Eh]
    ---------------------

    Doubly Occupied:

       1A    -15.566571     2A    -15.548054     3A    -11.289819
       4A    -11.279063     5A    -11.275991     6A    -11.260191
       7A    -11.240376     8A    -11.236253     9A    -11.234079
      10A    -11.233167    11A    -11.232782    12A    -11.227159
      13A    -11.223182    14A    -11.219885    15A     -1.262218
      16A     -1.211138    17A     -1.132221    18A     -1.092522
      19A     -1.063853    20A     -1.016641    21A     -0.994474
      22A     -0.916077    23A     -0.873106    24A     -0.857761
      25A     -0.815822    26A     -0.782143    27A     -0.708368
      28A     -0.690420    29A     -0.681841    30A     -0.661516
      31A     -0.651374    32A     -0.612491    33A     -0.601361
      34A     -0.590210    35A     -0.582704    36A     -0.572217
      37A     -0.561084    38A     -0.548956    39A     -0.535555
      40A     -0.531010    41A     -0.513605    42A     -0.493716
      43A     -0.486301    44A     -0.435310    45A     -0.417007
      46A     -0.390786    47A     -0.367908    48A     -0.316980
      49A     -0.279034

  @DF-RHF Final Energy:  -570.49924832144166

   => Energetics <=

    Nuclear Repulsion Energy =            813.0139748583675328
    One-Electron Energy =               -2386.3978368204689104
    Two-Electron Energy =                1002.8846136406598362
    Total Energy =                       -570.4992483214416552
  Basis Set: (AUG-CC-PVTZ AUX)
    Blend: AUG-CC-PVTZ-RI
    Molecular point group: c1

    Geometry (in Angstrom), charge = 0, multiplicity = 1:

       Center              X                  Y                   Z               Mass
    ------------   -----------------  -----------------  -----------------  -----------------
         N            0.107643340425     2.509315677129    -0.391480145751    14.003074004430
         N           -1.873159659575     0.756300677129     0.622748854249    14.003074004430
         C            0.377476340425     0.100524677129    -0.006724145751    12.000000000000
         C            0.923585340425     1.396972677129    -0.166009145751    12.000000000000
         C            2.633825340425    -0.862512322871     0.117925854249    12.000000000000
         C            1.244855340425    -0.991132322871     0.158886854249    12.000000000000
         C           -1.080231659575    -0.145278322871    -0.004430145751    12.000000000000
         C            2.320771340425     1.521640677129    -0.228351145751    12.000000000000
         C            3.158200340425     0.421518677129    -0.076422145751    12.000000000000
         C            3.536033340425    -2.047021322871     0.346802854249    12.000000000000
         C           -1.613557659575    -1.285750322871    -0.628099145751    12.000000000000
         C           -2.944798859575    -1.497062722871    -0.554239945751    12.000000000000
         C           -3.195382659575     0.518884677129     0.662105854249    12.000000000000
         C           -3.795771659575    -0.606904322871     0.100336854249    12.000000000000
         H            0.810997340425    -1.975108322871     0.336291854249     1.007825032230
         H            2.751727340425     2.511386677129    -0.376074145751     1.007825032230
         H            4.237365340425     0.563699677129    -0.121136145751     1.007825032230
         H            3.856332340425    -2.111013322871     1.392749854249     1.007825032230
         H            3.026558340425    -2.982677322871     0.098316854249     1.007825032230
         H            4.437226340425    -1.979632322871    -0.270303145751     1.007825032230
         H           -0.956666659575    -1.961261322871    -1.168252145751     1.007825032230
         H            0.582417340425     3.387613677129    -0.208538145751     1.007825032230
         H           -0.773270659575     2.444435677129     0.112721854249     1.007825032230
         H           -3.411796659575    -2.403148322871    -1.041910145751     1.007825032230
         H           -3.793997659575     1.270452677129     1.174532854249     1.007825032230
         H           -4.870435659575    -0.748796322871     0.170960854249     1.007825032230

  Basis Set: AUG-CC-PVTZ
    Blend: AUG-CC-PVTZ
  Basis Set: (AUG-CC-PVTZ AUX)
    Blend: AUG-CC-PVTZ-JKFIT
	 Reference Energy          =    -570.4992483214416552 [Eh]
	 Singles Energy            =      -0.0000000000000000 [Eh]
	 Same-Spin Energy          =      -0.6407669200379796 [Eh]
	 Opposite-Spin Energy      =      -1.9774017368000953 [Eh]
	 Correlation Energy        =      -2.6181686568380749 [Eh]
	 Total Energy              =    -573.1174169782797208 [Eh]

	 ================> DF-SCS-MP2 Energies <==================
	-----------------------------------------------------------
	 SCS Same-Spin Scale       =       0.3333333333333333 [-]
	 SCS Opposite-Spin Scale   =       1.2000000000000000 [-]
	 SCS Same-Spin Energy      =      -0.2135889733459932 [Eh]
	 SCS Opposite-Spin Energy  =      -2.3728820841601141 [Eh]
	 SCS Correlation Energy    =      -2.5864710575061074 [Eh]
	 SCS Total Energy          =    -573.0857193789477151 [Eh]
	-----------------------------------------------------------

  Dipole Moment: [D]
     X:    -1.0610      Y:    -0.9290      Z:     0.0929     Total:     1.4133

*** Psi4 exiting successfully. Buy a developer a beer!
