                               Psi4 1.4a3.dev225

  ==> Input File <==

--------------------------------------------------------------------------
#psi4
#
memory 32 gb

molecule  {
0 1
  N        0.0801310     2.5312230    -0.3913130
  N       -1.9006720     0.7782080     0.6229160
  C        0.3499640     0.1224320    -0.0065570
  C        0.8960730     1.4188800    -0.1658420
  C        2.6063130    -0.8406050     0.1180930
  C        1.2173430    -0.9692250     0.1590540
  C       -1.1077440    -0.1233710    -0.0042630
  C        2.2932590     1.5435480    -0.2281840
  C        3.1306880     0.4434260    -0.0762550
  C        3.6282995    -2.1823711     0.3773560
  C       -1.6410700    -1.2638430    -0.6279320
  C       -3.0109220    -1.5027310    -0.5649580
  C       -3.2228950     0.5407920     0.6622730
  C       -3.8232840    -0.5849970     0.1005040
  H        0.7834850    -1.9532010     0.3364590
  H        2.7242150     2.5332940    -0.3759070
  H        4.2098530     0.5856070    -0.1209690
  H        3.8288200    -2.0891060     1.3929170
  H        2.9990460    -2.9607700     0.0984840
  H        4.4097140    -1.9577250    -0.2701360
  H       -0.9841790    -1.9393540    -1.1680850
  H        0.5549050     3.4095210    -0.2083710
  H       -0.8007830     2.4663430     0.1128890
  H       -3.4393090    -2.3812410    -1.0417430
  H       -3.8215100     1.2923600     1.1747000
  H       -4.8979480    -0.7268890     0.1711280
units angstrom
no_reorient  #important for SAPT in psi4, default
symmetry c1  #important for SAPT in psi4, default
}

set PROPERTIES_ORIGIN ["COM"]
properties('MP2/aug-cc-pvtz', properties = ['dipole'])
--------------------------------------------------------------------------

    Molecular point group: c1
  Charge       = 0
  Multiplicity = 1
  Basis Set: AUG-CC-PVTZ
    Blend: AUG-CC-PVTZ
  Basis Set: (AUG-CC-PVTZ AUX)
    Blend: AUG-CC-PVTZ-JKFIT

    Orbital Energies [Eh]
    ---------------------

    Doubly Occupied:

       1A    -15.567148     2A    -15.547075     3A    -11.288294
       4A    -11.279912     5A    -11.274606     6A    -11.262104
       7A    -11.241285     8A    -11.240482     9A    -11.233994
      10A    -11.232969    11A    -11.232119    12A    -11.231767
      13A    -11.221983    14A    -11.219337    15A     -1.260609
      16A     -1.209871    17A     -1.125654    18A     -1.087509
      19A     -1.060022    20A     -1.003804    21A     -0.990652
      22A     -0.925152    23A     -0.869384    24A     -0.862002
      25A     -0.813014    26A     -0.782985    27A     -0.707062
      28A     -0.687672    29A     -0.680661    30A     -0.659627
      31A     -0.648112    32A     -0.607051    33A     -0.603116
      34A     -0.594847    35A     -0.587330    36A     -0.578742
      37A     -0.569617    38A     -0.561957    39A     -0.546305
      40A     -0.526743    41A     -0.513792    42A     -0.488037
      43A     -0.447539    44A     -0.435903    45A     -0.418504
      46A     -0.387226    47A     -0.366288    48A     -0.315969
      49A     -0.279639

  @DF-RHF Final Energy:  -570.47468886972149

   => Energetics <=

    Nuclear Repulsion Energy =            808.5169497160906076
    One-Electron Energy =               -2377.4323227561076237
    Two-Electron Energy =                 998.4406841702956399
    Total Energy =                       -570.4746888697214899
  Basis Set: (AUG-CC-PVTZ AUX)
    Blend: AUG-CC-PVTZ-RI
    Molecular point group: c1

    Geometry (in Angstrom), charge = 0, multiplicity = 1:

       Center              X                  Y                   Z               Mass
    ------------   -----------------  -----------------  -----------------  -----------------
         N            0.102352671528     2.521363432789    -0.392751245906    14.003074004430
         N           -1.878450328472     0.768348432789     0.621477754094    14.003074004430
         C            0.372185671528     0.112572432789    -0.007995245906    12.000000000000
         C            0.918294671528     1.409020432789    -0.167280245906    12.000000000000
         C            2.628534671528    -0.850464567211     0.116654754094    12.000000000000
         C            1.239564671528    -0.979084567211     0.157615754094    12.000000000000
         C           -1.085522328472    -0.133230567211    -0.005701245906    12.000000000000
         C            2.315480671528     1.533688432789    -0.229622245906    12.000000000000
         C            3.152909671528     0.433566432789    -0.077693245906    12.000000000000
         C            3.650521171528    -2.192230667211     0.375917754094    12.000000000000
         C           -1.618848328472    -1.273702567211    -0.629370245906    12.000000000000
         C           -2.988700328472    -1.512590567211    -0.566396245906    12.000000000000
         C           -3.200673328472     0.530932432789     0.660834754094    12.000000000000
         C           -3.801062328472    -0.594856567211     0.099065754094    12.000000000000
         H            0.805706671528    -1.963060567211     0.335020754094     1.007825032230
         H            2.746436671528     2.523434432789    -0.377345245906     1.007825032230
         H            4.232074671528     0.575747432789    -0.122407245906     1.007825032230
         H            3.851041671528    -2.098965567211     1.391478754094     1.007825032230
         H            3.021267671528    -2.970629567211     0.097045754094     1.007825032230
         H            4.431935671528    -1.967584567211    -0.271574245906     1.007825032230
         H           -0.961957328472    -1.949213567211    -1.169523245906     1.007825032230
         H            0.577126671528     3.399661432789    -0.209809245906     1.007825032230
         H           -0.778561328472     2.456483432789     0.111450754094     1.007825032230
         H           -3.417087328472    -2.391100567211    -1.043181245906     1.007825032230
         H           -3.799288328472     1.282500432789     1.173261754094     1.007825032230
         H           -4.875726328472    -0.736748567211     0.169689754094     1.007825032230

  Basis Set: AUG-CC-PVTZ
    Blend: AUG-CC-PVTZ
  Basis Set: (AUG-CC-PVTZ AUX)
    Blend: AUG-CC-PVTZ-JKFIT
	 Reference Energy          =    -570.4746888697214899 [Eh]
	 Singles Energy            =      -0.0000000000000000 [Eh]
	 Same-Spin Energy          =      -0.6406816634867936 [Eh]
	 Opposite-Spin Energy      =      -1.9788524154069631 [Eh]
	 Correlation Energy        =      -2.6195340788937567 [Eh]
	 Total Energy              =    -573.0942229486151973 [Eh]

	 ================> DF-SCS-MP2 Energies <==================
	-----------------------------------------------------------
	 SCS Same-Spin Scale       =       0.3333333333333333 [-]
	 SCS Opposite-Spin Scale   =       1.2000000000000000 [-]
	 SCS Same-Spin Energy      =      -0.2135605544955979 [Eh]
	 SCS Opposite-Spin Energy  =      -2.3746228984883557 [Eh]
	 SCS Correlation Energy    =      -2.5881834529839534 [Eh]
	 SCS Total Energy          =    -573.0628723227054024 [Eh]
	-----------------------------------------------------------

  Dipole Moment: [D]
     X:    -1.1225      Y:    -0.9318      Z:     0.0728     Total:     1.4607

*** Psi4 exiting successfully. Buy a developer a beer!
