                               Psi4 1.4a3.dev225

  ==> Input File <==

--------------------------------------------------------------------------
#psi4
#
memory 32 gb

molecule  {
0 1
  N        0.0801310     2.5312230    -0.3913130
  N       -1.9006720     0.7782080     0.6229160
  C        0.3499640     0.1224320    -0.0065570
  C        0.8960730     1.4188800    -0.1658420
  C        2.6063130    -0.8406050     0.1180930
  C        1.2173430    -0.9692250     0.1590540
  C       -1.1077440    -0.1233710    -0.0042630
  C        2.2932590     1.5435480    -0.2281840
  C        3.1306880     0.4434260    -0.0762550
  C        3.5085210    -2.0251140     0.3469700
  C       -1.6410700    -1.2638430    -0.6279320
  C       -3.0109220    -1.5027310    -0.5649580
  C       -3.2228950     0.5407920     0.6622730
  C       -3.8232840    -0.5849970     0.1005040
  H        0.7834850    -1.9532010     0.3364590
  H        2.6451086     2.3516160    -0.3487909
  H        4.2098530     0.5856070    -0.1209690
  H        3.8288200    -2.0891060     1.3929170
  H        2.9990460    -2.9607700     0.0984840
  H        4.4097140    -1.9577250    -0.2701360
  H       -0.9841790    -1.9393540    -1.1680850
  H        0.5549050     3.4095210    -0.2083710
  H       -0.8007830     2.4663430     0.1128890
  H       -3.4393090    -2.3812410    -1.0417430
  H       -3.8215100     1.2923600     1.1747000
  H       -4.8979480    -0.7268890     0.1711280
units angstrom
no_reorient  #important for SAPT in psi4, default
symmetry c1  #important for SAPT in psi4, default
}

set PROPERTIES_ORIGIN ["COM"]
properties('MP2/aug-cc-pvtz', properties = ['dipole'])
--------------------------------------------------------------------------

    Molecular point group: c1
  Charge       = 0
  Multiplicity = 1
  Basis Set: AUG-CC-PVTZ
    Blend: AUG-CC-PVTZ
  Basis Set: (AUG-CC-PVTZ AUX)
    Blend: AUG-CC-PVTZ-JKFIT

    Orbital Energies [Eh]
    ---------------------

    Doubly Occupied:

       1A    -15.567174     2A    -15.548154     3A    -11.288135
       4A    -11.279947     5A    -11.273887     6A    -11.262091
       7A    -11.241269     8A    -11.240403     9A    -11.232775
      10A    -11.231268    11A    -11.231121    12A    -11.225449
      13A    -11.218800    14A    -11.198241    15A     -1.260668
      16A     -1.211444    17A     -1.131412    18A     -1.087507
      19A     -1.063703    20A     -1.022922    21A     -0.994025
      22A     -0.915578    23A     -0.871276    24A     -0.862859
      25A     -0.830012    26A     -0.785049    27A     -0.712060
      28A     -0.689747    29A     -0.682980    30A     -0.664726
      31A     -0.653635    32A     -0.630496    33A     -0.600491
      34A     -0.591375    35A     -0.585677    36A     -0.573285
      37A     -0.569573    38A     -0.547863    39A     -0.531525
      40A     -0.529096    41A     -0.512499    42A     -0.494289
      43A     -0.489598    44A     -0.434711    45A     -0.418521
      46A     -0.387241    47A     -0.366092    48A     -0.315981
      49A     -0.277843

  @DF-RHF Final Energy:  -570.46775908067821

   => Energetics <=

    Nuclear Repulsion Energy =            813.2526341944497972
    One-Electron Energy =               -2386.7718353025393299
    Two-Electron Energy =                1003.0514420274112126
    Total Energy =                       -570.4677590806782064
  Basis Set: (AUG-CC-PVTZ AUX)
    Blend: AUG-CC-PVTZ-RI
    Molecular point group: c1

    Geometry (in Angstrom), charge = 0, multiplicity = 1:

       Center              X                  Y                   Z               Mass
    ------------   -----------------  -----------------  -----------------  -----------------
         N            0.110593122432     2.512107674419    -0.390919069768    14.003074004430
         N           -1.870209877568     0.759092674419     0.623309930232    14.003074004430
         C            0.380426122432     0.103316674419    -0.006163069768    12.000000000000
         C            0.926535122432     1.399764674419    -0.165448069768    12.000000000000
         C            2.636775122432    -0.859720325581     0.118486930232    12.000000000000
         C            1.247805122432    -0.988340325581     0.159447930232    12.000000000000
         C           -1.077281877568    -0.142486325581    -0.003869069768    12.000000000000
         C            2.323721122432     1.524432674419    -0.227790069768    12.000000000000
         C            3.161150122432     0.424310674419    -0.075861069768    12.000000000000
         C            3.538983122432    -2.044229325581     0.347363930232    12.000000000000
         C           -1.610607877568    -1.282958325581    -0.627538069768    12.000000000000
         C           -2.980459877568    -1.521846325581    -0.564564069768    12.000000000000
         C           -3.192432877568     0.521676674419     0.662666930232    12.000000000000
         C           -3.792821877568    -0.604112325581     0.100897930232    12.000000000000
         H            0.813947122432    -1.972316325581     0.336852930232     1.007825032230
         H            2.675570722432     2.332500674419    -0.348396969768     1.007825032230
         H            4.240315122432     0.566491674419    -0.120575069768     1.007825032230
         H            3.859282122432    -2.108221325581     1.393310930232     1.007825032230
         H            3.029508122432    -2.979885325581     0.098877930232     1.007825032230
         H            4.440176122432    -1.976840325581    -0.269742069768     1.007825032230
         H           -0.953716877568    -1.958469325581    -1.167691069768     1.007825032230
         H            0.585367122432     3.390405674419    -0.207977069768     1.007825032230
         H           -0.770320877568     2.447227674419     0.113282930232     1.007825032230
         H           -3.408846877568    -2.400356325581    -1.041349069768     1.007825032230
         H           -3.791047877568     1.273244674419     1.175093930232     1.007825032230
         H           -4.867485877568    -0.746004325581     0.171521930232     1.007825032230

  Basis Set: AUG-CC-PVTZ
    Blend: AUG-CC-PVTZ
  Basis Set: (AUG-CC-PVTZ AUX)
    Blend: AUG-CC-PVTZ-JKFIT
	 Reference Energy          =    -570.4677590806782064 [Eh]
	 Singles Energy            =      -0.0000000000000000 [Eh]
	 Same-Spin Energy          =      -0.6405584379253717 [Eh]
	 Opposite-Spin Energy      =      -1.9770096180155885 [Eh]
	 Correlation Energy        =      -2.6175680559409602 [Eh]
	 Total Energy              =    -573.0853271366191848 [Eh]

	 ================> DF-SCS-MP2 Energies <==================
	-----------------------------------------------------------
	 SCS Same-Spin Scale       =       0.3333333333333333 [-]
	 SCS Opposite-Spin Scale   =       1.2000000000000000 [-]
	 SCS Same-Spin Energy      =      -0.2135194793084572 [Eh]
	 SCS Opposite-Spin Energy  =      -2.3724115416187059 [Eh]
	 SCS Correlation Energy    =      -2.5859310209271631 [Eh]
	 SCS Total Energy          =    -573.0536901016054117 [Eh]
	-----------------------------------------------------------

  Dipole Moment: [D]
     X:    -1.0729      Y:    -0.8968      Z:     0.0696     Total:     1.4001

*** Psi4 exiting successfully. Buy a developer a beer!
