                               Psi4 1.4a3.dev225

  ==> Input File <==

--------------------------------------------------------------------------
#psi4
#
memory 32 gb

molecule  {
0 1
  N        0.0801310     2.5312230    -0.3913130
  N       -1.9006720     0.7782080     0.6229160
  C        0.3499640     0.1224320    -0.0065570
  C        0.7793282     1.5780338    -0.1981023
  C        2.6063130    -0.8406050     0.1180930
  C        1.2173430    -0.9692250     0.1590540
  C       -1.1077440    -0.1233710    -0.0042630
  C        2.2932590     1.5435480    -0.2281840
  C        3.1306880     0.4434260    -0.0762550
  C        3.5085210    -2.0251140     0.3469700
  C       -1.6410700    -1.2638430    -0.6279320
  C       -3.0109220    -1.5027310    -0.5649580
  C       -3.2228950     0.5407920     0.6622730
  C       -3.8232840    -0.5849970     0.1005040
  H        0.7834850    -1.9532010     0.3364590
  H        2.7242150     2.5332940    -0.3759070
  H        4.2098530     0.5856070    -0.1209690
  H        3.8288200    -2.0891060     1.3929170
  H        2.9990460    -2.9607700     0.0984840
  H        4.4097140    -1.9577250    -0.2701360
  H       -0.9841790    -1.9393540    -1.1680850
  H        0.5549050     3.4095210    -0.2083710
  H       -0.8007830     2.4663430     0.1128890
  H       -3.4393090    -2.3812410    -1.0417430
  H       -3.8215100     1.2923600     1.1747000
  H       -4.8979480    -0.7268890     0.1711280
units angstrom
no_reorient  #important for SAPT in psi4, default
symmetry c1  #important for SAPT in psi4, default
}

set PROPERTIES_ORIGIN ["COM"]
properties('MP2/aug-cc-pvtz', properties = ['dipole'])
--------------------------------------------------------------------------

    Molecular point group: c1
  Charge       = 0
  Multiplicity = 1
  Basis Set: AUG-CC-PVTZ
    Blend: AUG-CC-PVTZ
  Basis Set: (AUG-CC-PVTZ AUX)
    Blend: AUG-CC-PVTZ-JKFIT

    Orbital Energies [Eh]
    ---------------------

    Doubly Occupied:

       1A    -15.578788     2A    -15.565101     3A    -11.297223
       4A    -11.282949     5A    -11.279209     6A    -11.259714
       7A    -11.237432     8A    -11.235009     9A    -11.230616
      10A    -11.229752    11A    -11.229311    12A    -11.222376
      13A    -11.211620    14A    -11.210848    15A     -1.315705
      16A     -1.254784    17A     -1.121748    18A     -1.084946
      19A     -1.055926    20A     -0.997661    21A     -0.981263
      22A     -0.906176    23A     -0.864757    24A     -0.858234
      25A     -0.812488    26A     -0.793710    27A     -0.724269
      28A     -0.721472    29A     -0.699930    30A     -0.658080
      31A     -0.647137    32A     -0.620209    33A     -0.595073
      34A     -0.590480    35A     -0.575003    36A     -0.574615
      37A     -0.561898    38A     -0.556488    39A     -0.540543
      40A     -0.524468    41A     -0.515972    42A     -0.491408
      43A     -0.457419    44A     -0.443041    45A     -0.412590
      46A     -0.385958    47A     -0.362468    48A     -0.311091
      49A     -0.250226

  @DF-RHF Final Energy:  -570.43599152241632

   => Energetics <=

    Nuclear Repulsion Energy =            811.2818975959360159
    One-Electron Energy =               -2382.7614142146471750
    Two-Electron Energy =                1001.0435250962948430
    Total Energy =                       -570.4359915224163160
  Basis Set: (AUG-CC-PVTZ AUX)
    Blend: AUG-CC-PVTZ-RI
    Molecular point group: c1

    Geometry (in Angstrom), charge = 0, multiplicity = 1:

       Center              X                  Y                   Z               Mass
    ------------   -----------------  -----------------  -----------------  -----------------
         N            0.117769721251     2.500739153582    -0.388667837962    14.003074004430
         N           -1.863033278749     0.747724153582     0.625561162038    14.003074004430
         C            0.387602721251     0.091948153582    -0.003911837962    12.000000000000
         C            0.816966921251     1.547549953582    -0.195457137962    12.000000000000
         C            2.643951721251    -0.871088846418     0.120738162038    12.000000000000
         C            1.254981721251    -0.999708846418     0.161699162038    12.000000000000
         C           -1.070105278749    -0.153854846418    -0.001617837962    12.000000000000
         C            2.330897721251     1.513064153582    -0.225538837962    12.000000000000
         C            3.168326721251     0.412942153582    -0.073609837962    12.000000000000
         C            3.546159721251    -2.055597846418     0.349615162038    12.000000000000
         C           -1.603431278749    -1.294326846418    -0.625286837962    12.000000000000
         C           -2.973283278749    -1.533214846418    -0.562312837962    12.000000000000
         C           -3.185256278749     0.510308153582     0.664918162038    12.000000000000
         C           -3.785645278749    -0.615480846418     0.103149162038    12.000000000000
         H            0.821123721251    -1.983684846418     0.339104162038     1.007825032230
         H            2.761853721251     2.502810153582    -0.373261837962     1.007825032230
         H            4.247491721251     0.555123153582    -0.118323837962     1.007825032230
         H            3.866458721251    -2.119589846418     1.395562162038     1.007825032230
         H            3.036684721251    -2.991253846418     0.101129162038     1.007825032230
         H            4.447352721251    -1.988208846418    -0.267490837962     1.007825032230
         H           -0.946540278749    -1.969837846418    -1.165439837962     1.007825032230
         H            0.592543721251     3.379037153582    -0.205725837962     1.007825032230
         H           -0.763144278749     2.435859153582     0.115534162038     1.007825032230
         H           -3.401670278749    -2.411724846418    -1.039097837962     1.007825032230
         H           -3.783871278749     1.261876153582     1.177345162038     1.007825032230
         H           -4.860309278749    -0.757372846418     0.173773162038     1.007825032230

  Basis Set: AUG-CC-PVTZ
    Blend: AUG-CC-PVTZ
  Basis Set: (AUG-CC-PVTZ AUX)
    Blend: AUG-CC-PVTZ-JKFIT
	 Reference Energy          =    -570.4359915224163160 [Eh]
	 Singles Energy            =      -0.0000000000000000 [Eh]
	 Same-Spin Energy          =      -0.6431259706290895 [Eh]
	 Opposite-Spin Energy      =      -1.9804661739462870 [Eh]
	 Correlation Energy        =      -2.6235921445753765 [Eh]
	 Total Energy              =    -573.0595836669916707 [Eh]

	 ================> DF-SCS-MP2 Energies <==================
	-----------------------------------------------------------
	 SCS Same-Spin Scale       =       0.3333333333333333 [-]
	 SCS Opposite-Spin Scale   =       1.2000000000000000 [-]
	 SCS Same-Spin Energy      =      -0.2143753235430298 [Eh]
	 SCS Opposite-Spin Energy  =      -2.3765594087355444 [Eh]
	 SCS Correlation Energy    =      -2.5909347322785741 [Eh]
	 SCS Total Energy          =    -573.0269262546948994 [Eh]
	-----------------------------------------------------------

  Dipole Moment: [D]
     X:    -1.7419      Y:     0.2936      Z:    -0.1747     Total:     1.7750

*** Psi4 exiting successfully. Buy a developer a beer!
