                               Psi4 1.4a3.dev225

  ==> Input File <==

--------------------------------------------------------------------------
#psi4
#
memory 32 gb

molecule  {
0 1
  N        0.0801310     2.5312230    -0.3913130
  N       -1.9006720     0.7782080     0.6229160
  C        0.3499640     0.1224320    -0.0065570
  C        0.8960730     1.4188800    -0.1658420
  C        2.6063130    -0.8406050     0.1180930
  C        1.2173430    -0.9692250     0.1590540
  C       -1.1077440    -0.1233710    -0.0042630
  C        2.2932590     1.5435480    -0.2281840
  C        3.1306880     0.4434260    -0.0762550
  C        3.5085210    -2.0251140     0.3469700
  C       -1.6410700    -1.2638430    -0.6279320
  C       -3.0109220    -1.5027310    -0.5649580
  C       -3.2228950     0.5407920     0.6622730
  C       -3.8232840    -0.5849970     0.1005040
  H        0.7834850    -1.9532010     0.3364590
  H        2.7242150     2.5332940    -0.3759070
  H        4.2098530     0.5856070    -0.1209690
  H        3.8142046    -2.0861860     1.3451900
  H        2.9990460    -2.9607700     0.0984840
  H        4.4097140    -1.9577250    -0.2701360
  H       -0.9841790    -1.9393540    -1.1680850
  H        0.5549050     3.4095210    -0.2083710
  H       -0.8007830     2.4663430     0.1128890
  H       -3.4393090    -2.3812410    -1.0417430
  H       -3.8215100     1.2923600     1.1747000
  H       -4.8979480    -0.7268890     0.1711280
units angstrom
no_reorient  #important for SAPT in psi4, default
symmetry c1  #important for SAPT in psi4, default
}

set PROPERTIES_ORIGIN ["COM"]
properties('MP2/aug-cc-pvtz', properties = ['dipole'])
--------------------------------------------------------------------------

    Molecular point group: c1
  Charge       = 0
  Multiplicity = 1
  Basis Set: AUG-CC-PVTZ
    Blend: AUG-CC-PVTZ
  Basis Set: (AUG-CC-PVTZ AUX)
    Blend: AUG-CC-PVTZ-JKFIT

    Orbital Energies [Eh]
    ---------------------

    Doubly Occupied:

       1A    -15.567442     2A    -15.547533     3A    -11.288571
       4A    -11.280147     5A    -11.275147     6A    -11.262321
       7A    -11.241536     8A    -11.240743     9A    -11.233257
      10A    -11.232330    11A    -11.232085    12A    -11.226306
      13A    -11.222552    14A    -11.213385    15A     -1.260908
      16A     -1.210468    17A     -1.131638    18A     -1.087755
      19A     -1.063067    20A     -1.017379    21A     -0.992336
      22A     -0.918773    23A     -0.870418    24A     -0.862095
      25A     -0.814590    26A     -0.783922    27A     -0.709085
      28A     -0.689643    29A     -0.681308    30A     -0.660395
      31A     -0.650088    32A     -0.613760    33A     -0.600427
      34A     -0.589053    35A     -0.582691    36A     -0.579093
      37A     -0.571654    38A     -0.548874    39A     -0.531932
      40A     -0.529116    41A     -0.513148    42A     -0.493157
      43A     -0.485501    44A     -0.435429    45A     -0.418785
      46A     -0.387487    47A     -0.366520    48A     -0.316363
      49A     -0.278559

  @DF-RHF Final Energy:  -570.50075176592736

   => Energetics <=

    Nuclear Repulsion Energy =            812.2442273988423267
    One-Electron Energy =               -2384.8724170319378572
    Two-Electron Energy =                1002.1274378671682825
    Total Energy =                       -570.5007517659273617
  Basis Set: (AUG-CC-PVTZ AUX)
    Blend: AUG-CC-PVTZ-RI
    Molecular point group: c1

    Geometry (in Angstrom), charge = 0, multiplicity = 1:

       Center              X                  Y                   Z               Mass
    ------------   -----------------  -----------------  -----------------  -----------------
         N            0.110240077200     2.511097123434    -0.390509353691    14.003074004430
         N           -1.870562922800     0.758082123434     0.623719646309    14.003074004430
         C            0.380073077200     0.102306123434    -0.005753353691    12.000000000000
         C            0.926182077200     1.398754123434    -0.165038353691    12.000000000000
         C            2.636422077200    -0.860730876566     0.118896646309    12.000000000000
         C            1.247452077200    -0.989350876566     0.159857646309    12.000000000000
         C           -1.077634922800    -0.143496876566    -0.003459353691    12.000000000000
         C            2.323368077200     1.523422123434    -0.227380353691    12.000000000000
         C            3.160797077200     0.423300123434    -0.075451353691    12.000000000000
         C            3.538630077200    -2.045239876566     0.347773646309    12.000000000000
         C           -1.610960922800    -1.283968876566    -0.627128353691    12.000000000000
         C           -2.980812922800    -1.522856876566    -0.564154353691    12.000000000000
         C           -3.192785922800     0.520666123434     0.663076646309    12.000000000000
         C           -3.793174922800    -0.605122876566     0.101307646309    12.000000000000
         H            0.813594077200    -1.973326876566     0.337262646309     1.007825032230
         H            2.754324077200     2.513168123434    -0.375103353691     1.007825032230
         H            4.239962077200     0.565481123434    -0.120165353691     1.007825032230
         H            3.844313677200    -2.106311876566     1.345993646309     1.007825032230
         H            3.029155077200    -2.980895876566     0.099287646309     1.007825032230
         H            4.439823077200    -1.977850876566    -0.269332353691     1.007825032230
         H           -0.954069922800    -1.959479876566    -1.167281353691     1.007825032230
         H            0.585014077200     3.389395123434    -0.207567353691     1.007825032230
         H           -0.770673922800     2.446217123434     0.113692646309     1.007825032230
         H           -3.409199922800    -2.401366876566    -1.040939353691     1.007825032230
         H           -3.791400922800     1.272234123434     1.175503646309     1.007825032230
         H           -4.867838922800    -0.747014876566     0.171931646309     1.007825032230

  Basis Set: AUG-CC-PVTZ
    Blend: AUG-CC-PVTZ
  Basis Set: (AUG-CC-PVTZ AUX)
    Blend: AUG-CC-PVTZ-JKFIT
	 Reference Energy          =    -570.5007517659273617 [Eh]
	 Singles Energy            =      -0.0000000000000000 [Eh]
	 Same-Spin Energy          =      -0.6408535269206846 [Eh]
	 Opposite-Spin Energy      =      -1.9774340441463660 [Eh]
	 Correlation Energy        =      -2.6182875710670506 [Eh]
	 Total Energy              =    -573.1190393369944331 [Eh]

	 ================> DF-SCS-MP2 Energies <==================
	-----------------------------------------------------------
	 SCS Same-Spin Scale       =       0.3333333333333333 [-]
	 SCS Opposite-Spin Scale   =       1.2000000000000000 [-]
	 SCS Same-Spin Energy      =      -0.2136178423068949 [Eh]
	 SCS Opposite-Spin Energy  =      -2.3729208529756391 [Eh]
	 SCS Correlation Energy    =      -2.5865386952825342 [Eh]
	 SCS Total Energy          =    -573.0872904612099319 [Eh]
	-----------------------------------------------------------

  Dipole Moment: [D]
     X:    -1.0769      Y:    -0.9797      Z:     0.0975     Total:     1.4591

*** Psi4 exiting successfully. Buy a developer a beer!
