                               Psi4 1.4a3.dev225

  ==> Input File <==

--------------------------------------------------------------------------
#psi4
#
memory 32 gb

molecule  {
0 1
  N        0.0801310     2.5312230    -0.3913130
  N       -1.9006720     0.7782080     0.6229160
  C        0.3499640     0.1224320    -0.0065570
  C        0.8960730     1.4188800    -0.1658420
  C        2.6063130    -0.8406050     0.1180930
  C        1.2173430    -0.9692250     0.1590540
  C       -1.1077440    -0.1233710    -0.0042630
  C        2.2932590     1.5435480    -0.2281840
  C        3.1306880     0.4434260    -0.0762550
  C        3.4486318    -1.9464854     0.3317770
  C       -1.6410700    -1.2638430    -0.6279320
  C       -3.0109220    -1.5027310    -0.5649580
  C       -3.2228950     0.5407920     0.6622730
  C       -3.8232840    -0.5849970     0.1005040
  H        0.7834850    -1.9532010     0.3364590
  H        2.7242150     2.5332940    -0.3759070
  H        4.2098530     0.5856070    -0.1209690
  H        3.8288200    -2.0891060     1.3929170
  H        2.9990460    -2.9607700     0.0984840
  H        4.4097140    -1.9577250    -0.2701360
  H       -0.9841790    -1.9393540    -1.1680850
  H        0.5549050     3.4095210    -0.2083710
  H       -0.8007830     2.4663430     0.1128890
  H       -3.4393090    -2.3812410    -1.0417430
  H       -3.8215100     1.2923600     1.1747000
  H       -4.8979480    -0.7268890     0.1711280
units angstrom
no_reorient  #important for SAPT in psi4, default
symmetry c1  #important for SAPT in psi4, default
}

set PROPERTIES_ORIGIN ["COM"]
properties('MP2/aug-cc-pvtz', properties = ['dipole'])
--------------------------------------------------------------------------

    Molecular point group: c1
  Charge       = 0
  Multiplicity = 1
  Basis Set: AUG-CC-PVTZ
    Blend: AUG-CC-PVTZ
  Basis Set: (AUG-CC-PVTZ AUX)
    Blend: AUG-CC-PVTZ-JKFIT

    Orbital Energies [Eh]
    ---------------------

    Doubly Occupied:

       1A    -15.567866     2A    -15.548393     3A    -11.289009
       4A    -11.280503     5A    -11.276188     6A    -11.262659
       7A    -11.241892     8A    -11.241131     9A    -11.233937
      10A    -11.233015    11A    -11.232761    12A    -11.223994
      13A    -11.223320    14A    -11.221126    15A     -1.261353
      16A     -1.211403    17A     -1.137643    18A     -1.088121
      19A     -1.066066    20A     -1.025025    21A     -0.993342
      22A     -0.911047    23A     -0.871486    24A     -0.862169
      25A     -0.816014    26A     -0.783061    27A     -0.710418
      28A     -0.691552    29A     -0.682036    30A     -0.661448
      31A     -0.652244    32A     -0.621810    33A     -0.601434
      34A     -0.591093    35A     -0.584601    36A     -0.573806
      37A     -0.563901    38A     -0.547287    39A     -0.535425
      40A     -0.515440    41A     -0.512882    42A     -0.503073
      43A     -0.480212    44A     -0.432027    45A     -0.418705
      46A     -0.387772    47A     -0.366802    48A     -0.316814
      49A     -0.277164

  @DF-RHF Final Energy:  -570.48927918588436

   => Energetics <=

    Nuclear Repulsion Energy =            813.9278854513424903
    One-Electron Energy =               -2388.1733889743095460
    Two-Electron Energy =                1003.7562243370826991
    Total Energy =                       -570.4892791858843566
  Basis Set: (AUG-CC-PVTZ AUX)
    Blend: AUG-CC-PVTZ-RI
    Molecular point group: c1

    Geometry (in Angstrom), charge = 0, multiplicity = 1:

       Center              X                  Y                   Z               Mass
    ------------   -----------------  -----------------  -----------------  -----------------
         N            0.114063762420     2.505987943077    -0.389780317844    14.003074004430
         N           -1.866739237580     0.752972943077     0.624448682156    14.003074004430
         C            0.383896762420     0.097196943077    -0.005024317844    12.000000000000
         C            0.930005762420     1.393644943077    -0.164309317844    12.000000000000
         C            2.640245762420    -0.865840056923     0.119625682156    12.000000000000
         C            1.251275762420    -0.994460056923     0.160586682156    12.000000000000
         C           -1.073811237580    -0.148606056923    -0.002730317844    12.000000000000
         C            2.327191762420     1.518312943077    -0.226651317844    12.000000000000
         C            3.164620762420     0.418190943077    -0.074722317844    12.000000000000
         C            3.482564562420    -1.971720456923     0.333309682156    12.000000000000
         C           -1.607137237580    -1.289078056923    -0.626399317844    12.000000000000
         C           -2.976989237580    -1.527966056923    -0.563425317844    12.000000000000
         C           -3.188962237580     0.515556943077     0.663805682156    12.000000000000
         C           -3.789351237580    -0.610232056923     0.102036682156    12.000000000000
         H            0.817417762420    -1.978436056923     0.337991682156     1.007825032230
         H            2.758147762420     2.508058943077    -0.374374317844     1.007825032230
         H            4.243785762420     0.560371943077    -0.119436317844     1.007825032230
         H            3.862752762420    -2.114341056923     1.394449682156     1.007825032230
         H            3.032978762420    -2.986005056923     0.100016682156     1.007825032230
         H            4.443646762420    -1.982960056923    -0.268603317844     1.007825032230
         H           -0.950246237580    -1.964589056923    -1.166552317844     1.007825032230
         H            0.588837762420     3.384285943077    -0.206838317844     1.007825032230
         H           -0.766850237580     2.441107943077     0.114421682156     1.007825032230
         H           -3.405376237580    -2.406476056923    -1.040210317844     1.007825032230
         H           -3.787577237580     1.267124943077     1.176232682156     1.007825032230
         H           -4.864015237580    -0.752124056923     0.172660682156     1.007825032230

  Basis Set: AUG-CC-PVTZ
    Blend: AUG-CC-PVTZ
  Basis Set: (AUG-CC-PVTZ AUX)
    Blend: AUG-CC-PVTZ-JKFIT
	 Reference Energy          =    -570.4892791858843566 [Eh]
	 Singles Energy            =      -0.0000000000000000 [Eh]
	 Same-Spin Energy          =      -0.6420879805422276 [Eh]
	 Opposite-Spin Energy      =      -1.9791262118816852 [Eh]
	 Correlation Energy        =      -2.6212141924239130 [Eh]
	 Total Energy              =    -573.1104933783083197 [Eh]

	 ================> DF-SCS-MP2 Energies <==================
	-----------------------------------------------------------
	 SCS Same-Spin Scale       =       0.3333333333333333 [-]
	 SCS Opposite-Spin Scale   =       1.2000000000000000 [-]
	 SCS Same-Spin Energy      =      -0.2140293268474092 [Eh]
	 SCS Opposite-Spin Energy  =      -2.3749514542580221 [Eh]
	 SCS Correlation Energy    =      -2.5889807811054313 [Eh]
	 SCS Total Energy          =    -573.0782599669897763 [Eh]
	-----------------------------------------------------------

  Dipole Moment: [D]
     X:    -1.1312      Y:    -0.9320      Z:     0.0706     Total:     1.4674

*** Psi4 exiting successfully. Buy a developer a beer!
