                               Psi4 1.4a3.dev225

  ==> Input File <==

--------------------------------------------------------------------------
#psi4
#
memory 32 gb

molecule  {
0 1
  N        0.0801310     2.5312230    -0.3913130
  N       -1.9006720     0.7782080     0.6229160
  C        0.3499640     0.1224320    -0.0065570
  C        0.8960730     1.4188800    -0.1658420
  C        2.6063130    -0.8406050     0.1180930
  C        1.2173430    -0.9692250     0.1590540
  C       -1.1077440    -0.1233710    -0.0042630
  C        2.2932590     1.5435480    -0.2281840
  C        3.1306880     0.4434260    -0.0762550
  C        3.5085210    -2.0251140     0.3469700
  C       -1.6410700    -1.2638430    -0.6279320
  C       -3.0109220    -1.5027310    -0.5649580
  C       -3.2228950     0.5407920     0.6622730
  C       -3.8232840    -0.5849970     0.1005040
  H        0.7834850    -1.9532010     0.3364590
  H        2.7242150     2.5332940    -0.3759070
  H        4.2296649     0.5882172    -0.1217899
  H        3.8288200    -2.0891060     1.3929170
  H        2.9990460    -2.9607700     0.0984840
  H        4.4097140    -1.9577250    -0.2701360
  H       -0.9841790    -1.9393540    -1.1680850
  H        0.5549050     3.4095210    -0.2083710
  H       -0.8007830     2.4663430     0.1128890
  H       -3.4393090    -2.3812410    -1.0417430
  H       -3.8215100     1.2923600     1.1747000
  H       -4.8979480    -0.7268890     0.1711280
units angstrom
no_reorient  #important for SAPT in psi4, default
symmetry c1  #important for SAPT in psi4, default
}

set PROPERTIES_ORIGIN ["COM"]
properties('MP2/aug-cc-pvtz', properties = ['dipole'])
--------------------------------------------------------------------------

    Molecular point group: c1
  Charge       = 0
  Multiplicity = 1
  Basis Set: AUG-CC-PVTZ
    Blend: AUG-CC-PVTZ
  Basis Set: (AUG-CC-PVTZ AUX)
    Blend: AUG-CC-PVTZ-JKFIT

    Orbital Energies [Eh]
    ---------------------

    Doubly Occupied:

       1A    -15.567584     2A    -15.547809     3A    -11.288730
       4A    -11.280273     5A    -11.275527     6A    -11.262447
       7A    -11.241657     8A    -11.240884     9A    -11.234875
      10A    -11.233598    11A    -11.232407    12A    -11.226853
      13A    -11.222911    14A    -11.219492    15A     -1.261058
      16A     -1.210733    17A     -1.131653    18A     -1.087884
      19A     -1.062923    20A     -1.016199    21A     -0.992081
      22A     -0.915475    23A     -0.869983    24A     -0.862147
      25A     -0.814567    26A     -0.783067    27A     -0.708966
      28A     -0.689724    29A     -0.680085    30A     -0.660511
      31A     -0.649691    32A     -0.613632    33A     -0.600593
      34A     -0.588147    35A     -0.581960    36A     -0.573527
      37A     -0.569915    38A     -0.548279    39A     -0.531477
      40A     -0.529444    41A     -0.513056    42A     -0.492842
      43A     -0.485253    44A     -0.435160    45A     -0.418872
      46A     -0.387612    47A     -0.366674    48A     -0.316576
      49A     -0.278632

  @DF-RHF Final Energy:  -570.50107553977330

   => Energetics <=

    Nuclear Repulsion Energy =            811.9052673750893518
    One-Electron Energy =               -2384.2057939192618505
    Two-Electron Energy =                1001.7994510043992022
    Total Energy =                       -570.5010755397732964
  Basis Set: (AUG-CC-PVTZ AUX)
    Blend: AUG-CC-PVTZ-RI
    Molecular point group: c1

    Geometry (in Angstrom), charge = 0, multiplicity = 1:

       Center              X                  Y                   Z               Mass
    ------------   -----------------  -----------------  -----------------  -----------------
         N            0.110051610684     2.511098819382    -0.390766133318    14.003074004430
         N           -1.870751389316     0.758083819382     0.623462866682    14.003074004430
         C            0.379884610684     0.102307819382    -0.006010133318    12.000000000000
         C            0.925993610684     1.398755819382    -0.165295133318    12.000000000000
         C            2.636233610684    -0.860729180618     0.118639866682    12.000000000000
         C            1.247263610684    -0.989349180618     0.159600866682    12.000000000000
         C           -1.077823389316    -0.143495180618    -0.003716133318    12.000000000000
         C            2.323179610684     1.523423819382    -0.227637133318    12.000000000000
         C            3.160608610684     0.423301819382    -0.075708133318    12.000000000000
         C            3.538441610684    -2.045238180618     0.347516866682    12.000000000000
         C           -1.611149389316    -1.283967180618    -0.627385133318    12.000000000000
         C           -2.981001389316    -1.522855180618    -0.564411133318    12.000000000000
         C           -3.192974389316     0.520667819382     0.662819866682    12.000000000000
         C           -3.793363389316    -0.605121180618     0.101050866682    12.000000000000
         H            0.813405610684    -1.973325180618     0.337005866682     1.007825032230
         H            2.754135610684     2.513169819382    -0.375360133318     1.007825032230
         H            4.259585510684     0.568093019382    -0.121243033318     1.007825032230
         H            3.858740610684    -2.109230180618     1.393463866682     1.007825032230
         H            3.028966610684    -2.980894180618     0.099030866682     1.007825032230
         H            4.439634610684    -1.977849180618    -0.269589133318     1.007825032230
         H           -0.954258389316    -1.959478180618    -1.167538133318     1.007825032230
         H            0.584825610684     3.389396819382    -0.207824133318     1.007825032230
         H           -0.770862389316     2.446218819382     0.113435866682     1.007825032230
         H           -3.409388389316    -2.401365180618    -1.041196133318     1.007825032230
         H           -3.791589389316     1.272235819382     1.175246866682     1.007825032230
         H           -4.868027389316    -0.747013180618     0.171674866682     1.007825032230

  Basis Set: AUG-CC-PVTZ
    Blend: AUG-CC-PVTZ
  Basis Set: (AUG-CC-PVTZ AUX)
    Blend: AUG-CC-PVTZ-JKFIT
	 Reference Energy          =    -570.5010755397732964 [Eh]
	 Singles Energy            =      -0.0000000000000000 [Eh]
	 Same-Spin Energy          =      -0.6408804341213494 [Eh]
	 Opposite-Spin Energy      =      -1.9778533827393110 [Eh]
	 Correlation Energy        =      -2.6187338168606606 [Eh]
	 Total Energy              =    -573.1198093566339367 [Eh]

	 ================> DF-SCS-MP2 Energies <==================
	-----------------------------------------------------------
	 SCS Same-Spin Scale       =       0.3333333333333333 [-]
	 SCS Opposite-Spin Scale   =       1.2000000000000000 [-]
	 SCS Same-Spin Energy      =      -0.2136268113737831 [Eh]
	 SCS Opposite-Spin Energy  =      -2.3734240592871729 [Eh]
	 SCS Correlation Energy    =      -2.5870508706609558 [Eh]
	 SCS Total Energy          =    -573.0881264104342563 [Eh]
	-----------------------------------------------------------

  Dipole Moment: [D]
     X:    -1.1083      Y:    -0.9643      Z:     0.0778     Total:     1.4711

*** Psi4 exiting successfully. Buy a developer a beer!
