                               Psi4 1.4a3.dev225

  ==> Input File <==

--------------------------------------------------------------------------
#psi4
#
memory 32 gb

molecule  {
0 1
  N        0.0801310     2.5312230    -0.3913130
  N       -1.9006720     0.7782080     0.6229160
  C        0.3499640     0.1224320    -0.0065570
  C        0.8960730     1.4188800    -0.1658420
  C        2.6109930    -0.8283676     0.1690174
  C        1.2173430    -0.9692250     0.1590540
  C       -1.1077440    -0.1233710    -0.0042630
  C        2.2932590     1.5435480    -0.2281840
  C        3.1306880     0.4434260    -0.0762550
  C        3.5085210    -2.0251140     0.3469700
  C       -1.6410700    -1.2638430    -0.6279320
  C       -3.0109220    -1.5027310    -0.5649580
  C       -3.2228950     0.5407920     0.6622730
  C       -3.8232840    -0.5849970     0.1005040
  H        0.7834850    -1.9532010     0.3364590
  H        2.7242150     2.5332940    -0.3759070
  H        4.2098530     0.5856070    -0.1209690
  H        3.8288200    -2.0891060     1.3929170
  H        2.9990460    -2.9607700     0.0984840
  H        4.4097140    -1.9577250    -0.2701360
  H       -0.9841790    -1.9393540    -1.1680850
  H        0.5549050     3.4095210    -0.2083710
  H       -0.8007830     2.4663430     0.1128890
  H       -3.4393090    -2.3812410    -1.0417430
  H       -3.8215100     1.2923600     1.1747000
  H       -4.8979480    -0.7268890     0.1711280
units angstrom
no_reorient  #important for SAPT in psi4, default
symmetry c1  #important for SAPT in psi4, default
}

set PROPERTIES_ORIGIN ["COM"]
properties('MP2/aug-cc-pvtz', properties = ['dipole'])
--------------------------------------------------------------------------

    Molecular point group: c1
  Charge       = 0
  Multiplicity = 1
  Basis Set: AUG-CC-PVTZ
    Blend: AUG-CC-PVTZ
  Basis Set: (AUG-CC-PVTZ AUX)
    Blend: AUG-CC-PVTZ-JKFIT

    Orbital Energies [Eh]
    ---------------------

    Doubly Occupied:

       1A    -15.567545     2A    -15.547488     3A    -11.288807
       4A    -11.280253     5A    -11.275080     6A    -11.262425
       7A    -11.241564     8A    -11.240836     9A    -11.234023
      10A    -11.232715    11A    -11.231845    12A    -11.226886
      13A    -11.222376    14A    -11.219580    15A     -1.261029
      16A     -1.210468    17A     -1.131640    18A     -1.087843
      19A     -1.063265    20A     -1.015844    21A     -0.992430
      22A     -0.915476    23A     -0.870568    24A     -0.862123
      25A     -0.814868    26A     -0.783232    27A     -0.708806
      28A     -0.689764    29A     -0.681309    30A     -0.660492
      31A     -0.650049    32A     -0.613693    33A     -0.600365
      34A     -0.589143    35A     -0.581559    36A     -0.573415
      37A     -0.570849    38A     -0.547958    39A     -0.532385
      40A     -0.529455    41A     -0.513930    42A     -0.491595
      43A     -0.486134    44A     -0.435293    45A     -0.418688
      46A     -0.387570    47A     -0.366933    48A     -0.315745
      49A     -0.278521

  @DF-RHF Final Energy:  -570.50115792298527

   => Energetics <=

    Nuclear Repulsion Energy =            811.9897960612482848
    One-Electron Energy =               -2384.3741885517815717
    Two-Electron Energy =                1001.8832345675479019
    Total Energy =                       -570.5011579229852714
  Basis Set: (AUG-CC-PVTZ AUX)
    Blend: AUG-CC-PVTZ-RI
    Molecular point group: c1

    Geometry (in Angstrom), charge = 0, multiplicity = 1:

       Center              X                  Y                   Z               Mass
    ------------   -----------------  -----------------  -----------------  -----------------
         N            0.109855016107     2.510315450902    -0.394089978851    14.003074004430
         N           -1.870947983893     0.757300450902     0.620139021149    14.003074004430
         C            0.379688016107     0.101524450902    -0.009333978851    12.000000000000
         C            0.925797016107     1.397972450902    -0.168618978851    12.000000000000
         C            2.640717016107    -0.849275149098     0.166240421149    12.000000000000
         C            1.247067016107    -0.990132549098     0.156277021149    12.000000000000
         C           -1.078019983893    -0.144278549098    -0.007039978851    12.000000000000
         C            2.322983016107     1.522640450902    -0.230960978851    12.000000000000
         C            3.160412016107     0.422518450902    -0.079031978851    12.000000000000
         C            3.538245016107    -2.046021549098     0.344193021149    12.000000000000
         C           -1.611345983893    -1.284750549098    -0.630708978851    12.000000000000
         C           -2.981197983893    -1.523638549098    -0.567734978851    12.000000000000
         C           -3.193170983893     0.519884450902     0.659496021149    12.000000000000
         C           -3.793559983893    -0.605904549098     0.097727021149    12.000000000000
         H            0.813209016107    -1.974108549098     0.333682021149     1.007825032230
         H            2.753939016107     2.512386450902    -0.378683978851     1.007825032230
         H            4.239577016107     0.564699450902    -0.123745978851     1.007825032230
         H            3.858544016107    -2.110013549098     1.390140021149     1.007825032230
         H            3.028770016107    -2.981677549098     0.095707021149     1.007825032230
         H            4.439438016107    -1.978632549098    -0.272912978851     1.007825032230
         H           -0.954454983893    -1.960261549098    -1.170861978851     1.007825032230
         H            0.584629016107     3.388613450902    -0.211147978851     1.007825032230
         H           -0.771058983893     2.445435450902     0.110112021149     1.007825032230
         H           -3.409584983893    -2.402148549098    -1.044519978851     1.007825032230
         H           -3.791785983893     1.271452450902     1.171923021149     1.007825032230
         H           -4.868223983893    -0.747796549098     0.168351021149     1.007825032230

  Basis Set: AUG-CC-PVTZ
    Blend: AUG-CC-PVTZ
  Basis Set: (AUG-CC-PVTZ AUX)
    Blend: AUG-CC-PVTZ-JKFIT
	 Reference Energy          =    -570.5011579229852714 [Eh]
	 Singles Energy            =      -0.0000000000000000 [Eh]
	 Same-Spin Energy          =      -0.6408538332753525 [Eh]
	 Opposite-Spin Energy      =      -1.9777508554424443 [Eh]
	 Correlation Energy        =      -2.6186046887177969 [Eh]
	 Total Energy              =    -573.1197626117030950 [Eh]

	 ================> DF-SCS-MP2 Energies <==================
	-----------------------------------------------------------
	 SCS Same-Spin Scale       =       0.3333333333333333 [-]
	 SCS Opposite-Spin Scale   =       1.2000000000000000 [-]
	 SCS Same-Spin Energy      =      -0.2136179444251175 [Eh]
	 SCS Opposite-Spin Energy  =      -2.3733010265309331 [Eh]
	 SCS Correlation Energy    =      -2.5869189709560505 [Eh]
	 SCS Total Energy          =    -573.0880768939413201 [Eh]
	-----------------------------------------------------------

  Dipole Moment: [D]
     X:    -1.0839      Y:    -0.9830      Z:     0.0545     Total:     1.4643

*** Psi4 exiting successfully. Buy a developer a beer!
