                               Psi4 1.4a3.dev225

  ==> Input File <==

--------------------------------------------------------------------------
#psi4
#
memory 32 gb

molecule  {
0 1
  N        0.0801310     2.5312230    -0.3913130
  N       -1.9006720     0.7782080     0.6229160
  C        0.3499640     0.1224320    -0.0065570
  C        0.8960730     1.4188800    -0.1658420
  C        2.6063130    -0.8406050     0.1180930
  C        1.2173430    -0.9692250     0.1590540
  C       -1.1077440    -0.1233710    -0.0042630
  C        2.2932590     1.5435480    -0.2281840
  C        3.1306880     0.4434260    -0.0762550
  C        3.5085210    -2.0251140     0.3469700
  C       -1.6410700    -1.2638430    -0.6279320
  C       -3.0109220    -1.5027310    -0.5649580
  C       -3.2228950     0.5407920     0.6622730
  C       -3.8232840    -0.5849970     0.1005040
  H        0.7834850    -1.9532010     0.3364590
  H        2.7439916     2.5787135    -0.3826860
  H        4.2098530     0.5856070    -0.1209690
  H        3.8288200    -2.0891060     1.3929170
  H        2.9990460    -2.9607700     0.0984840
  H        4.4097140    -1.9577250    -0.2701360
  H       -0.9841790    -1.9393540    -1.1680850
  H        0.5549050     3.4095210    -0.2083710
  H       -0.8007830     2.4663430     0.1128890
  H       -3.4393090    -2.3812410    -1.0417430
  H       -3.8215100     1.2923600     1.1747000
  H       -4.8979480    -0.7268890     0.1711280
units angstrom
no_reorient  #important for SAPT in psi4, default
symmetry c1  #important for SAPT in psi4, default
}

set PROPERTIES_ORIGIN ["COM"]
properties('MP2/aug-cc-pvtz', properties = ['dipole'])
--------------------------------------------------------------------------

    Molecular point group: c1
  Charge       = 0
  Multiplicity = 1
  Basis Set: AUG-CC-PVTZ
    Blend: AUG-CC-PVTZ
  Basis Set: (AUG-CC-PVTZ AUX)
    Blend: AUG-CC-PVTZ-JKFIT

    Orbital Energies [Eh]
    ---------------------

    Doubly Occupied:

       1A    -15.567666     2A    -15.547636     3A    -11.288866
       4A    -11.280335     5A    -11.275942     6A    -11.262519
       7A    -11.241738     8A    -11.240989     9A    -11.233781
      10A    -11.233119    11A    -11.232619    12A    -11.228530
      13A    -11.227018    14A    -11.219744    15A     -1.261137
      16A     -1.210570    17A     -1.131896    18A     -1.087961
      19A     -1.063074    20A     -1.015374    21A     -0.992116
      22A     -0.915694    23A     -0.870631    24A     -0.862094
      25A     -0.812321    26A     -0.783042    27A     -0.708528
      28A     -0.689903    29A     -0.681276    30A     -0.660145
      31A     -0.649652    32A     -0.610057    33A     -0.600629
      34A     -0.588755    35A     -0.579005    36A     -0.573722
      37A     -0.570120    38A     -0.548369    39A     -0.532472
      40A     -0.529524    41A     -0.513183    42A     -0.493002
      43A     -0.483625    44A     -0.435219    45A     -0.418937
      46A     -0.387686    47A     -0.366806    48A     -0.316722
      49A     -0.278787

  @DF-RHF Final Energy:  -570.49925880743695

   => Energetics <=

    Nuclear Repulsion Energy =            811.7458497545763976
    One-Electron Energy =               -2383.8851502943302876
    Two-Electron Energy =                1001.6400417323170586
    Total Energy =                       -570.4992588074369451
  Basis Set: (AUG-CC-PVTZ AUX)
    Blend: AUG-CC-PVTZ-RI
    Molecular point group: c1

    Geometry (in Angstrom), charge = 0, multiplicity = 1:

       Center              X                  Y                   Z               Mass
    ------------   -----------------  -----------------  -----------------  -----------------
         N            0.110051803928     2.510864467004    -0.390733516692    14.003074004430
         N           -1.870751196072     0.757849467004     0.623495483308    14.003074004430
         C            0.379884803928     0.102073467004    -0.005977516692    12.000000000000
         C            0.925993803928     1.398521467004    -0.165262516692    12.000000000000
         C            2.636233803928    -0.860963532996     0.118672483308    12.000000000000
         C            1.247263803928    -0.989583532996     0.159633483308    12.000000000000
         C           -1.077823196072    -0.143729532996    -0.003683516692    12.000000000000
         C            2.323179803928     1.523189467004    -0.227604516692    12.000000000000
         C            3.160608803928     0.423067467004    -0.075675516692    12.000000000000
         C            3.538441803928    -2.045472532996     0.347549483308    12.000000000000
         C           -1.611149196072    -1.284201532996    -0.627352516692    12.000000000000
         C           -2.981001196072    -1.523089532996    -0.564378516692    12.000000000000
         C           -3.192974196072     0.520433467004     0.662852483308    12.000000000000
         C           -3.793363196072    -0.605355532996     0.101083483308    12.000000000000
         H            0.813405803928    -1.973559532996     0.337038483308     1.007825032230
         H            2.773912403928     2.558354967004    -0.382106516692     1.007825032230
         H            4.239773803928     0.565248467004    -0.120389516692     1.007825032230
         H            3.858740803928    -2.109464532996     1.393496483308     1.007825032230
         H            3.028966803928    -2.981128532996     0.099063483308     1.007825032230
         H            4.439634803928    -1.978083532996    -0.269556516692     1.007825032230
         H           -0.954258196072    -1.959712532996    -1.167505516692     1.007825032230
         H            0.584825803928     3.389162467004    -0.207791516692     1.007825032230
         H           -0.770862196072     2.445984467004     0.113468483308     1.007825032230
         H           -3.409388196072    -2.401599532996    -1.041163516692     1.007825032230
         H           -3.791589196072     1.272001467004     1.175279483308     1.007825032230
         H           -4.868027196072    -0.747247532996     0.171707483308     1.007825032230

  Basis Set: AUG-CC-PVTZ
    Blend: AUG-CC-PVTZ
  Basis Set: (AUG-CC-PVTZ AUX)
    Blend: AUG-CC-PVTZ-JKFIT
	 Reference Energy          =    -570.4992588074369451 [Eh]
	 Singles Energy            =      -0.0000000000000000 [Eh]
	 Same-Spin Energy          =      -0.6409584564075604 [Eh]
	 Opposite-Spin Energy      =      -1.9781380137243978 [Eh]
	 Correlation Energy        =      -2.6190964701319581 [Eh]
	 Total Energy              =    -573.1183552775688668 [Eh]

	 ================> DF-SCS-MP2 Energies <==================
	-----------------------------------------------------------
	 SCS Same-Spin Scale       =       0.3333333333333333 [-]
	 SCS Opposite-Spin Scale   =       1.2000000000000000 [-]
	 SCS Same-Spin Energy      =      -0.2136528188025201 [Eh]
	 SCS Opposite-Spin Energy  =      -2.3737656164692771 [Eh]
	 SCS Correlation Energy    =      -2.5874184352717973 [Eh]
	 SCS Total Energy          =    -573.0866772427087881 [Eh]
	-----------------------------------------------------------

  Dipole Moment: [D]
     X:    -1.1088      Y:    -0.9901      Z:     0.0809     Total:     1.4888

*** Psi4 exiting successfully. Buy a developer a beer!
