                               Psi4 1.4a3.dev225

  ==> Input File <==

--------------------------------------------------------------------------
#psi4
#
memory 32 gb

molecule  {
0 1
  N        0.0801310     2.5312230    -0.3913130
  N       -1.9006720     0.7782080     0.6229160
  C        0.3499640     0.1224320    -0.0065570
  C        0.8960730     1.4188800    -0.1658420
  C        2.6063130    -0.8406050     0.1180930
  C        1.1178119    -0.9784417     0.1619892
  C       -1.1077440    -0.1233710    -0.0042630
  C        2.2932590     1.5435480    -0.2281840
  C        3.1306880     0.4434260    -0.0762550
  C        3.5085210    -2.0251140     0.3469700
  C       -1.6410700    -1.2638430    -0.6279320
  C       -3.0109220    -1.5027310    -0.5649580
  C       -3.2228950     0.5407920     0.6622730
  C       -3.8232840    -0.5849970     0.1005040
  H        0.7834850    -1.9532010     0.3364590
  H        2.7242150     2.5332940    -0.3759070
  H        4.2098530     0.5856070    -0.1209690
  H        3.8288200    -2.0891060     1.3929170
  H        2.9990460    -2.9607700     0.0984840
  H        4.4097140    -1.9577250    -0.2701360
  H       -0.9841790    -1.9393540    -1.1680850
  H        0.5549050     3.4095210    -0.2083710
  H       -0.8007830     2.4663430     0.1128890
  H       -3.4393090    -2.3812410    -1.0417430
  H       -3.8215100     1.2923600     1.1747000
  H       -4.8979480    -0.7268890     0.1711280
units angstrom
no_reorient  #important for SAPT in psi4, default
symmetry c1  #important for SAPT in psi4, default
}

set PROPERTIES_ORIGIN ["COM"]
properties('MP2/aug-cc-pvtz', properties = ['dipole'])
--------------------------------------------------------------------------

    Molecular point group: c1
  Charge       = 0
  Multiplicity = 1
  Basis Set: AUG-CC-PVTZ
    Blend: AUG-CC-PVTZ
  Basis Set: (AUG-CC-PVTZ AUX)
    Blend: AUG-CC-PVTZ-JKFIT

    Orbital Energies [Eh]
    ---------------------

    Doubly Occupied:

       1A    -15.567734     2A    -15.547735     3A    -11.288023
       4A    -11.280463     5A    -11.275380     6A    -11.262876
       7A    -11.242018     8A    -11.241247     9A    -11.235350
      10A    -11.234579    11A    -11.232161    12A    -11.229317
      13A    -11.220247    14A    -11.219622    15A     -1.261754
      16A     -1.210492    17A     -1.127416    18A     -1.088283
      19A     -1.065906    20A     -1.011205    21A     -0.997290
      22A     -0.912261    23A     -0.869351    24A     -0.861976
      25A     -0.816932    26A     -0.781169    27A     -0.710286
      28A     -0.690376    29A     -0.684377    30A     -0.660944
      31A     -0.648076    32A     -0.614748    33A     -0.599793
      34A     -0.591269    35A     -0.586542    36A     -0.573033
      37A     -0.568521    38A     -0.549654    39A     -0.535468
      40A     -0.527884    41A     -0.513247    42A     -0.498402
      43A     -0.474036    44A     -0.431902    45A     -0.418133
      46A     -0.388350    47A     -0.369076    48A     -0.318162
      49A     -0.272793

  @DF-RHF Final Energy:  -570.48922487723416

   => Energetics <=

    Nuclear Repulsion Energy =            811.9914888761919656
    One-Electron Energy =               -2384.3497084265204649
    Two-Electron Energy =                1001.8689946730944484
    Total Energy =                       -570.4892248772341645
  Basis Set: (AUG-CC-PVTZ AUX)
    Blend: AUG-CC-PVTZ-RI
    Molecular point group: c1

    Geometry (in Angstrom), charge = 0, multiplicity = 1:

       Center              X                  Y                   Z               Mass
    ------------   -----------------  -----------------  -----------------  -----------------
         N            0.116647698732     2.511713870958    -0.390961949255    14.003074004430
         N           -1.864155301268     0.758698870958     0.623267050745    14.003074004430
         C            0.386480698732     0.102922870958    -0.006205949255    12.000000000000
         C            0.932589698732     1.399370870958    -0.165490949255    12.000000000000
         C            2.642829698732    -0.860114129042     0.118444050745    12.000000000000
         C            1.154328598732    -0.997950829042     0.162340250745    12.000000000000
         C           -1.071227301268    -0.142880129042    -0.003911949255    12.000000000000
         C            2.329775698732     1.524038870958    -0.227832949255    12.000000000000
         C            3.167204698732     0.423916870958    -0.075903949255    12.000000000000
         C            3.545037698732    -2.044623129042     0.347321050745    12.000000000000
         C           -1.604553301268    -1.283352129042    -0.627580949255    12.000000000000
         C           -2.974405301268    -1.522240129042    -0.564606949255    12.000000000000
         C           -3.186378301268     0.521282870958     0.662624050745    12.000000000000
         C           -3.786767301268    -0.604506129042     0.100855050745    12.000000000000
         H            0.820001698732    -1.972710129042     0.336810050745     1.007825032230
         H            2.760731698732     2.513784870958    -0.375555949255     1.007825032230
         H            4.246369698732     0.566097870958    -0.120617949255     1.007825032230
         H            3.865336698732    -2.108615129042     1.393268050745     1.007825032230
         H            3.035562698732    -2.980279129042     0.098835050745     1.007825032230
         H            4.446230698732    -1.977234129042    -0.269784949255     1.007825032230
         H           -0.947662301268    -1.958863129042    -1.167733949255     1.007825032230
         H            0.591421698732     3.390011870958    -0.208019949255     1.007825032230
         H           -0.764266301268     2.446833870958     0.113240050745     1.007825032230
         H           -3.402792301268    -2.400750129042    -1.041391949255     1.007825032230
         H           -3.784993301268     1.272850870958     1.175051050745     1.007825032230
         H           -4.861431301268    -0.746398129042     0.171479050745     1.007825032230

  Basis Set: AUG-CC-PVTZ
    Blend: AUG-CC-PVTZ
  Basis Set: (AUG-CC-PVTZ AUX)
    Blend: AUG-CC-PVTZ-JKFIT
	 Reference Energy          =    -570.4892248772341645 [Eh]
	 Singles Energy            =      -0.0000000000000000 [Eh]
	 Same-Spin Energy          =      -0.6408902123942287 [Eh]
	 Opposite-Spin Energy      =      -1.9785835068185889 [Eh]
	 Correlation Energy        =      -2.6194737192128175 [Eh]
	 Total Energy              =    -573.1086985964469704 [Eh]

	 ================> DF-SCS-MP2 Energies <==================
	-----------------------------------------------------------
	 SCS Same-Spin Scale       =       0.3333333333333333 [-]
	 SCS Opposite-Spin Scale   =       1.2000000000000000 [-]
	 SCS Same-Spin Energy      =      -0.2136300707980762 [Eh]
	 SCS Opposite-Spin Energy  =      -2.3743002081823064 [Eh]
	 SCS Correlation Energy    =      -2.5879302789803824 [Eh]
	 SCS Total Energy          =    -573.0771551562145305 [Eh]
	-----------------------------------------------------------

  Dipole Moment: [D]
     X:    -1.1202      Y:    -1.0091      Z:     0.0937     Total:     1.5106

*** Psi4 exiting successfully. Buy a developer a beer!
