                               Psi4 1.4a3.dev225

  ==> Input File <==

--------------------------------------------------------------------------
#psi4
#
memory 32 gb

molecule  {
0 1
  N        0.0801310     2.5312230    -0.3913130
  N       -1.9006720     0.7782080     0.6229160
  C        0.3499640     0.1224320    -0.0065570
  C        0.8960730     1.4188800    -0.1658420
  C        2.6007996    -0.7929152     0.1098489
  C        1.2173430    -0.9692250     0.1590540
  C       -1.1077440    -0.1233710    -0.0042630
  C        2.2932590     1.5435480    -0.2281840
  C        3.1306880     0.4434260    -0.0762550
  C        3.5085210    -2.0251140     0.3469700
  C       -1.6410700    -1.2638430    -0.6279320
  C       -3.0109220    -1.5027310    -0.5649580
  C       -3.2228950     0.5407920     0.6622730
  C       -3.8232840    -0.5849970     0.1005040
  H        0.7834850    -1.9532010     0.3364590
  H        2.7242150     2.5332940    -0.3759070
  H        4.2098530     0.5856070    -0.1209690
  H        3.8288200    -2.0891060     1.3929170
  H        2.9990460    -2.9607700     0.0984840
  H        4.4097140    -1.9577250    -0.2701360
  H       -0.9841790    -1.9393540    -1.1680850
  H        0.5549050     3.4095210    -0.2083710
  H       -0.8007830     2.4663430     0.1128890
  H       -3.4393090    -2.3812410    -1.0417430
  H       -3.8215100     1.2923600     1.1747000
  H       -4.8979480    -0.7268890     0.1711280
units angstrom
no_reorient  #important for SAPT in psi4, default
symmetry c1  #important for SAPT in psi4, default
}

set PROPERTIES_ORIGIN ["COM"]
properties('MP2/aug-cc-pvtz', properties = ['dipole'])
--------------------------------------------------------------------------

    Molecular point group: c1
  Charge       = 0
  Multiplicity = 1
  Basis Set: AUG-CC-PVTZ
    Blend: AUG-CC-PVTZ
  Basis Set: (AUG-CC-PVTZ AUX)
    Blend: AUG-CC-PVTZ-JKFIT

    Orbital Energies [Eh]
    ---------------------

    Doubly Occupied:

       1A    -15.568083     2A    -15.546895     3A    -11.288982
       4A    -11.280686     5A    -11.274408     6A    -11.262921
       7A    -11.242207     8A    -11.241489     9A    -11.234287
      10A    -11.233068    11A    -11.227337    12A    -11.224030
      13A    -11.221582    14A    -11.220188    15A     -1.261504
      16A     -1.210527    17A     -1.134786    18A     -1.088380
      19A     -1.064418    20A     -1.010388    21A     -0.994054
      22A     -0.913928    23A     -0.872466    24A     -0.862650
      25A     -0.817063    26A     -0.783452    27A     -0.708474
      28A     -0.690581    29A     -0.682622    30A     -0.660759
      31A     -0.649948    32A     -0.611697    33A     -0.600690
      34A     -0.591092    35A     -0.581893    36A     -0.573839
      37A     -0.567671    38A     -0.547969    39A     -0.530979
      40A     -0.529846    41A     -0.512988    42A     -0.492500
      43A     -0.481637    44A     -0.437600    45A     -0.419485
      46A     -0.388214    47A     -0.367835    48A     -0.315797
      49A     -0.281137

  @DF-RHF Final Energy:  -570.49965885163476

   => Energetics <=

    Nuclear Repulsion Energy =            812.4910728493380248
    One-Electron Energy =               -2385.3713993918368033
    Two-Electron Energy =                1002.3806676908640156
    Total Energy =                       -570.4996588516347629
  Basis Set: (AUG-CC-PVTZ AUX)
    Blend: AUG-CC-PVTZ-RI
    Molecular point group: c1

    Geometry (in Angstrom), charge = 0, multiplicity = 1:

       Center              X                  Y                   Z               Mass
    ------------   -----------------  -----------------  -----------------  -----------------
         N            0.110519441788     2.508004594366    -0.390233260690    14.003074004430
         N           -1.870283558212     0.754989594366     0.623995739310    14.003074004430
         C            0.380352441788     0.099213594366    -0.005477260690    12.000000000000
         C            0.926461441788     1.395661594366    -0.164762260690    12.000000000000
         C            2.631188041788    -0.816133605634     0.110928639310    12.000000000000
         C            1.247731441788    -0.992443405634     0.160133739310    12.000000000000
         C           -1.077355558212    -0.146589405634    -0.003183260690    12.000000000000
         C            2.323647441788     1.520329594366    -0.227104260690    12.000000000000
         C            3.161076441788     0.420207594366    -0.075175260690    12.000000000000
         C            3.538909441788    -2.048332405634     0.348049739310    12.000000000000
         C           -1.610681558212    -1.287061405634    -0.626852260690    12.000000000000
         C           -2.980533558212    -1.525949405634    -0.563878260690    12.000000000000
         C           -3.192506558212     0.517573594366     0.663352739310    12.000000000000
         C           -3.792895558212    -0.608215405634     0.101583739310    12.000000000000
         H            0.813873441788    -1.976419405634     0.337538739310     1.007825032230
         H            2.754603441788     2.510075594366    -0.374827260690     1.007825032230
         H            4.240241441788     0.562388594366    -0.119889260690     1.007825032230
         H            3.859208441788    -2.112324405634     1.393996739310     1.007825032230
         H            3.029434441788    -2.983988405634     0.099563739310     1.007825032230
         H            4.440102441788    -1.980943405634    -0.269056260690     1.007825032230
         H           -0.953790558212    -1.962572405634    -1.167005260690     1.007825032230
         H            0.585293441788     3.386302594366    -0.207291260690     1.007825032230
         H           -0.770394558212     2.443124594366     0.113968739310     1.007825032230
         H           -3.408920558212    -2.404459405634    -1.040663260690     1.007825032230
         H           -3.791121558212     1.269141594366     1.175779739310     1.007825032230
         H           -4.867559558212    -0.750107405634     0.172207739310     1.007825032230

  Basis Set: AUG-CC-PVTZ
    Blend: AUG-CC-PVTZ
  Basis Set: (AUG-CC-PVTZ AUX)
    Blend: AUG-CC-PVTZ-JKFIT
	 Reference Energy          =    -570.4996588516347629 [Eh]
	 Singles Energy            =      -0.0000000000000000 [Eh]
	 Same-Spin Energy          =      -0.6406081947431213 [Eh]
	 Opposite-Spin Energy      =      -1.9773256106614783 [Eh]
	 Correlation Energy        =      -2.6179338054045997 [Eh]
	 Total Energy              =    -573.1175926570393813 [Eh]

	 ================> DF-SCS-MP2 Energies <==================
	-----------------------------------------------------------
	 SCS Same-Spin Scale       =       0.3333333333333333 [-]
	 SCS Opposite-Spin Scale   =       1.2000000000000000 [-]
	 SCS Same-Spin Energy      =      -0.2135360649143737 [Eh]
	 SCS Opposite-Spin Energy  =      -2.3727907327937738 [Eh]
	 SCS Correlation Energy    =      -2.5863267977081477 [Eh]
	 SCS Total Energy          =    -573.0859856493428879 [Eh]
	-----------------------------------------------------------

  Dipole Moment: [D]
     X:    -1.1606      Y:    -0.9455      Z:     0.0725     Total:     1.4987

*** Psi4 exiting successfully. Buy a developer a beer!
