                               Psi4 1.4a3.dev225

  ==> Input File <==

--------------------------------------------------------------------------
#psi4
#
memory 32 gb

molecule  {
0 1
  N        0.0801310     2.5312230    -0.3913130
  N       -1.9006720     0.7782080     0.6229160
  C        0.3499640     0.1224320    -0.0065570
  C        0.8960730     1.4188800    -0.1658420
  C        2.6063130    -0.8406050     0.1180930
  C        1.2173430    -0.9692250     0.1590540
  C       -1.1077440    -0.1233710    -0.0042630
  C        2.2932590     1.5435480    -0.2281840
  C        3.1306880     0.4434260    -0.0762550
  C        3.5684102    -2.1037426     0.3621630
  C       -1.6410700    -1.2638430    -0.6279320
  C       -3.0109220    -1.5027310    -0.5649580
  C       -3.2228950     0.5407920     0.6622730
  C       -3.8232840    -0.5849970     0.1005040
  H        0.7834850    -1.9532010     0.3364590
  H        2.7242150     2.5332940    -0.3759070
  H        4.2098530     0.5856070    -0.1209690
  H        3.8288200    -2.0891060     1.3929170
  H        2.9990460    -2.9607700     0.0984840
  H        4.4097140    -1.9577250    -0.2701360
  H       -0.9841790    -1.9393540    -1.1680850
  H        0.5549050     3.4095210    -0.2083710
  H       -0.8007830     2.4663430     0.1128890
  H       -3.4393090    -2.3812410    -1.0417430
  H       -3.8215100     1.2923600     1.1747000
  H       -4.8979480    -0.7268890     0.1711280
units angstrom
no_reorient  #important for SAPT in psi4, default
symmetry c1  #important for SAPT in psi4, default
}

set PROPERTIES_ORIGIN ["COM"]
properties('MP2/aug-cc-pvtz', properties = ['dipole'])
--------------------------------------------------------------------------

    Molecular point group: c1
  Charge       = 0
  Multiplicity = 1
  Basis Set: AUG-CC-PVTZ
    Blend: AUG-CC-PVTZ
  Basis Set: (AUG-CC-PVTZ AUX)
    Blend: AUG-CC-PVTZ-JKFIT

    Orbital Energies [Eh]
    ---------------------

    Doubly Occupied:

       1A    -15.567301     2A    -15.547302     3A    -11.288444
       4A    -11.280037     5A    -11.274880     6A    -11.262223
       7A    -11.241417     8A    -11.240623     9A    -11.233316
      10A    -11.232500    11A    -11.232045    12A    -11.230314
      13A    -11.222275    14A    -11.217840    15A     -1.260765
      16A     -1.210157    17A     -1.127992    18A     -1.087640
      19A     -1.061176    20A     -1.009021    21A     -0.991499
      22A     -0.920432    23A     -0.869862    24A     -0.862053
      25A     -0.813739    26A     -0.783253    27A     -0.707809
      28A     -0.688538    29A     -0.680950    30A     -0.659934
      31A     -0.648864    32A     -0.608781    33A     -0.601185
      34A     -0.587891    35A     -0.582844    36A     -0.579586
      37A     -0.570860    38A     -0.552008    39A     -0.543783
      40A     -0.528275    41A     -0.513475    42A     -0.487725
      43A     -0.471812    44A     -0.436661    45A     -0.418736
      46A     -0.387384    47A     -0.366427    48A     -0.316191
      49A     -0.279244

  @DF-RHF Final Energy:  -570.49461811733443

   => Energetics <=

    Nuclear Repulsion Energy =            810.2227737076117364
    One-Electron Energy =               -2380.8606493090501317
    Two-Electron Energy =                1000.1432574841038559
    Total Energy =                       -570.4946181173344257
  Basis Set: (AUG-CC-PVTZ AUX)
    Blend: AUG-CC-PVTZ-RI
    Molecular point group: c1

    Geometry (in Angstrom), charge = 0, multiplicity = 1:

       Center              X                  Y                   Z               Mass
    ------------   -----------------  -----------------  -----------------  -----------------
         N            0.106256372838     2.516238273897    -0.391760936552    14.003074004430
         N           -1.874546627162     0.763223273897     0.622468063448    14.003074004430
         C            0.376089372838     0.107447273897    -0.007004936552    12.000000000000
         C            0.922198372838     1.403895273897    -0.166289936552    12.000000000000
         C            2.632438372838    -0.855589726103     0.117645063448    12.000000000000
         C            1.243468372838    -0.984209726103     0.158606063448    12.000000000000
         C           -1.081618627162    -0.138355726103    -0.004710936552    12.000000000000
         C            2.319384372838     1.528563273897    -0.228631936552    12.000000000000
         C            3.156813372838     0.428441273897    -0.076702936552    12.000000000000
         C            3.594535572838    -2.118727326103     0.361715063448    12.000000000000
         C           -1.614944627162    -1.278827726103    -0.628379936552    12.000000000000
         C           -2.984796627162    -1.517715726103    -0.565405936552    12.000000000000
         C           -3.196769627162     0.525807273897     0.661825063448    12.000000000000
         C           -3.797158627162    -0.599981726103     0.100056063448    12.000000000000
         H            0.809610372838    -1.968185726103     0.336011063448     1.007825032230
         H            2.750340372838     2.518309273897    -0.376354936552     1.007825032230
         H            4.235978372838     0.570622273897    -0.121416936552     1.007825032230
         H            3.854945372838    -2.104090726103     1.392469063448     1.007825032230
         H            3.025171372838    -2.975754726103     0.098036063448     1.007825032230
         H            4.435839372838    -1.972709726103    -0.270583936552     1.007825032230
         H           -0.958053627162    -1.954338726103    -1.168532936552     1.007825032230
         H            0.581030372838     3.394536273897    -0.208818936552     1.007825032230
         H           -0.774657627162     2.451358273897     0.112441063448     1.007825032230
         H           -3.413183627162    -2.396225726103    -1.042190936552     1.007825032230
         H           -3.795384627162     1.277375273897     1.174252063448     1.007825032230
         H           -4.871822627162    -0.741873726103     0.170680063448     1.007825032230

  Basis Set: AUG-CC-PVTZ
    Blend: AUG-CC-PVTZ
  Basis Set: (AUG-CC-PVTZ AUX)
    Blend: AUG-CC-PVTZ-JKFIT
	 Reference Energy          =    -570.4946181173344257 [Eh]
	 Singles Energy            =      -0.0000000000000000 [Eh]
	 Same-Spin Energy          =      -0.6404108200253021 [Eh]
	 Opposite-Spin Energy      =      -1.9776600424844271 [Eh]
	 Correlation Energy        =      -2.6180708625097293 [Eh]
	 Total Energy              =    -573.1126889798441653 [Eh]

	 ================> DF-SCS-MP2 Energies <==================
	-----------------------------------------------------------
	 SCS Same-Spin Scale       =       0.3333333333333333 [-]
	 SCS Opposite-Spin Scale   =       1.2000000000000000 [-]
	 SCS Same-Spin Energy      =      -0.2134702733417674 [Eh]
	 SCS Opposite-Spin Energy  =      -2.3731920509813125 [Eh]
	 SCS Correlation Energy    =      -2.5866623243230800 [Eh]
	 SCS Total Energy          =    -573.0812804416575545 [Eh]
	-----------------------------------------------------------

  Dipole Moment: [D]
     X:    -1.0934      Y:    -0.9644      Z:     0.0784     Total:     1.4600

*** Psi4 exiting successfully. Buy a developer a beer!
