                               Psi4 1.4a3.dev225

  ==> Input File <==

--------------------------------------------------------------------------
#psi4
#
memory 32 gb

molecule  {
0 1
  N        0.0801310     2.5312230    -0.3913130
  N       -1.9006720     0.7782080     0.6229160
  C        0.3499640     0.1224320    -0.0065570
  C        0.8960730     1.4188800    -0.1658420
  C        2.6063130    -0.8406050     0.1180930
  C        1.2173430    -0.9692250     0.1590540
  C       -1.1077440    -0.1233710    -0.0042630
  C        2.1937529     1.5346693    -0.2237441
  C        3.1306880     0.4434260    -0.0762550
  C        3.5085210    -2.0251140     0.3469700
  C       -1.6410700    -1.2638430    -0.6279320
  C       -3.0109220    -1.5027310    -0.5649580
  C       -3.2228950     0.5407920     0.6622730
  C       -3.8232840    -0.5849970     0.1005040
  H        0.7834850    -1.9532010     0.3364590
  H        2.7242150     2.5332940    -0.3759070
  H        4.2098530     0.5856070    -0.1209690
  H        3.8288200    -2.0891060     1.3929170
  H        2.9990460    -2.9607700     0.0984840
  H        4.4097140    -1.9577250    -0.2701360
  H       -0.9841790    -1.9393540    -1.1680850
  H        0.5549050     3.4095210    -0.2083710
  H       -0.8007830     2.4663430     0.1128890
  H       -3.4393090    -2.3812410    -1.0417430
  H       -3.8215100     1.2923600     1.1747000
  H       -4.8979480    -0.7268890     0.1711280
units angstrom
no_reorient  #important for SAPT in psi4, default
symmetry c1  #important for SAPT in psi4, default
}

set PROPERTIES_ORIGIN ["COM"]
properties('MP2/aug-cc-pvtz', properties = ['dipole'])
--------------------------------------------------------------------------

    Molecular point group: c1
  Charge       = 0
  Multiplicity = 1
  Basis Set: AUG-CC-PVTZ
    Blend: AUG-CC-PVTZ
  Basis Set: (AUG-CC-PVTZ AUX)
    Blend: AUG-CC-PVTZ-JKFIT

    Orbital Energies [Eh]
    ---------------------

    Doubly Occupied:

       1A    -15.568276     2A    -15.541655     3A    -11.289315
       4A    -11.280667     5A    -11.262870     6A    -11.260006
       7A    -11.242435     8A    -11.241700     9A    -11.237214
      10A    -11.237187    11A    -11.233776    12A    -11.229187
      13A    -11.220593    14A    -11.218782    15A     -1.261812
      16A     -1.213548    17A     -1.131481    18A     -1.088462
      19A     -1.062382    20A     -1.023013    21A     -0.988693
      22A     -0.920944    23A     -0.875408    24A     -0.862253
      25A     -0.814210    26A     -0.780026    27A     -0.709635
      28A     -0.688849    29A     -0.681285    30A     -0.660283
      31A     -0.650307    32A     -0.607661    33A     -0.602609
      34A     -0.589043    35A     -0.582858    36A     -0.573004
      37A     -0.568228    38A     -0.549378    39A     -0.534809
      40A     -0.530395    41A     -0.517570    42A     -0.496326
      43A     -0.475105    44A     -0.433007    45A     -0.419124
      46A     -0.387620    47A     -0.364890    48A     -0.314528
      49A     -0.286552

  @DF-RHF Final Energy:  -570.48819662767937

   => Energetics <=

    Nuclear Repulsion Energy =            813.5867300094367920
    One-Electron Energy =               -2387.5319382089232931
    Two-Electron Energy =                1003.4570115718070156
    Total Energy =                       -570.4881966276793719
  Basis Set: (AUG-CC-PVTZ AUX)
    Blend: AUG-CC-PVTZ-RI
    Molecular point group: c1

    Geometry (in Angstrom), charge = 0, multiplicity = 1:

       Center              X                  Y                   Z               Mass
    ------------   -----------------  -----------------  -----------------  -----------------
         N            0.116646069183     2.511691839459    -0.391060028534    14.003074004430
         N           -1.864156930817     0.758676839459     0.623168971466    14.003074004430
         C            0.386479069183     0.102900839459    -0.006304028534    12.000000000000
         C            0.932588069183     1.399348839459    -0.165589028534    12.000000000000
         C            2.642828069183    -0.860136160541     0.118345971466    12.000000000000
         C            1.253858069183    -0.988756160541     0.159306971466    12.000000000000
         C           -1.071228930817    -0.142902160541    -0.004010028534    12.000000000000
         C            2.230267969183     1.515138139459    -0.223491128534    12.000000000000
         C            3.167203069183     0.423894839459    -0.076002028534    12.000000000000
         C            3.545036069183    -2.044645160541     0.347222971466    12.000000000000
         C           -1.604554930817    -1.283374160541    -0.627679028534    12.000000000000
         C           -2.974406930817    -1.522262160541    -0.564705028534    12.000000000000
         C           -3.186379930817     0.521260839459     0.662525971466    12.000000000000
         C           -3.786768930817    -0.604528160541     0.100756971466    12.000000000000
         H            0.820000069183    -1.972732160541     0.336711971466     1.007825032230
         H            2.760730069183     2.513762839459    -0.375654028534     1.007825032230
         H            4.246368069183     0.566075839459    -0.120716028534     1.007825032230
         H            3.865335069183    -2.108637160541     1.393169971466     1.007825032230
         H            3.035561069183    -2.980301160541     0.098736971466     1.007825032230
         H            4.446229069183    -1.977256160541    -0.269883028534     1.007825032230
         H           -0.947663930817    -1.958885160541    -1.167832028534     1.007825032230
         H            0.591420069183     3.389989839459    -0.208118028534     1.007825032230
         H           -0.764267930817     2.446811839459     0.113141971466     1.007825032230
         H           -3.402793930817    -2.400772160541    -1.041490028534     1.007825032230
         H           -3.784994930817     1.272828839459     1.174952971466     1.007825032230
         H           -4.861432930817    -0.746420160541     0.171380971466     1.007825032230

  Basis Set: AUG-CC-PVTZ
    Blend: AUG-CC-PVTZ
  Basis Set: (AUG-CC-PVTZ AUX)
    Blend: AUG-CC-PVTZ-JKFIT
	 Reference Energy          =    -570.4881966276793719 [Eh]
	 Singles Energy            =      -0.0000000000000000 [Eh]
	 Same-Spin Energy          =      -0.6409462146472714 [Eh]
	 Opposite-Spin Energy      =      -1.9782833408955576 [Eh]
	 Correlation Energy        =      -2.6192295555428289 [Eh]
	 Total Energy              =    -573.1074261832221737 [Eh]

	 ================> DF-SCS-MP2 Energies <==================
	-----------------------------------------------------------
	 SCS Same-Spin Scale       =       0.3333333333333333 [-]
	 SCS Opposite-Spin Scale   =       1.2000000000000000 [-]
	 SCS Same-Spin Energy      =      -0.2136487382157571 [Eh]
	 SCS Opposite-Spin Energy  =      -2.3739400090746692 [Eh]
	 SCS Correlation Energy    =      -2.5875887472904262 [Eh]
	 SCS Total Energy          =    -573.0757853749697688 [Eh]
	-----------------------------------------------------------

  Dipole Moment: [D]
     X:    -1.0415      Y:    -1.1698      Z:     0.1191     Total:     1.5708

*** Psi4 exiting successfully. Buy a developer a beer!
