                               Psi4 1.4a3.dev225

  ==> Input File <==

--------------------------------------------------------------------------
#psi4
#
memory 32 gb

molecule  {
0 1
  N        0.0801310     2.5312230    -0.3913130
  N       -1.9006720     0.7782080     0.6229160
  C        0.3047434     0.1423520    -0.0071295
  C        0.8960730     1.4188800    -0.1658420
  C        2.6063130    -0.8406050     0.1180930
  C        1.2173430    -0.9692250     0.1590540
  C       -1.1077440    -0.1233710    -0.0042630
  C        2.2932590     1.5435480    -0.2281840
  C        3.1306880     0.4434260    -0.0762550
  C        3.5085210    -2.0251140     0.3469700
  C       -1.6410700    -1.2638430    -0.6279320
  C       -3.0109220    -1.5027310    -0.5649580
  C       -3.2228950     0.5407920     0.6622730
  C       -3.8232840    -0.5849970     0.1005040
  H        0.7834850    -1.9532010     0.3364590
  H        2.7242150     2.5332940    -0.3759070
  H        4.2098530     0.5856070    -0.1209690
  H        3.8288200    -2.0891060     1.3929170
  H        2.9990460    -2.9607700     0.0984840
  H        4.4097140    -1.9577250    -0.2701360
  H       -0.9841790    -1.9393540    -1.1680850
  H        0.5549050     3.4095210    -0.2083710
  H       -0.8007830     2.4663430     0.1128890
  H       -3.4393090    -2.3812410    -1.0417430
  H       -3.8215100     1.2923600     1.1747000
  H       -4.8979480    -0.7268890     0.1711280
units angstrom
no_reorient  #important for SAPT in psi4, default
symmetry c1  #important for SAPT in psi4, default
}

set PROPERTIES_ORIGIN ["COM"]
properties('MP2/aug-cc-pvtz', properties = ['dipole'])
--------------------------------------------------------------------------

    Molecular point group: c1
  Charge       = 0
  Multiplicity = 1
  Basis Set: AUG-CC-PVTZ
    Blend: AUG-CC-PVTZ
  Basis Set: (AUG-CC-PVTZ AUX)
    Blend: AUG-CC-PVTZ-JKFIT

    Orbital Energies [Eh]
    ---------------------

    Doubly Occupied:

       1A    -15.566436     2A    -15.546637     3A    -11.286129
       4A    -11.279687     5A    -11.276630     6A    -11.262207
       7A    -11.241103     8A    -11.240814     9A    -11.237624
      10A    -11.234697    11A    -11.232781    12A    -11.227606
      13A    -11.224160    14A    -11.220171    15A     -1.261937
      16A     -1.210502    17A     -1.128853    18A     -1.087719
      19A     -1.066502    20A     -1.016261    21A     -0.988592
      22A     -0.915390    23A     -0.874603    24A     -0.862528
      25A     -0.815474    26A     -0.781737    27A     -0.708742
      28A     -0.690298    29A     -0.680878    30A     -0.662385
      31A     -0.650488    32A     -0.614383    33A     -0.599798
      34A     -0.590360    35A     -0.577764    36A     -0.574662
      37A     -0.570578    38A     -0.548939    39A     -0.531605
      40A     -0.529548    41A     -0.511964    42A     -0.493083
      43A     -0.487009    44A     -0.433686    45A     -0.419521
      46A     -0.387761    47A     -0.367333    48A     -0.312956
      49A     -0.278429

  @DF-RHF Final Energy:  -570.49738948067500

   => Energetics <=

    Nuclear Repulsion Energy =            812.0597255176453473
    One-Electron Energy =               -2384.4963292962052037
    Two-Electron Energy =                1001.9392142978848597
    Total Energy =                       -570.4973894806749968
  Basis Set: (AUG-CC-PVTZ AUX)
    Blend: AUG-CC-PVTZ-RI
    Molecular point group: c1

    Geometry (in Angstrom), charge = 0, multiplicity = 1:

       Center              X                  Y                   Z               Mass
    ------------   -----------------  -----------------  -----------------  -----------------
         N            0.113107634480     2.509814684059    -0.390733310532    14.003074004430
         N           -1.867695365520     0.756799684059     0.623495689468    14.003074004430
         C            0.337720034480     0.120943684059    -0.006549810532    12.000000000000
         C            0.929049634480     1.397471684059    -0.165262310532    12.000000000000
         C            2.639289634480    -0.862013315941     0.118672689468    12.000000000000
         C            1.250319634480    -0.990633315941     0.159633689468    12.000000000000
         C           -1.074767365520    -0.144779315941    -0.003683310532    12.000000000000
         C            2.326235634480     1.522139684059    -0.227604310532    12.000000000000
         C            3.163664634480     0.422017684059    -0.075675310532    12.000000000000
         C            3.541497634480    -2.046522315941     0.347549689468    12.000000000000
         C           -1.608093365520    -1.285251315941    -0.627352310532    12.000000000000
         C           -2.977945365520    -1.524139315941    -0.564378310532    12.000000000000
         C           -3.189918365520     0.519383684059     0.662852689468    12.000000000000
         C           -3.790307365520    -0.606405315941     0.101083689468    12.000000000000
         H            0.816461634480    -1.974609315941     0.337038689468     1.007825032230
         H            2.757191634480     2.511885684059    -0.375327310532     1.007825032230
         H            4.242829634480     0.564198684059    -0.120389310532     1.007825032230
         H            3.861796634480    -2.110514315941     1.393496689468     1.007825032230
         H            3.032022634480    -2.982178315941     0.099063689468     1.007825032230
         H            4.442690634480    -1.979133315941    -0.269556310532     1.007825032230
         H           -0.951202365520    -1.960762315941    -1.167505310532     1.007825032230
         H            0.587881634480     3.388112684059    -0.207791310532     1.007825032230
         H           -0.767806365520     2.444934684059     0.113468689468     1.007825032230
         H           -3.406332365520    -2.402649315941    -1.041163310532     1.007825032230
         H           -3.788533365520     1.270951684059     1.175279689468     1.007825032230
         H           -4.864971365520    -0.748297315941     0.171707689468     1.007825032230

  Basis Set: AUG-CC-PVTZ
    Blend: AUG-CC-PVTZ
  Basis Set: (AUG-CC-PVTZ AUX)
    Blend: AUG-CC-PVTZ-JKFIT
	 Reference Energy          =    -570.4973894806749968 [Eh]
	 Singles Energy            =      -0.0000000000000000 [Eh]
	 Same-Spin Energy          =      -0.6413910194975935 [Eh]
	 Opposite-Spin Energy      =      -1.9787476249629041 [Eh]
	 Correlation Energy        =      -2.6201386444604977 [Eh]
	 Total Energy              =    -573.1175281251355500 [Eh]

	 ================> DF-SCS-MP2 Energies <==================
	-----------------------------------------------------------
	 SCS Same-Spin Scale       =       0.3333333333333333 [-]
	 SCS Opposite-Spin Scale   =       1.2000000000000000 [-]
	 SCS Same-Spin Energy      =      -0.2137970064991978 [Eh]
	 SCS Opposite-Spin Energy  =      -2.3744971499554848 [Eh]
	 SCS Correlation Energy    =      -2.5882941564546824 [Eh]
	 SCS Total Energy          =    -573.0856836371297049 [Eh]
	-----------------------------------------------------------

  Dipole Moment: [D]
     X:    -1.0333      Y:    -0.9614      Z:     0.0707     Total:     1.4132

*** Psi4 exiting successfully. Buy a developer a beer!
