                               Psi4 1.4a3.dev225

  ==> Input File <==

--------------------------------------------------------------------------
#psi4
#
memory 32 gb

molecule  {
0 1
  N        0.0801310     2.5312230    -0.3913130
  N       -1.9006720     0.7782080     0.6229160
  C        0.3499640     0.1224320    -0.0065570
  C        0.8377006     1.4984569    -0.1819722
  C        2.6063130    -0.8406050     0.1180930
  C        1.2173430    -0.9692250     0.1590540
  C       -1.1077440    -0.1233710    -0.0042630
  C        2.2932590     1.5435480    -0.2281840
  C        3.1306880     0.4434260    -0.0762550
  C        3.5085210    -2.0251140     0.3469700
  C       -1.6410700    -1.2638430    -0.6279320
  C       -3.0109220    -1.5027310    -0.5649580
  C       -3.2228950     0.5407920     0.6622730
  C       -3.8232840    -0.5849970     0.1005040
  H        0.7834850    -1.9532010     0.3364590
  H        2.7242150     2.5332940    -0.3759070
  H        4.2098530     0.5856070    -0.1209690
  H        3.8288200    -2.0891060     1.3929170
  H        2.9990460    -2.9607700     0.0984840
  H        4.4097140    -1.9577250    -0.2701360
  H       -0.9841790    -1.9393540    -1.1680850
  H        0.5549050     3.4095210    -0.2083710
  H       -0.8007830     2.4663430     0.1128890
  H       -3.4393090    -2.3812410    -1.0417430
  H       -3.8215100     1.2923600     1.1747000
  H       -4.8979480    -0.7268890     0.1711280
units angstrom
no_reorient  #important for SAPT in psi4, default
symmetry c1  #important for SAPT in psi4, default
}

set PROPERTIES_ORIGIN ["COM"]
properties('MP2/aug-cc-pvtz', properties = ['dipole'])
--------------------------------------------------------------------------

    Molecular point group: c1
  Charge       = 0
  Multiplicity = 1
  Basis Set: AUG-CC-PVTZ
    Blend: AUG-CC-PVTZ
  Basis Set: (AUG-CC-PVTZ AUX)
    Blend: AUG-CC-PVTZ-JKFIT

    Orbital Energies [Eh]
    ---------------------

    Doubly Occupied:

       1A    -15.566392     2A    -15.561500     3A    -11.286180
       4A    -11.285804     5A    -11.279742     6A    -11.261152
       7A    -11.239714     8A    -11.238120     9A    -11.232445
      10A    -11.231146    11A    -11.231039    12A    -11.222920
      13A    -11.220078    14A    -11.215990    15A     -1.266629
      16A     -1.246026    17A     -1.128535    18A     -1.086528
      19A     -1.059601    20A     -1.007413    21A     -0.986815
      22A     -0.911276    23A     -0.867300    24A     -0.860303
      25A     -0.810353    26A     -0.785783    27A     -0.709914
      28A     -0.703059    29A     -0.697352    30A     -0.659626
      31A     -0.649552    32A     -0.617102    33A     -0.597296
      34A     -0.591400    35A     -0.578853    36A     -0.572338
      37A     -0.566719    38A     -0.549013    39A     -0.532857
      40A     -0.523638    41A     -0.522102    42A     -0.493870
      43A     -0.472649    44A     -0.441924    45A     -0.417281
      46A     -0.386811    47A     -0.364633    48A     -0.313769
      49A     -0.264709

  @DF-RHF Final Energy:  -570.48590583767236

   => Energetics <=

    Nuclear Repulsion Energy =            811.5310441016014238
    One-Electron Energy =               -2383.4033961536329116
    Two-Electron Energy =                1001.3864462143592391
    Total Energy =                       -570.4859058376723624
  Basis Set: (AUG-CC-PVTZ AUX)
    Blend: AUG-CC-PVTZ-RI
    Molecular point group: c1

    Geometry (in Angstrom), charge = 0, multiplicity = 1:

       Center              X                  Y                   Z               Mass
    ------------   -----------------  -----------------  -----------------  -----------------
         N            0.113964894440     2.505926131035    -0.389719229321    14.003074004430
         N           -1.866838105560     0.752911131035     0.624509770679    14.003074004430
         C            0.383797894440     0.097135131035    -0.004963229321    12.000000000000
         C            0.871534494440     1.473160031035    -0.180378429321    12.000000000000
         C            2.640146894440    -0.865901868965     0.119686770679    12.000000000000
         C            1.251176894440    -0.994521868965     0.160647770679    12.000000000000
         C           -1.073910105560    -0.148667868965    -0.002669229321    12.000000000000
         C            2.327092894440     1.518251131035    -0.226590229321    12.000000000000
         C            3.164521894440     0.418129131035    -0.074661229321    12.000000000000
         C            3.542354894440    -2.050410868965     0.348563770679    12.000000000000
         C           -1.607236105560    -1.289139868965    -0.626338229321    12.000000000000
         C           -2.977088105560    -1.528027868965    -0.563364229321    12.000000000000
         C           -3.189061105560     0.515495131035     0.663866770679    12.000000000000
         C           -3.789450105560    -0.610293868965     0.102097770679    12.000000000000
         H            0.817318894440    -1.978497868965     0.338052770679     1.007825032230
         H            2.758048894440     2.507997131035    -0.374313229321     1.007825032230
         H            4.243686894440     0.560310131035    -0.119375229321     1.007825032230
         H            3.862653894440    -2.114402868965     1.394510770679     1.007825032230
         H            3.032879894440    -2.986066868965     0.100077770679     1.007825032230
         H            4.443547894440    -1.983021868965    -0.268542229321     1.007825032230
         H           -0.950345105560    -1.964650868965    -1.166491229321     1.007825032230
         H            0.588738894440     3.384224131035    -0.206777229321     1.007825032230
         H           -0.766949105560     2.441046131035     0.114482770679     1.007825032230
         H           -3.405475105560    -2.406537868965    -1.040149229321     1.007825032230
         H           -3.787676105560     1.267063131035     1.176293770679     1.007825032230
         H           -4.864114105560    -0.752185868965     0.172721770679     1.007825032230

  Basis Set: AUG-CC-PVTZ
    Blend: AUG-CC-PVTZ
  Basis Set: (AUG-CC-PVTZ AUX)
    Blend: AUG-CC-PVTZ-JKFIT
	 Reference Energy          =    -570.4859058376723624 [Eh]
	 Singles Energy            =      -0.0000000000000000 [Eh]
	 Same-Spin Energy          =      -0.6418976807795396 [Eh]
	 Opposite-Spin Energy      =      -1.9787881491532526 [Eh]
	 Correlation Energy        =      -2.6206858299327922 [Eh]
	 Total Energy              =    -573.1065916676051302 [Eh]

	 ================> DF-SCS-MP2 Energies <==================
	-----------------------------------------------------------
	 SCS Same-Spin Scale       =       0.3333333333333333 [-]
	 SCS Opposite-Spin Scale   =       1.2000000000000000 [-]
	 SCS Same-Spin Energy      =      -0.2139658935931799 [Eh]
	 SCS Opposite-Spin Energy  =      -2.3745457789839031 [Eh]
	 SCS Correlation Energy    =      -2.5885116725770829 [Eh]
	 SCS Total Energy          =    -573.0744175102494182 [Eh]
	-----------------------------------------------------------

  Dipole Moment: [D]
     X:    -1.3990      Y:    -0.3776      Z:    -0.0386     Total:     1.4496

*** Psi4 exiting successfully. Buy a developer a beer!
