                               Psi4 1.4a3.dev225

  ==> Input File <==

--------------------------------------------------------------------------
#psi4
#
memory 32 gb

molecule  {
0 1
  N        0.0801310     2.5312230    -0.3913130
  N       -1.9006720     0.7782080     0.6229160
  C        0.3499640     0.1224320    -0.0065570
  C        0.8960730     1.4188800    -0.1658420
  C        2.6063130    -0.8406050     0.1180930
  C        1.2173430    -0.9692250     0.1590540
  C       -1.1077440    -0.1233710    -0.0042630
  C        2.2932590     1.5435480    -0.2281840
  C        3.1306880     0.4434260    -0.0762550
  C        3.5085210    -2.0251140     0.3469700
  C       -1.6410700    -1.2638430    -0.6279320
  C       -3.0109220    -1.5027310    -0.5649580
  C       -3.2228950     0.5407920     0.6622730
  C       -3.8232840    -0.5849970     0.1005040
  H        0.7834850    -1.9532010     0.3364590
  H        2.7242150     2.5332940    -0.3759070
  H        4.2098530     0.5856070    -0.1209690
  H        3.8288200    -2.0891060     1.3929170
  H        2.9990460    -2.9607700     0.0984840
  H        4.4508904    -1.9546459    -0.2983322
  H       -0.9841790    -1.9393540    -1.1680850
  H        0.5549050     3.4095210    -0.2083710
  H       -0.8007830     2.4663430     0.1128890
  H       -3.4393090    -2.3812410    -1.0417430
  H       -3.8215100     1.2923600     1.1747000
  H       -4.8979480    -0.7268890     0.1711280
units angstrom
no_reorient  #important for SAPT in psi4, default
symmetry c1  #important for SAPT in psi4, default
}

set PROPERTIES_ORIGIN ["COM"]
properties('MP2/aug-cc-pvtz', properties = ['dipole'])
--------------------------------------------------------------------------

    Molecular point group: c1
  Charge       = 0
  Multiplicity = 1
  Basis Set: AUG-CC-PVTZ
    Blend: AUG-CC-PVTZ
  Basis Set: (AUG-CC-PVTZ AUX)
    Blend: AUG-CC-PVTZ-JKFIT

    Orbital Energies [Eh]
    ---------------------

    Doubly Occupied:

       1A    -15.567650     2A    -15.547886     3A    -11.288808
       4A    -11.280334     5A    -11.275600     6A    -11.262507
       7A    -11.241716     8A    -11.240950     9A    -11.233789
      10A    -11.232693    11A    -11.232546    12A    -11.227122
      13A    -11.225484    14A    -11.222848    15A     -1.261126
      16A     -1.210809    17A     -1.131775    18A     -1.087946
      19A     -1.063007    20A     -1.015272    21A     -0.992381
      22A     -0.912763    23A     -0.870682    24A     -0.862152
      25A     -0.814901    26A     -0.782942    27A     -0.708737
      28A     -0.689917    29A     -0.681489    30A     -0.660543
      31A     -0.650011    32A     -0.613758    33A     -0.600060
      34A     -0.589049    35A     -0.581905    36A     -0.573309
      37A     -0.568031    38A     -0.548408    39A     -0.532003
      40A     -0.525438    41A     -0.512095    42A     -0.493110
      43A     -0.485601    44A     -0.434970    45A     -0.418945
      46A     -0.387668    47A     -0.366720    48A     -0.316668
      49A     -0.278646

  @DF-RHF Final Energy:  -570.49962747450490

   => Energetics <=

    Nuclear Repulsion Energy =            811.7919870019748032
    One-Electron Energy =               -2383.9776818260552318
    Two-Electron Energy =                1001.6860673495755236
    Total Energy =                       -570.4996274745049050
  Basis Set: (AUG-CC-PVTZ AUX)
    Blend: AUG-CC-PVTZ-RI
    Molecular point group: c1

    Geometry (in Angstrom), charge = 0, multiplicity = 1:

       Center              X                  Y                   Z               Mass
    ------------   -----------------  -----------------  -----------------  -----------------
         N            0.109934654290     2.511096252467    -0.390616271800    14.003074004430
         N           -1.870868345710     0.758081252467     0.623612728200    14.003074004430
         C            0.379767654290     0.102305252467    -0.005860271800    12.000000000000
         C            0.925876654290     1.398753252467    -0.165145271800    12.000000000000
         C            2.636116654290    -0.860731747533     0.118789728200    12.000000000000
         C            1.247146654290    -0.989351747533     0.159750728200    12.000000000000
         C           -1.077940345710    -0.143497747533    -0.003566271800    12.000000000000
         C            2.323062654290     1.523421252467    -0.227487271800    12.000000000000
         C            3.160491654290     0.423299252467    -0.075558271800    12.000000000000
         C            3.538324654290    -2.045240747533     0.347666728200    12.000000000000
         C           -1.611266345710    -1.283969747533    -0.627235271800    12.000000000000
         C           -2.981118345710    -1.522857747533    -0.564261271800    12.000000000000
         C           -3.193091345710     0.520665252467     0.662969728200    12.000000000000
         C           -3.793480345710    -0.605123747533     0.101200728200    12.000000000000
         H            0.813288654290    -1.973327747533     0.337155728200     1.007825032230
         H            2.754018654290     2.513167252467    -0.375210271800     1.007825032230
         H            4.239656654290     0.565480252467    -0.120272271800     1.007825032230
         H            3.858623654290    -2.109232747533     1.393613728200     1.007825032230
         H            3.028849654290    -2.980896747533     0.099180728200     1.007825032230
         H            4.480694054290    -1.974772647533    -0.297635471800     1.007825032230
         H           -0.954375345710    -1.959480747533    -1.167388271800     1.007825032230
         H            0.584708654290     3.389394252467    -0.207674271800     1.007825032230
         H           -0.770979345710     2.446216252467     0.113585728200     1.007825032230
         H           -3.409505345710    -2.401367747533    -1.041046271800     1.007825032230
         H           -3.791706345710     1.272233252467     1.175396728200     1.007825032230
         H           -4.868144345710    -0.747015747533     0.171824728200     1.007825032230

  Basis Set: AUG-CC-PVTZ
    Blend: AUG-CC-PVTZ
  Basis Set: (AUG-CC-PVTZ AUX)
    Blend: AUG-CC-PVTZ-JKFIT
	 Reference Energy          =    -570.4996274745049050 [Eh]
	 Singles Energy            =      -0.0000000000000000 [Eh]
	 Same-Spin Energy          =      -0.6408340885207506 [Eh]
	 Opposite-Spin Energy      =      -1.9780281808478699 [Eh]
	 Correlation Energy        =      -2.6188622693686208 [Eh]
	 Total Energy              =    -573.1184897438735106 [Eh]

	 ================> DF-SCS-MP2 Energies <==================
	-----------------------------------------------------------
	 SCS Same-Spin Scale       =       0.3333333333333333 [-]
	 SCS Opposite-Spin Scale   =       1.2000000000000000 [-]
	 SCS Same-Spin Energy      =      -0.2136113628402502 [Eh]
	 SCS Opposite-Spin Energy  =      -2.3736338170174438 [Eh]
	 SCS Correlation Energy    =      -2.5872451798576939 [Eh]
	 SCS Total Energy          =    -573.0868726543626508 [Eh]
	-----------------------------------------------------------

  Dipole Moment: [D]
     X:    -1.1309      Y:    -0.9510      Z:     0.0877     Total:     1.4802

*** Psi4 exiting successfully. Buy a developer a beer!
