                               Psi4 1.4a3.dev225

  ==> Input File <==

--------------------------------------------------------------------------
#psi4
#
memory 32 gb

molecule  {
0 1
  N        0.0801310     2.5312230    -0.3913130
  N       -1.9006720     0.7782080     0.6229160
  C        0.3499640     0.1224320    -0.0065570
  C        0.8960730     1.4188800    -0.1658420
  C        2.6063130    -0.8406050     0.1180930
  C        1.2173430    -0.9692250     0.1590540
  C       -1.1077440    -0.1233710    -0.0042630
  C        2.2932590     1.5435480    -0.2281840
  C        3.1306880     0.4434260    -0.0762550
  C        3.5085210    -2.0251140     0.3469700
  C       -1.6410700    -1.2638430    -0.6279320
  C       -3.0109220    -1.5027310    -0.5649580
  C       -3.2228950     0.5407920     0.6622730
  C       -3.8232840    -0.5849970     0.1005040
  H        0.7834850    -1.9532010     0.3364590
  H        2.7044384     2.4878745    -0.3691280
  H        4.2098530     0.5856070    -0.1209690
  H        3.8288200    -2.0891060     1.3929170
  H        2.9990460    -2.9607700     0.0984840
  H        4.4097140    -1.9577250    -0.2701360
  H       -0.9841790    -1.9393540    -1.1680850
  H        0.5549050     3.4095210    -0.2083710
  H       -0.8007830     2.4663430     0.1128890
  H       -3.4393090    -2.3812410    -1.0417430
  H       -3.8215100     1.2923600     1.1747000
  H       -4.8979480    -0.7268890     0.1711280
units angstrom
no_reorient  #important for SAPT in psi4, default
symmetry c1  #important for SAPT in psi4, default
}

set PROPERTIES_ORIGIN ["COM"]
properties('MP2/aug-cc-pvtz', properties = ['dipole'])
--------------------------------------------------------------------------

    Molecular point group: c1
  Charge       = 0
  Multiplicity = 1
  Basis Set: AUG-CC-PVTZ
    Blend: AUG-CC-PVTZ
  Basis Set: (AUG-CC-PVTZ AUX)
    Blend: AUG-CC-PVTZ-JKFIT

    Orbital Energies [Eh]
    ---------------------

    Doubly Occupied:

       1A    -15.567418     2A    -15.547811     3A    -11.288506
       4A    -11.280136     5A    -11.274889     6A    -11.262301
       7A    -11.241504     8A    -11.240698     9A    -11.233214
      10A    -11.232089    11A    -11.231973    12A    -11.226273
      13A    -11.219287    14A    -11.216672    15A     -1.260892
      16A     -1.210759    17A     -1.131504    18A     -1.087731
      19A     -1.063033    20A     -1.017185    21A     -0.992696
      22A     -0.915437    23A     -0.870526    24A     -0.862188
      25A     -0.817673    26A     -0.783811    27A     -0.709427
      28A     -0.689698    29A     -0.681611    30A     -0.660979
      31A     -0.650806    32A     -0.617894    33A     -0.600525
      34A     -0.589545    35A     -0.583954    36A     -0.573615
      37A     -0.569919    38A     -0.548113    39A     -0.531995
      40A     -0.529312    41A     -0.512819    42A     -0.492973
      43A     -0.487318    44A     -0.434944    45A     -0.418725
      46A     -0.387454    47A     -0.366428    48A     -0.316280
      49A     -0.278302

  @DF-RHF Final Energy:  -570.50101019597878

   => Energetics <=

    Nuclear Repulsion Energy =            812.2955585634525733
    One-Electron Energy =               -2384.9754517157189184
    Two-Electron Energy =                1002.1788829562874525
    Total Energy =                       -570.5010101959787789
  Basis Set: (AUG-CC-PVTZ AUX)
    Blend: AUG-CC-PVTZ-RI
    Molecular point group: c1

    Geometry (in Angstrom), charge = 0, multiplicity = 1:

       Center              X                  Y                   Z               Mass
    ------------   -----------------  -----------------  -----------------  -----------------
         N            0.110268331330     2.511361749970    -0.390807737703    14.003074004430
         N           -1.870534668670     0.758346749970     0.623421262297    14.003074004430
         C            0.380101331330     0.102570749970    -0.006051737703    12.000000000000
         C            0.926210331330     1.399018749970    -0.165336737703    12.000000000000
         C            2.636450331330    -0.860466250030     0.118598262297    12.000000000000
         C            1.247480331330    -0.989086250030     0.159559262297    12.000000000000
         C           -1.077606668670    -0.143232250030    -0.003757737703    12.000000000000
         C            2.323396331330     1.523686749970    -0.227678737703    12.000000000000
         C            3.160825331330     0.423564749970    -0.075749737703    12.000000000000
         C            3.538658331330    -2.044975250030     0.347475262297    12.000000000000
         C           -1.610932668670    -1.283704250030    -0.627426737703    12.000000000000
         C           -2.980784668670    -1.522592250030    -0.564452737703    12.000000000000
         C           -3.192757668670     0.520930749970     0.662778262297    12.000000000000
         C           -3.793146668670    -0.604858250030     0.101009262297    12.000000000000
         H            0.813622331330    -1.973062250030     0.336964262297     1.007825032230
         H            2.734575731330     2.468013249970    -0.368622737703     1.007825032230
         H            4.239990331330     0.565745749970    -0.120463737703     1.007825032230
         H            3.858957331330    -2.108967250030     1.393422262297     1.007825032230
         H            3.029183331330    -2.980631250030     0.098989262297     1.007825032230
         H            4.439851331330    -1.977586250030    -0.269630737703     1.007825032230
         H           -0.954041668670    -1.959215250030    -1.167579737703     1.007825032230
         H            0.585042331330     3.389659749970    -0.207865737703     1.007825032230
         H           -0.770645668670     2.446481749970     0.113394262297     1.007825032230
         H           -3.409171668670    -2.401102250030    -1.041237737703     1.007825032230
         H           -3.791372668670     1.272498749970     1.175205262297     1.007825032230
         H           -4.867810668670    -0.746750250030     0.171633262297     1.007825032230

  Basis Set: AUG-CC-PVTZ
    Blend: AUG-CC-PVTZ
  Basis Set: (AUG-CC-PVTZ AUX)
    Blend: AUG-CC-PVTZ-JKFIT
	 Reference Energy          =    -570.5010101959787789 [Eh]
	 Singles Energy            =      -0.0000000000000000 [Eh]
	 Same-Spin Energy          =      -0.6407290683045803 [Eh]
	 Opposite-Spin Energy      =      -1.9773416519470819 [Eh]
	 Correlation Energy        =      -2.6180707202516622 [Eh]
	 Total Energy              =    -573.1190809162304731 [Eh]

	 ================> DF-SCS-MP2 Energies <==================
	-----------------------------------------------------------
	 SCS Same-Spin Scale       =       0.3333333333333333 [-]
	 SCS Opposite-Spin Scale   =       1.2000000000000000 [-]
	 SCS Same-Spin Energy      =      -0.2135763561015268 [Eh]
	 SCS Opposite-Spin Energy  =      -2.3728099823364981 [Eh]
	 SCS Correlation Energy    =      -2.5863863384380248 [Eh]
	 SCS Total Energy          =    -573.0873965344168255 [Eh]
	-----------------------------------------------------------

  Dipole Moment: [D]
     X:    -1.0875      Y:    -0.9411      Z:     0.0747     Total:     1.4401

*** Psi4 exiting successfully. Buy a developer a beer!
