                               Psi4 1.4a3.dev225

  ==> Input File <==

--------------------------------------------------------------------------
#psi4
#
memory 32 gb

molecule  {
0 1
  N        0.0801310     2.5312230    -0.3913130
  N       -1.9006720     0.7782080     0.6229160
  C        0.3499640     0.1224320    -0.0065570
  C        0.8960730     1.4188800    -0.1658420
  C        2.6063130    -0.8406050     0.1180930
  C        1.4164052    -0.9507916     0.1531836
  C       -1.1077440    -0.1233710    -0.0042630
  C        2.2932590     1.5435480    -0.2281840
  C        3.1306880     0.4434260    -0.0762550
  C        3.5085210    -2.0251140     0.3469700
  C       -1.6410700    -1.2638430    -0.6279320
  C       -3.0109220    -1.5027310    -0.5649580
  C       -3.2228950     0.5407920     0.6622730
  C       -3.8232840    -0.5849970     0.1005040
  H        0.7834850    -1.9532010     0.3364590
  H        2.7242150     2.5332940    -0.3759070
  H        4.2098530     0.5856070    -0.1209690
  H        3.8288200    -2.0891060     1.3929170
  H        2.9990460    -2.9607700     0.0984840
  H        4.4097140    -1.9577250    -0.2701360
  H       -0.9841790    -1.9393540    -1.1680850
  H        0.5549050     3.4095210    -0.2083710
  H       -0.8007830     2.4663430     0.1128890
  H       -3.4393090    -2.3812410    -1.0417430
  H       -3.8215100     1.2923600     1.1747000
  H       -4.8979480    -0.7268890     0.1711280
units angstrom
no_reorient  #important for SAPT in psi4, default
symmetry c1  #important for SAPT in psi4, default
}

set PROPERTIES_ORIGIN ["COM"]
properties('MP2/aug-cc-pvtz', properties = ['dipole'])
--------------------------------------------------------------------------

    Molecular point group: c1
  Charge       = 0
  Multiplicity = 1
  Basis Set: AUG-CC-PVTZ
    Blend: AUG-CC-PVTZ
  Basis Set: (AUG-CC-PVTZ AUX)
    Blend: AUG-CC-PVTZ-JKFIT

    Orbital Energies [Eh]
    ---------------------

    Doubly Occupied:

       1A    -15.566216     2A    -15.548362     3A    -11.289659
       4A    -11.279228     5A    -11.275823     6A    -11.260916
       7A    -11.239987     8A    -11.239316     9A    -11.239222
      10A    -11.233314    11A    -11.228954    12A    -11.224778
      13A    -11.220065    14A    -11.202803    15A     -1.259230
      16A     -1.212074    17A     -1.155796    18A     -1.086335
      19A     -1.057683    20A     -1.030104    21A     -0.980348
      22A     -0.927537    23A     -0.874820    24A     -0.860314
      25A     -0.817036    26A     -0.775935    27A     -0.708721
      28A     -0.691193    29A     -0.678191    30A     -0.658841
      31A     -0.650954    32A     -0.614105    33A     -0.602774
      34A     -0.589901    35A     -0.580010    36A     -0.577435
      37A     -0.568608    38A     -0.545447    39A     -0.535376
      40A     -0.527241    41A     -0.512887    42A     -0.502809
      43A     -0.449539    44A     -0.445790    45A     -0.418941
      46A     -0.385457    47A     -0.362840    48A     -0.330097
      49A     -0.280606

  @DF-RHF Final Energy:  -570.43983787482614

   => Energetics <=

    Nuclear Repulsion Energy =            812.6654632578004112
    One-Electron Energy =               -2385.6033654473530987
    Two-Electron Energy =                1002.4980643147265482
    Total Energy =                       -570.4398378748261393
  Basis Set: (AUG-CC-PVTZ AUX)
    Blend: AUG-CC-PVTZ-RI
    Molecular point group: c1

    Geometry (in Angstrom), charge = 0, multiplicity = 1:

       Center              X                  Y                   Z               Mass
    ------------   -----------------  -----------------  -----------------  -----------------
         N            0.097184805423     2.509911583545    -0.390387983083    14.003074004430
         N           -1.883618194577     0.756896583545     0.623841016917    14.003074004430
         C            0.367017805423     0.101120583545    -0.005631983083    12.000000000000
         C            0.913126805423     1.397568583545    -0.164916983083    12.000000000000
         C            2.623366805423    -0.861916416455     0.119018016917    12.000000000000
         C            1.433459005423    -0.972103016455     0.154108616917    12.000000000000
         C           -1.090690194577    -0.144682416455    -0.003337983083    12.000000000000
         C            2.310312805423     1.522236583545    -0.227258983083    12.000000000000
         C            3.147741805423     0.422114583545    -0.075329983083    12.000000000000
         C            3.525574805423    -2.046425416455     0.347895016917    12.000000000000
         C           -1.624016194577    -1.285154416455    -0.627006983083    12.000000000000
         C           -2.993868194577    -1.524042416455    -0.564032983083    12.000000000000
         C           -3.205841194577     0.519480583545     0.663198016917    12.000000000000
         C           -3.806230194577    -0.606308416455     0.101429016917    12.000000000000
         H            0.800538805423    -1.974512416455     0.337384016917     1.007825032230
         H            2.741268805423     2.511982583545    -0.374981983083     1.007825032230
         H            4.226906805423     0.564295583545    -0.120043983083     1.007825032230
         H            3.845873805423    -2.110417416455     1.393842016917     1.007825032230
         H            3.016099805423    -2.982081416455     0.099409016917     1.007825032230
         H            4.426767805423    -1.979036416455    -0.269210983083     1.007825032230
         H           -0.967125194577    -1.960665416455    -1.167159983083     1.007825032230
         H            0.571958805423     3.388209583545    -0.207445983083     1.007825032230
         H           -0.783729194577     2.445031583545     0.113814016917     1.007825032230
         H           -3.422255194577    -2.402552416455    -1.040817983083     1.007825032230
         H           -3.804456194577     1.271048583545     1.175625016917     1.007825032230
         H           -4.880894194577    -0.748200416455     0.172053016917     1.007825032230

  Basis Set: AUG-CC-PVTZ
    Blend: AUG-CC-PVTZ
  Basis Set: (AUG-CC-PVTZ AUX)
    Blend: AUG-CC-PVTZ-JKFIT
	 Reference Energy          =    -570.4398378748261393 [Eh]
	 Singles Energy            =      -0.0000000000000000 [Eh]
	 Same-Spin Energy          =      -0.6401230503357004 [Eh]
	 Opposite-Spin Energy      =      -1.9788557761096179 [Eh]
	 Correlation Energy        =      -2.6189788264453182 [Eh]
	 Total Energy              =    -573.0588167012714393 [Eh]

	 ================> DF-SCS-MP2 Energies <==================
	-----------------------------------------------------------
	 SCS Same-Spin Scale       =       0.3333333333333333 [-]
	 SCS Opposite-Spin Scale   =       1.2000000000000000 [-]
	 SCS Same-Spin Energy      =      -0.2133743501119001 [Eh]
	 SCS Opposite-Spin Energy  =      -2.3746269313315413 [Eh]
	 SCS Correlation Energy    =      -2.5880012814434417 [Eh]
	 SCS Total Energy          =    -573.0278391562695788 [Eh]
	-----------------------------------------------------------

  Dipole Moment: [D]
     X:    -0.9902      Y:    -0.8281      Z:     0.0353     Total:     1.2913

*** Psi4 exiting successfully. Buy a developer a beer!
