                               Psi4 1.4a3.dev225

  ==> Input File <==

--------------------------------------------------------------------------
#psi4
#
memory 32 gb

molecule  {
0 1
  N        0.0801310     2.5312230    -0.3913130
  N       -1.9006720     0.7782080     0.6229160
  C        0.3499640     0.1224320    -0.0065570
  C        0.8960730     1.4188800    -0.1658420
  C        2.6101341    -0.8884515     0.1263870
  C        1.2173430    -0.9692250     0.1590540
  C       -1.1077440    -0.1233710    -0.0042630
  C        2.2932590     1.5435480    -0.2281840
  C        3.1306880     0.4434260    -0.0762550
  C        3.5085210    -2.0251140     0.3469700
  C       -1.6410700    -1.2638430    -0.6279320
  C       -3.0109220    -1.5027310    -0.5649580
  C       -3.2228950     0.5407920     0.6622730
  C       -3.8232840    -0.5849970     0.1005040
  H        0.7834850    -1.9532010     0.3364590
  H        2.7242150     2.5332940    -0.3759070
  H        4.2098530     0.5856070    -0.1209690
  H        3.8288200    -2.0891060     1.3929170
  H        2.9990460    -2.9607700     0.0984840
  H        4.4097140    -1.9577250    -0.2701360
  H       -0.9841790    -1.9393540    -1.1680850
  H        0.5549050     3.4095210    -0.2083710
  H       -0.8007830     2.4663430     0.1128890
  H       -3.4393090    -2.3812410    -1.0417430
  H       -3.8215100     1.2923600     1.1747000
  H       -4.8979480    -0.7268890     0.1711280
units angstrom
no_reorient  #important for SAPT in psi4, default
symmetry c1  #important for SAPT in psi4, default
}

set PROPERTIES_ORIGIN ["COM"]
properties('MP2/aug-cc-pvtz', properties = ['dipole'])
--------------------------------------------------------------------------

    Molecular point group: c1
  Charge       = 0
  Multiplicity = 1
  Basis Set: AUG-CC-PVTZ
    Blend: AUG-CC-PVTZ
  Basis Set: (AUG-CC-PVTZ AUX)
    Blend: AUG-CC-PVTZ-JKFIT

    Orbital Energies [Eh]
    ---------------------

    Doubly Occupied:

       1A    -15.566980     2A    -15.548573     3A    -11.288357
       4A    -11.279764     5A    -11.276367     6A    -11.261875
       7A    -11.241013     8A    -11.240171     9A    -11.237471
      10A    -11.232956    11A    -11.231489    12A    -11.229190
      13A    -11.223849    14A    -11.218619    15A     -1.260508
      16A     -1.210865    17A     -1.129271    18A     -1.087289
      19A     -1.062167    20A     -1.022103    21A     -0.991050
      22A     -0.916953    23A     -0.868785    24A     -0.861553
      25A     -0.812452    26A     -0.783019    27A     -0.709352
      28A     -0.689043    29A     -0.680298    30A     -0.660189
      31A     -0.650402    32A     -0.615789    33A     -0.601085
      34A     -0.587361    35A     -0.582074    36A     -0.575684
      37A     -0.570754    38A     -0.548627    39A     -0.534008
      40A     -0.530235    41A     -0.513393    42A     -0.500760
      43A     -0.477197    44A     -0.432763    45A     -0.418074
      46A     -0.386915    47A     -0.365450    48A     -0.317386
      49A     -0.275756

  @DF-RHF Final Energy:  -570.49786342608729

   => Energetics <=

    Nuclear Repulsion Energy =            811.5822174780772684
    One-Electron Energy =               -2383.5495948547613807
    Two-Electron Energy =                1001.4695139505967063
    Total Energy =                       -570.4978634260872923
  Basis Set: (AUG-CC-PVTZ AUX)
    Blend: AUG-CC-PVTZ-RI
    Molecular point group: c1

    Geometry (in Angstrom), charge = 0, multiplicity = 1:

       Center              X                  Y                   Z               Mass
    ------------   -----------------  -----------------  -----------------  -----------------
         N            0.109911000883     2.514231836619    -0.391311246284    14.003074004430
         N           -1.870891999117     0.761216836619     0.622917753716    14.003074004430
         C            0.379744000883     0.105440836619    -0.006555246284    12.000000000000
         C            0.925853000883     1.401888836619    -0.165840246284    12.000000000000
         C            2.639914100883    -0.905442663381     0.126388753716    12.000000000000
         C            1.247123000883    -0.986216163381     0.159055753716    12.000000000000
         C           -1.077963999117    -0.140362163381    -0.004261246284    12.000000000000
         C            2.323039000883     1.526556836619    -0.228182246284    12.000000000000
         C            3.160468000883     0.426434836619    -0.076253246284    12.000000000000
         C            3.538301000883    -2.042105163381     0.346971753716    12.000000000000
         C           -1.611289999117    -1.280834163381    -0.627930246284    12.000000000000
         C           -2.981141999117    -1.519722163381    -0.564956246284    12.000000000000
         C           -3.193114999117     0.523800836619     0.662274753716    12.000000000000
         C           -3.793503999117    -0.601988163381     0.100505753716    12.000000000000
         H            0.813265000883    -1.970192163381     0.336460753716     1.007825032230
         H            2.753995000883     2.516302836619    -0.375905246284     1.007825032230
         H            4.239633000883     0.568615836619    -0.120967246284     1.007825032230
         H            3.858600000883    -2.106097163381     1.392918753716     1.007825032230
         H            3.028826000883    -2.977761163381     0.098485753716     1.007825032230
         H            4.439494000883    -1.974716163381    -0.270134246284     1.007825032230
         H           -0.954398999117    -1.956345163381    -1.168083246284     1.007825032230
         H            0.584685000883     3.392529836619    -0.208369246284     1.007825032230
         H           -0.771002999117     2.449351836619     0.112890753716     1.007825032230
         H           -3.409528999117    -2.398232163381    -1.041741246284     1.007825032230
         H           -3.791729999117     1.275368836619     1.174701753716     1.007825032230
         H           -4.868167999117    -0.743880163381     0.171129753716     1.007825032230

  Basis Set: AUG-CC-PVTZ
    Blend: AUG-CC-PVTZ
  Basis Set: (AUG-CC-PVTZ AUX)
    Blend: AUG-CC-PVTZ-JKFIT
	 Reference Energy          =    -570.4978634260872923 [Eh]
	 Singles Energy            =      -0.0000000000000000 [Eh]
	 Same-Spin Energy          =      -0.6411823195267036 [Eh]
	 Opposite-Spin Energy      =      -1.9784005589650775 [Eh]
	 Correlation Energy        =      -2.6195828784917810 [Eh]
	 Total Energy              =    -573.1174463045790617 [Eh]

	 ================> DF-SCS-MP2 Energies <==================
	-----------------------------------------------------------
	 SCS Same-Spin Scale       =       0.3333333333333333 [-]
	 SCS Opposite-Spin Scale   =       1.2000000000000000 [-]
	 SCS Same-Spin Energy      =      -0.2137274398422345 [Eh]
	 SCS Opposite-Spin Energy  =      -2.3740806707580928 [Eh]
	 SCS Correlation Energy    =      -2.5878081106003274 [Eh]
	 SCS Total Energy          =    -573.0856715366876415 [Eh]
	-----------------------------------------------------------

  Dipole Moment: [D]
     X:    -1.0333      Y:    -0.9810      Z:     0.0825     Total:     1.4272

*** Psi4 exiting successfully. Buy a developer a beer!
