                               Psi4 1.4a3.dev225

  ==> Input File <==

--------------------------------------------------------------------------
#psi4
#
memory 32 gb

molecule  {
0 1
  N        0.0801310     2.5312230    -0.3913130
  N       -1.9006720     0.7782080     0.6229160
  C        0.3499640     0.1224320    -0.0065570
  C        0.8960730     1.4188800    -0.1658420
  C        2.6063130    -0.8406050     0.1180930
  C        1.2173430    -0.9692250     0.1590540
  C       -1.1077440    -0.1233710    -0.0042630
  C        2.2932590     1.5435480    -0.2281840
  C        3.1306880     0.4434260    -0.0762550
  C        3.5085210    -2.0251140     0.3469700
  C       -1.6410700    -1.2638430    -0.6279320
  C       -3.0109220    -1.5027310    -0.5649580
  C       -3.2228950     0.5407920     0.6622730
  C       -3.8232840    -0.5849970     0.1005040
  H        0.7834850    -1.9532010     0.3364590
  H        2.7321256     2.5514618    -0.3786186
  H        4.2098530     0.5856070    -0.1209690
  H        3.8288200    -2.0891060     1.3929170
  H        2.9990460    -2.9607700     0.0984840
  H        4.4097140    -1.9577250    -0.2701360
  H       -0.9841790    -1.9393540    -1.1680850
  H        0.5549050     3.4095210    -0.2083710
  H       -0.8007830     2.4663430     0.1128890
  H       -3.4393090    -2.3812410    -1.0417430
  H       -3.8215100     1.2923600     1.1747000
  H       -4.8979480    -0.7268890     0.1711280
units angstrom
no_reorient  #important for SAPT in psi4, default
symmetry c1  #important for SAPT in psi4, default
}

set PROPERTIES_ORIGIN ["COM"]
properties('MP2/aug-cc-pvtz', properties = ['dipole'])
--------------------------------------------------------------------------

    Molecular point group: c1
  Charge       = 0
  Multiplicity = 1
  Basis Set: AUG-CC-PVTZ
    Blend: AUG-CC-PVTZ
  Basis Set: (AUG-CC-PVTZ AUX)
    Blend: AUG-CC-PVTZ-JKFIT

    Orbital Energies [Eh]
    ---------------------

    Doubly Occupied:

       1A    -15.567584     2A    -15.547683     3A    -11.288748
       4A    -11.280269     5A    -11.275596     6A    -11.262447
       7A    -11.241661     8A    -11.240893     9A    -11.233587
      10A    -11.232762    11A    -11.232415    12A    -11.226782
      13A    -11.225068    14A    -11.219596    15A     -1.261055
      16A     -1.210606    17A     -1.131754    18A     -1.087885
      19A     -1.063032    20A     -1.015790    21A     -0.992256
      22A     -0.915592    23A     -0.870568    24A     -0.862099
      25A     -0.813697    26A     -0.783259    27A     -0.708742
      28A     -0.689826    29A     -0.681339    30A     -0.660316
      31A     -0.649917    32A     -0.612049    33A     -0.600591
      34A     -0.588884    35A     -0.580909    36A     -0.573744
      37A     -0.570087    38A     -0.548285    39A     -0.532315
      40A     -0.529457    41A     -0.513061    42A     -0.492934
      43A     -0.484941    44A     -0.435125    45A     -0.418867
      46A     -0.387609    47A     -0.366680    48A     -0.316569
      49A     -0.278626

  @DF-RHF Final Energy:  -570.50107643447313

   => Energetics <=

    Nuclear Repulsion Energy =            811.9046198286056324
    One-Electron Energy =               -2384.2042814281562642
    Two-Electron Energy =                1001.7985851650776112
    Total Energy =                       -570.5010764344731342
  Basis Set: (AUG-CC-PVTZ AUX)
    Blend: AUG-CC-PVTZ-RI
    Molecular point group: c1

    Geometry (in Angstrom), charge = 0, multiplicity = 1:

       Center              X                  Y                   Z               Mass
    ------------   -----------------  -----------------  -----------------  -----------------
         N            0.110116762368     2.511013651894    -0.390755782996    14.003074004430
         N           -1.870686237632     0.757998651894     0.623473217004    14.003074004430
         C            0.379949762368     0.102222651894    -0.005999782996    12.000000000000
         C            0.926058762368     1.398670651894    -0.165284782996    12.000000000000
         C            2.636298762368    -0.860814348106     0.118650217004    12.000000000000
         C            1.247328762368    -0.989434348106     0.159611217004    12.000000000000
         C           -1.077758237632    -0.143580348106    -0.003705782996    12.000000000000
         C            2.323244762368     1.523338651894    -0.227626782996    12.000000000000
         C            3.160673762368     0.423216651894    -0.075697782996    12.000000000000
         C            3.538506762368    -2.045323348106     0.347527217004    12.000000000000
         C           -1.611084237632    -1.284052348106    -0.627374782996    12.000000000000
         C           -2.980936237632    -1.522940348106    -0.564400782996    12.000000000000
         C           -3.192909237632     0.520582651894     0.662830217004    12.000000000000
         C           -3.793298237632    -0.605206348106     0.101061217004    12.000000000000
         H            0.813470762368    -1.973410348106     0.337016217004     1.007825032230
         H            2.762111362368     2.531252451894    -0.378061382996     1.007825032230
         H            4.239838762368     0.565397651894    -0.120411782996     1.007825032230
         H            3.858805762368    -2.109315348106     1.393474217004     1.007825032230
         H            3.029031762368    -2.980979348106     0.099041217004     1.007825032230
         H            4.439699762368    -1.977934348106    -0.269578782996     1.007825032230
         H           -0.954193237632    -1.959563348106    -1.167527782996     1.007825032230
         H            0.584890762368     3.389311651894    -0.207813782996     1.007825032230
         H           -0.770797237632     2.446133651894     0.113446217004     1.007825032230
         H           -3.409323237632    -2.401450348106    -1.041185782996     1.007825032230
         H           -3.791524237632     1.272150651894     1.175257217004     1.007825032230
         H           -4.867962237632    -0.747098348106     0.171685217004     1.007825032230

  Basis Set: AUG-CC-PVTZ
    Blend: AUG-CC-PVTZ
  Basis Set: (AUG-CC-PVTZ AUX)
    Blend: AUG-CC-PVTZ-JKFIT
	 Reference Energy          =    -570.5010764344731342 [Eh]
	 Singles Energy            =      -0.0000000000000000 [Eh]
	 Same-Spin Energy          =      -0.6408826715125651 [Eh]
	 Opposite-Spin Energy      =      -1.9778571515347225 [Eh]
	 Correlation Energy        =      -2.6187398230472878 [Eh]
	 Total Energy              =    -573.1198162575203696 [Eh]

	 ================> DF-SCS-MP2 Energies <==================
	-----------------------------------------------------------
	 SCS Same-Spin Scale       =       0.3333333333333333 [-]
	 SCS Opposite-Spin Scale   =       1.2000000000000000 [-]
	 SCS Same-Spin Energy      =      -0.2136275571708550 [Eh]
	 SCS Opposite-Spin Energy  =      -2.3734285818416669 [Eh]
	 SCS Correlation Energy    =      -2.5870561390125220 [Eh]
	 SCS Total Energy          =    -573.0881325734856091 [Eh]
	-----------------------------------------------------------

  Dipole Moment: [D]
     X:    -1.1015      Y:    -0.9738      Z:     0.0788     Total:     1.4723

*** Psi4 exiting successfully. Buy a developer a beer!
