                               Psi4 1.4a3.dev225

  ==> Input File <==

--------------------------------------------------------------------------
#psi4
#
memory 32 gb

molecule  {
0 1
  N        0.0801310     2.5312230    -0.3913130
  N       -1.9006720     0.7782080     0.6229160
  C        0.3533951     0.1006061    -0.0198811
  C        0.8960730     1.4188800    -0.1658420
  C        2.6063130    -0.8406050     0.1180930
  C        1.2173430    -0.9692250     0.1590540
  C       -1.1077440    -0.1233710    -0.0042630
  C        2.2932590     1.5435480    -0.2281840
  C        3.1306880     0.4434260    -0.0762550
  C        3.5085210    -2.0251140     0.3469700
  C       -1.6410700    -1.2638430    -0.6279320
  C       -3.0109220    -1.5027310    -0.5649580
  C       -3.2228950     0.5407920     0.6622730
  C       -3.8232840    -0.5849970     0.1005040
  H        0.7834850    -1.9532010     0.3364590
  H        2.7242150     2.5332940    -0.3759070
  H        4.2098530     0.5856070    -0.1209690
  H        3.8288200    -2.0891060     1.3929170
  H        2.9990460    -2.9607700     0.0984840
  H        4.4097140    -1.9577250    -0.2701360
  H       -0.9841790    -1.9393540    -1.1680850
  H        0.5549050     3.4095210    -0.2083710
  H       -0.8007830     2.4663430     0.1128890
  H       -3.4393090    -2.3812410    -1.0417430
  H       -3.8215100     1.2923600     1.1747000
  H       -4.8979480    -0.7268890     0.1711280
units angstrom
no_reorient  #important for SAPT in psi4, default
symmetry c1  #important for SAPT in psi4, default
}

set PROPERTIES_ORIGIN ["COM"]
properties('MP2/aug-cc-pvtz', properties = ['dipole'])
--------------------------------------------------------------------------

    Molecular point group: c1
  Charge       = 0
  Multiplicity = 1
  Basis Set: AUG-CC-PVTZ
    Blend: AUG-CC-PVTZ
  Basis Set: (AUG-CC-PVTZ AUX)
    Blend: AUG-CC-PVTZ-JKFIT

    Orbital Energies [Eh]
    ---------------------

    Doubly Occupied:

       1A    -15.568087     2A    -15.548637     3A    -11.288775
       4A    -11.280577     5A    -11.277221     6A    -11.262300
       7A    -11.241730     8A    -11.240494     9A    -11.233500
      10A    -11.232186    11A    -11.231356    12A    -11.226048
      13A    -11.221763    14A    -11.219224    15A     -1.261041
      16A     -1.210268    17A     -1.132710    18A     -1.087838
      19A     -1.063551    20A     -1.015421    21A     -0.993542
      22A     -0.914719    23A     -0.870346    24A     -0.862292
      25A     -0.812773    26A     -0.784683    27A     -0.709380
      28A     -0.689970    29A     -0.681341    30A     -0.660110
      31A     -0.651215    32A     -0.613359    33A     -0.601066
      34A     -0.588462    35A     -0.582790    36A     -0.573379
      37A     -0.569572    38A     -0.548220    39A     -0.532189
      40A     -0.529028    41A     -0.512893    42A     -0.494378
      43A     -0.483700    44A     -0.436136    45A     -0.418582
      46A     -0.387674    47A     -0.367263    48A     -0.317675
      49A     -0.276824

  @DF-RHF Final Energy:  -570.50101393570424

   => Energetics <=

    Nuclear Repulsion Energy =            811.9751552411494231
    One-Electron Energy =               -2384.3397609214634940
    Two-Electron Energy =                1001.8635917446098347
    Total Energy =                       -570.5010139357042362
  Basis Set: (AUG-CC-PVTZ AUX)
    Blend: AUG-CC-PVTZ-RI
    Molecular point group: c1

    Geometry (in Angstrom), charge = 0, multiplicity = 1:

       Center              X                  Y                   Z               Mass
    ------------   -----------------  -----------------  -----------------  -----------------
         N            0.109936421843     2.512535763192    -0.389902136389    14.003074004430
         N           -1.870866578157     0.759520763192     0.624326863611    14.003074004430
         C            0.383200521843     0.081918863192    -0.018470236389    12.000000000000
         C            0.925878421843     1.400192763192    -0.164431136389    12.000000000000
         C            2.636118421843    -0.859292236808     0.119503863611    12.000000000000
         C            1.247148421843    -0.987912236808     0.160464863611    12.000000000000
         C           -1.077938578157    -0.142058236808    -0.002852136389    12.000000000000
         C            2.323064421843     1.524860763192    -0.226773136389    12.000000000000
         C            3.160493421843     0.424738763192    -0.074844136389    12.000000000000
         C            3.538326421843    -2.043801236808     0.348380863611    12.000000000000
         C           -1.611264578157    -1.282530236808    -0.626521136389    12.000000000000
         C           -2.981116578157    -1.521418236808    -0.563547136389    12.000000000000
         C           -3.193089578157     0.522104763192     0.663683863611    12.000000000000
         C           -3.793478578157    -0.603684236808     0.101914863611    12.000000000000
         H            0.813290421843    -1.971888236808     0.337869863611     1.007825032230
         H            2.754020421843     2.514606763192    -0.374496136389     1.007825032230
         H            4.239658421843     0.566919763192    -0.119558136389     1.007825032230
         H            3.858625421843    -2.107793236808     1.394327863611     1.007825032230
         H            3.028851421843    -2.979457236808     0.099894863611     1.007825032230
         H            4.439519421843    -1.976412236808    -0.268725136389     1.007825032230
         H           -0.954373578157    -1.958041236808    -1.166674136389     1.007825032230
         H            0.584710421843     3.390833763192    -0.206960136389     1.007825032230
         H           -0.770977578157     2.447655763192     0.114299863611     1.007825032230
         H           -3.409503578157    -2.399928236808    -1.040332136389     1.007825032230
         H           -3.791704578157     1.273672763192     1.176110863611     1.007825032230
         H           -4.868142578157    -0.745576236808     0.172538863611     1.007825032230

  Basis Set: AUG-CC-PVTZ
    Blend: AUG-CC-PVTZ
  Basis Set: (AUG-CC-PVTZ AUX)
    Blend: AUG-CC-PVTZ-JKFIT
	 Reference Energy          =    -570.5010139357042362 [Eh]
	 Singles Energy            =      -0.0000000000000000 [Eh]
	 Same-Spin Energy          =      -0.6408566602314847 [Eh]
	 Opposite-Spin Energy      =      -1.9776801015248451 [Eh]
	 Correlation Energy        =      -2.6185367617563298 [Eh]
	 Total Energy              =    -573.1195506974605678 [Eh]

	 ================> DF-SCS-MP2 Energies <==================
	-----------------------------------------------------------
	 SCS Same-Spin Scale       =       0.3333333333333333 [-]
	 SCS Opposite-Spin Scale   =       1.2000000000000000 [-]
	 SCS Same-Spin Energy      =      -0.2136188867438282 [Eh]
	 SCS Opposite-Spin Energy  =      -2.3732161218298140 [Eh]
	 SCS Correlation Energy    =      -2.5868350085736420 [Eh]
	 SCS Total Energy          =    -573.0878489442778800 [Eh]
	-----------------------------------------------------------

  Dipole Moment: [D]
     X:    -1.1214      Y:    -0.9469      Z:     0.0786     Total:     1.4698

*** Psi4 exiting successfully. Buy a developer a beer!
