                               Psi4 1.4a3.dev225

  ==> Input File <==

--------------------------------------------------------------------------
#psi4
#
memory 32 gb

molecule  {
0 1
  N        0.0801310     2.5312230    -0.3913130
  N       -1.9006720     0.7782080     0.6229160
  C        0.3499640     0.1224320    -0.0065570
  C        0.8960730     1.4188800    -0.1658420
  C        2.6063130    -0.8406050     0.1180930
  C        1.2173430    -0.9692250     0.1590540
  C       -1.1077440    -0.1233710    -0.0042630
  C        2.2932590     1.5435480    -0.2281840
  C        3.1306880     0.4434260    -0.0762550
  C        3.5085210    -2.0251140     0.3469700
  C       -1.6410700    -1.2638430    -0.6279320
  C       -3.0109220    -1.5027310    -0.5649580
  C       -3.2228950     0.5407920     0.6622730
  C       -3.8232840    -0.5849970     0.1005040
  H        0.7834850    -1.9532010     0.3364590
  H        2.7242150     2.5332940    -0.3759070
  H        4.2098530     0.5856070    -0.1209690
  H        3.8288200    -2.0891060     1.3929170
  H        2.9990460    -2.9607700     0.0984840
  H        4.4097140    -1.9577250    -0.2701360
  H       -0.9841790    -1.9393540    -1.1680850
  H        0.5549050     3.4095210    -0.2083710
  H       -0.8007830     2.4663430     0.1128890
  H       -3.4196127    -2.3408491    -1.0198215
  H       -3.8215100     1.2923600     1.1747000
  H       -4.8979480    -0.7268890     0.1711280
units angstrom
no_reorient  #important for SAPT in psi4, default
symmetry c1  #important for SAPT in psi4, default
}

set PROPERTIES_ORIGIN ["COM"]
properties('MP2/aug-cc-pvtz', properties = ['dipole'])
--------------------------------------------------------------------------

    Molecular point group: c1
  Charge       = 0
  Multiplicity = 1
  Basis Set: AUG-CC-PVTZ
    Blend: AUG-CC-PVTZ
  Basis Set: (AUG-CC-PVTZ AUX)
    Blend: AUG-CC-PVTZ-JKFIT

    Orbital Energies [Eh]
    ---------------------

    Doubly Occupied:

       1A    -15.567423     2A    -15.547635     3A    -11.288394
       4A    -11.279938     5A    -11.275273     6A    -11.256608
       7A    -11.241240     8A    -11.240479     9A    -11.233364
      10A    -11.232465    11A    -11.232174    12A    -11.226557
      13A    -11.222633    14A    -11.219458    15A     -1.260824
      16A     -1.210548    17A     -1.131584    18A     -1.089349
      19A     -1.062830    20A     -1.016050    21A     -0.992219
      22A     -0.915463    23A     -0.870936    24A     -0.865132
      25A     -0.814851    26A     -0.785115    27A     -0.711570
      28A     -0.689991    29A     -0.681582    30A     -0.660619
      31A     -0.650115    32A     -0.614533    33A     -0.600519
      34A     -0.590616    35A     -0.581943    36A     -0.577238
      37A     -0.570910    38A     -0.548135    39A     -0.532064
      40A     -0.529236    41A     -0.512884    42A     -0.492809
      43A     -0.485622    44A     -0.435017    45A     -0.418975
      46A     -0.387400    47A     -0.366410    48A     -0.316343
      49A     -0.278426

  @DF-RHF Final Energy:  -570.50094335844415

   => Energetics <=

    Nuclear Repulsion Energy =            812.2876558627181112
    One-Electron Energy =               -2384.9542009352121568
    Two-Electron Energy =                1002.1656017140498989
    Total Energy =                       -570.5009433584441467
  Basis Set: (AUG-CC-PVTZ AUX)
    Blend: AUG-CC-PVTZ-RI
    Molecular point group: c1

    Geometry (in Angstrom), charge = 0, multiplicity = 1:

       Center              X                  Y                   Z               Mass
    ------------   -----------------  -----------------  -----------------  -----------------
         N            0.110052243517     2.510891989762    -0.390890632796    14.003074004430
         N           -1.870750756483     0.757876989762     0.623338367204    14.003074004430
         C            0.379885243517     0.102100989762    -0.006134632796    12.000000000000
         C            0.925994243517     1.398548989762    -0.165419632796    12.000000000000
         C            2.636234243517    -0.860936010238     0.118515367204    12.000000000000
         C            1.247264243517    -0.989556010238     0.159476367204    12.000000000000
         C           -1.077822756483    -0.143702010238    -0.003840632796    12.000000000000
         C            2.323180243517     1.523216989762    -0.227761632796    12.000000000000
         C            3.160609243517     0.423094989762    -0.075832632796    12.000000000000
         C            3.538442243517    -2.045445010238     0.347392367204    12.000000000000
         C           -1.611148756483    -1.284174010238    -0.627509632796    12.000000000000
         C           -2.981000756483    -1.523062010238    -0.564535632796    12.000000000000
         C           -3.192973756483     0.520460989762     0.662695367204    12.000000000000
         C           -3.793362756483    -0.605328010238     0.100926367204    12.000000000000
         H            0.813406243517    -1.973532010238     0.336881367204     1.007825032230
         H            2.754136243517     2.512962989762    -0.375484632796     1.007825032230
         H            4.239774243517     0.565275989762    -0.120546632796     1.007825032230
         H            3.858741243517    -2.109437010238     1.393339367204     1.007825032230
         H            3.028967243517    -2.981101010238     0.098906367204     1.007825032230
         H            4.439635243517    -1.978056010238    -0.269713632796     1.007825032230
         H           -0.954257756483    -1.959685010238    -1.167662632796     1.007825032230
         H            0.584826243517     3.389189989762    -0.207948632796     1.007825032230
         H           -0.770861756483     2.446011989762     0.113311367204     1.007825032230
         H           -3.389691456483    -2.361180110238    -1.019399132796     1.007825032230
         H           -3.791588756483     1.272028989762     1.175122367204     1.007825032230
         H           -4.868026756483    -0.747220010238     0.171550367204     1.007825032230

  Basis Set: AUG-CC-PVTZ
    Blend: AUG-CC-PVTZ
  Basis Set: (AUG-CC-PVTZ AUX)
    Blend: AUG-CC-PVTZ-JKFIT
	 Reference Energy          =    -570.5009433584441467 [Eh]
	 Singles Energy            =      -0.0000000000000000 [Eh]
	 Same-Spin Energy          =      -0.6407573376407474 [Eh]
	 Opposite-Spin Energy      =      -1.9773876372792818 [Eh]
	 Correlation Energy        =      -2.6181449749200292 [Eh]
	 Total Energy              =    -573.1190883333641750 [Eh]

	 ================> DF-SCS-MP2 Energies <==================
	-----------------------------------------------------------
	 SCS Same-Spin Scale       =       0.3333333333333333 [-]
	 SCS Opposite-Spin Scale   =       1.2000000000000000 [-]
	 SCS Same-Spin Energy      =      -0.2135857792135825 [Eh]
	 SCS Opposite-Spin Energy  =      -2.3728651647351380 [Eh]
	 SCS Correlation Energy    =      -2.5864509439487202 [Eh]
	 SCS Total Energy          =    -573.0873943023929087 [Eh]
	-----------------------------------------------------------

  Dipole Moment: [D]
     X:    -1.1073      Y:    -0.9747      Z:     0.0722     Total:     1.4770

*** Psi4 exiting successfully. Buy a developer a beer!
