                               Psi4 1.4a3.dev225

  ==> Input File <==

--------------------------------------------------------------------------
#psi4
#
memory 32 gb

molecule  {
0 1
  N        0.0801310     2.5312230    -0.3913130
  N       -1.9006720     0.7782080     0.6229160
  C        0.3499640     0.1224320    -0.0065570
  C        0.8960730     1.4188800    -0.1658420
  C        2.6063130    -0.8406050     0.1180930
  C        1.2173430    -0.9692250     0.1590540
  C       -1.1077440    -0.1233710    -0.0042630
  C        2.2932590     1.5435480    -0.2281840
  C        3.1306880     0.4434260    -0.0762550
  C        3.5085210    -2.0251140     0.3469700
  C       -1.7169873    -1.4261857    -0.7167094
  C       -3.0109220    -1.5027310    -0.5649580
  C       -3.2228950     0.5407920     0.6622730
  C       -3.8232840    -0.5849970     0.1005040
  H        0.7834850    -1.9532010     0.3364590
  H        2.7242150     2.5332940    -0.3759070
  H        4.2098530     0.5856070    -0.1209690
  H        3.8288200    -2.0891060     1.3929170
  H        2.9990460    -2.9607700     0.0984840
  H        4.4097140    -1.9577250    -0.2701360
  H       -0.9841790    -1.9393540    -1.1680850
  H        0.5549050     3.4095210    -0.2083710
  H       -0.8007830     2.4663430     0.1128890
  H       -3.4393090    -2.3812410    -1.0417430
  H       -3.8215100     1.2923600     1.1747000
  H       -4.8979480    -0.7268890     0.1711280
units angstrom
no_reorient  #important for SAPT in psi4, default
symmetry c1  #important for SAPT in psi4, default
}

set PROPERTIES_ORIGIN ["COM"]
properties('MP2/aug-cc-pvtz', properties = ['dipole'])
--------------------------------------------------------------------------

    Molecular point group: c1
  Charge       = 0
  Multiplicity = 1
  Basis Set: AUG-CC-PVTZ
    Blend: AUG-CC-PVTZ
  Basis Set: (AUG-CC-PVTZ AUX)
    Blend: AUG-CC-PVTZ-JKFIT

    Orbital Energies [Eh]
    ---------------------

    Doubly Occupied:

       1A    -15.566490     2A    -15.550302     3A    -11.308986
       4A    -11.279976     5A    -11.276915     6A    -11.248015
       7A    -11.243455     8A    -11.238009     9A    -11.236774
      10A    -11.236697    11A    -11.236659    12A    -11.230052
      13A    -11.226037    14A    -11.221949    15A     -1.254795
      16A     -1.212892    17A     -1.134689    18A     -1.097830
      19A     -1.055403    20A     -1.019067    21A     -0.991593
      22A     -0.918865    23A     -0.879770    24A     -0.848216
      25A     -0.818907    26A     -0.779633    27A     -0.710106
      28A     -0.692156    29A     -0.686917    30A     -0.680203
      31A     -0.644134    32A     -0.608391    33A     -0.604784
      34A     -0.589113    35A     -0.585628    36A     -0.574187
      37A     -0.551870    38A     -0.549348    39A     -0.540548
      40A     -0.532074    41A     -0.514473    42A     -0.497718
      43A     -0.489233    44A     -0.437501    45A     -0.405844
      46A     -0.400897    47A     -0.359652    48A     -0.312681
      49A     -0.279564

  @DF-RHF Final Energy:  -570.46206168986066

   => Energetics <=

    Nuclear Repulsion Energy =            808.9261343343157478
    One-Electron Energy =               -2378.0584008917976462
    Two-Electron Energy =                 998.6702048676212371
    Total Energy =                       -570.4620616898606613
  Basis Set: (AUG-CC-PVTZ AUX)
    Blend: AUG-CC-PVTZ-RI
    Molecular point group: c1

    Geometry (in Angstrom), charge = 0, multiplicity = 1:

       Center              X                  Y                   Z               Mass
    ------------   -----------------  -----------------  -----------------  -----------------
         N            0.115108505220     2.521694922109    -0.384983943222    14.003074004430
         N           -1.865694494780     0.768679922109     0.629245056778    14.003074004430
         C            0.384941505220     0.112903922109    -0.000227943222    12.000000000000
         C            0.931050505220     1.409351922109    -0.159512943222    12.000000000000
         C            2.641290505220    -0.850133077891     0.124422056778    12.000000000000
         C            1.252320505220    -0.978753077891     0.165383056778    12.000000000000
         C           -1.072766494780    -0.132899077891     0.002066056778    12.000000000000
         C            2.328236505220     1.534019922109    -0.221854943222    12.000000000000
         C            3.165665505220     0.433897922109    -0.069925943222    12.000000000000
         C            3.543498505220    -2.034642077891     0.353299056778    12.000000000000
         C           -1.682009794780    -1.435713777891    -0.710380343222    12.000000000000
         C           -2.975944494780    -1.512259077891    -0.558628943222    12.000000000000
         C           -3.187917494780     0.531263922109     0.668602056778    12.000000000000
         C           -3.788306494780    -0.594525077891     0.106833056778    12.000000000000
         H            0.818462505220    -1.962729077891     0.342788056778     1.007825032230
         H            2.759192505220     2.523765922109    -0.369577943222     1.007825032230
         H            4.244830505220     0.576078922109    -0.114639943222     1.007825032230
         H            3.863797505220    -2.098634077891     1.399246056778     1.007825032230
         H            3.034023505220    -2.970298077891     0.104813056778     1.007825032230
         H            4.444691505220    -1.967253077891    -0.263806943222     1.007825032230
         H           -0.949201494780    -1.948882077891    -1.161755943222     1.007825032230
         H            0.589882505220     3.399992922109    -0.202041943222     1.007825032230
         H           -0.765805494780     2.456814922109     0.119218056778     1.007825032230
         H           -3.404331494780    -2.390769077891    -1.035413943222     1.007825032230
         H           -3.786532494780     1.282831922109     1.181029056778     1.007825032230
         H           -4.862970494780    -0.736417077891     0.177457056778     1.007825032230

  Basis Set: AUG-CC-PVTZ
    Blend: AUG-CC-PVTZ
  Basis Set: (AUG-CC-PVTZ AUX)
    Blend: AUG-CC-PVTZ-JKFIT
	 Reference Energy          =    -570.4620616898606613 [Eh]
	 Singles Energy            =      -0.0000000000000000 [Eh]
	 Same-Spin Energy          =      -0.6401444521672234 [Eh]
	 Opposite-Spin Energy      =      -1.9790322262231401 [Eh]
	 Correlation Energy        =      -2.6191766783903634 [Eh]
	 Total Energy              =    -573.0812383682509790 [Eh]

	 ================> DF-SCS-MP2 Energies <==================
	-----------------------------------------------------------
	 SCS Same-Spin Scale       =       0.3333333333333333 [-]
	 SCS Opposite-Spin Scale   =       1.2000000000000000 [-]
	 SCS Same-Spin Energy      =      -0.2133814840557411 [Eh]
	 SCS Opposite-Spin Energy  =      -2.3748386714677681 [Eh]
	 SCS Correlation Energy    =      -2.5882201555235094 [Eh]
	 SCS Total Energy          =    -573.0502818453841201 [Eh]
	-----------------------------------------------------------

  Dipole Moment: [D]
     X:    -0.7543      Y:    -0.8407      Z:     0.0915     Total:     1.1331

*** Psi4 exiting successfully. Buy a developer a beer!
