                               Psi4 1.4a3.dev225

  ==> Input File <==

--------------------------------------------------------------------------
#psi4
#
memory 32 gb

molecule  {
0 1
  N        0.0801310     2.5312230    -0.3913130
  N       -1.9006720     0.7782080     0.6229160
  C        0.3499640     0.1224320    -0.0065570
  C        0.8960730     1.4188800    -0.1658420
  C        2.6063130    -0.8406050     0.1180930
  C        1.2173430    -0.9692250     0.1590540
  C       -1.1077440    -0.1233710    -0.0042630
  C        2.2932590     1.5435480    -0.2281840
  C        3.1306880     0.4434260    -0.0762550
  C        3.5085210    -2.0251140     0.3469700
  C       -1.6410700    -1.2638430    -0.6279320
  C       -3.0109220    -1.5027310    -0.5649580
  C       -3.2228950     0.5407920     0.6622730
  C       -3.8232840    -0.5849970     0.1005040
  H        0.7038718    -2.1337612     0.3690129
  H        2.7242150     2.5332940    -0.3759070
  H        4.2098530     0.5856070    -0.1209690
  H        3.8288200    -2.0891060     1.3929170
  H        2.9990460    -2.9607700     0.0984840
  H        4.4097140    -1.9577250    -0.2701360
  H       -0.9841790    -1.9393540    -1.1680850
  H        0.5549050     3.4095210    -0.2083710
  H       -0.8007830     2.4663430     0.1128890
  H       -3.4393090    -2.3812410    -1.0417430
  H       -3.8215100     1.2923600     1.1747000
  H       -4.8979480    -0.7268890     0.1711280
units angstrom
no_reorient  #important for SAPT in psi4, default
symmetry c1  #important for SAPT in psi4, default
}

set PROPERTIES_ORIGIN ["COM"]
properties('MP2/aug-cc-pvtz', properties = ['dipole'])
--------------------------------------------------------------------------

    Molecular point group: c1
  Charge       = 0
  Multiplicity = 1
  Basis Set: AUG-CC-PVTZ
    Blend: AUG-CC-PVTZ
  Basis Set: (AUG-CC-PVTZ AUX)
    Blend: AUG-CC-PVTZ-JKFIT

    Orbital Energies [Eh]
    ---------------------

    Doubly Occupied:

       1A    -15.567583     2A    -15.548791     3A    -11.288700
       4A    -11.279859     5A    -11.277277     6A    -11.261854
       7A    -11.254578     8A    -11.241431     9A    -11.240307
      10A    -11.235408    11A    -11.234468    12A    -11.229171
      13A    -11.223922    14A    -11.219428    15A     -1.260971
      16A     -1.211763    17A     -1.131778    18A     -1.087501
      19A     -1.063208    20A     -1.015881    21A     -0.990914
      22A     -0.914496    23A     -0.869399    24A     -0.861827
      25A     -0.809255    26A     -0.782812    27A     -0.708734
      28A     -0.690591    29A     -0.672614    30A     -0.660108
      31A     -0.648560    32A     -0.612935    33A     -0.600513
      34A     -0.589411    35A     -0.574008    36A     -0.570555
      37A     -0.568201    38A     -0.546652    39A     -0.529711
      40A     -0.525394    41A     -0.513563    42A     -0.493269
      43A     -0.476016    44A     -0.436321    45A     -0.418833
      46A     -0.387379    47A     -0.366560    48A     -0.317467
      49A     -0.279836

  @DF-RHF Final Energy:  -570.47921838288744

   => Energetics <=

    Nuclear Repulsion Energy =            811.0873826861534326
    One-Electron Energy =               -2382.5535764423557339
    Two-Electron Energy =                1000.9869753733148627
    Total Energy =                       -570.4792183828874386
  Basis Set: (AUG-CC-PVTZ AUX)
    Blend: AUG-CC-PVTZ-RI
    Molecular point group: c1

    Geometry (in Angstrom), charge = 0, multiplicity = 1:

       Center              X                  Y                   Z               Mass
    ------------   -----------------  -----------------  -----------------  -----------------
         N            0.110595896824     2.512101555209    -0.390948838098    14.003074004430
         N           -1.870207103176     0.759086555209     0.623280161902    14.003074004430
         C            0.380428896824     0.103310555209    -0.006192838098    12.000000000000
         C            0.926537896824     1.399758555209    -0.165477838098    12.000000000000
         C            2.636777896824    -0.859726444791     0.118457161902    12.000000000000
         C            1.247807896824    -0.988346444791     0.159418161902    12.000000000000
         C           -1.077279103176    -0.142492444791    -0.003898838098    12.000000000000
         C            2.323723896824     1.524426555209    -0.227819838098    12.000000000000
         C            3.161152896824     0.424304555209    -0.075890838098    12.000000000000
         C            3.538985896824    -2.044235444791     0.347334161902    12.000000000000
         C           -1.610605103176    -1.282964444791    -0.627567838098    12.000000000000
         C           -2.980457103176    -1.521852444791    -0.564593838098    12.000000000000
         C           -3.192430103176     0.521670555209     0.662637161902    12.000000000000
         C           -3.792819103176    -0.604118444791     0.100868161902    12.000000000000
         H            0.734336696824    -2.152882644791     0.369377061902     1.007825032230
         H            2.754679896824     2.514172555209    -0.375542838098     1.007825032230
         H            4.240317896824     0.566485555209    -0.120604838098     1.007825032230
         H            3.859284896824    -2.108227444791     1.393281161902     1.007825032230
         H            3.029510896824    -2.979891444791     0.098848161902     1.007825032230
         H            4.440178896824    -1.976846444791    -0.269771838098     1.007825032230
         H           -0.953714103176    -1.958475444791    -1.167720838098     1.007825032230
         H            0.585369896824     3.390399555209    -0.208006838098     1.007825032230
         H           -0.770318103176     2.447221555209     0.113253161902     1.007825032230
         H           -3.408844103176    -2.400362444791    -1.041378838098     1.007825032230
         H           -3.791045103176     1.273238555209     1.175064161902     1.007825032230
         H           -4.867483103176    -0.746010444791     0.171492161902     1.007825032230

  Basis Set: AUG-CC-PVTZ
    Blend: AUG-CC-PVTZ
  Basis Set: (AUG-CC-PVTZ AUX)
    Blend: AUG-CC-PVTZ-JKFIT
	 Reference Energy          =    -570.4792183828874386 [Eh]
	 Singles Energy            =      -0.0000000000000000 [Eh]
	 Same-Spin Energy          =      -0.6417037039877294 [Eh]
	 Opposite-Spin Energy      =      -1.9802723044692494 [Eh]
	 Correlation Energy        =      -2.6219760084569788 [Eh]
	 Total Energy              =    -573.1011943913443929 [Eh]

	 ================> DF-SCS-MP2 Energies <==================
	-----------------------------------------------------------
	 SCS Same-Spin Scale       =       0.3333333333333333 [-]
	 SCS Opposite-Spin Scale   =       1.2000000000000000 [-]
	 SCS Same-Spin Energy      =      -0.2139012346625764 [Eh]
	 SCS Opposite-Spin Energy  =      -2.3763267653630993 [Eh]
	 SCS Correlation Energy    =      -2.5902280000256757 [Eh]
	 SCS Total Energy          =    -573.0694463829131564 [Eh]
	-----------------------------------------------------------

  Dipole Moment: [D]
     X:    -1.0494      Y:    -0.8608      Z:     0.0563     Total:     1.3585

*** Psi4 exiting successfully. Buy a developer a beer!
