                               Psi4 1.4a3.dev225

  ==> Input File <==

--------------------------------------------------------------------------
#psi4
#
memory 32 gb

molecule  {
0 1
  N        0.0801310     2.5312230    -0.3913130
  N       -1.9006720     0.7782080     0.6229160
  C        0.3318119     0.2089209     0.0467056
  C        0.8960730     1.4188800    -0.1658420
  C        2.6063130    -0.8406050     0.1180930
  C        1.2173430    -0.9692250     0.1590540
  C       -1.1077440    -0.1233710    -0.0042630
  C        2.2932590     1.5435480    -0.2281840
  C        3.1306880     0.4434260    -0.0762550
  C        3.5085210    -2.0251140     0.3469700
  C       -1.6410700    -1.2638430    -0.6279320
  C       -3.0109220    -1.5027310    -0.5649580
  C       -3.2228950     0.5407920     0.6622730
  C       -3.8232840    -0.5849970     0.1005040
  H        0.7834850    -1.9532010     0.3364590
  H        2.7242150     2.5332940    -0.3759070
  H        4.2098530     0.5856070    -0.1209690
  H        3.8288200    -2.0891060     1.3929170
  H        2.9990460    -2.9607700     0.0984840
  H        4.4097140    -1.9577250    -0.2701360
  H       -0.9841790    -1.9393540    -1.1680850
  H        0.5549050     3.4095210    -0.2083710
  H       -0.8007830     2.4663430     0.1128890
  H       -3.4393090    -2.3812410    -1.0417430
  H       -3.8215100     1.2923600     1.1747000
  H       -4.8979480    -0.7268890     0.1711280
units angstrom
no_reorient  #important for SAPT in psi4, default
symmetry c1  #important for SAPT in psi4, default
}

set PROPERTIES_ORIGIN ["COM"]
properties('MP2/aug-cc-pvtz', properties = ['dipole'])
--------------------------------------------------------------------------

    Molecular point group: c1
  Charge       = 0
  Multiplicity = 1
  Basis Set: AUG-CC-PVTZ
    Blend: AUG-CC-PVTZ
  Basis Set: (AUG-CC-PVTZ AUX)
    Blend: AUG-CC-PVTZ-JKFIT

    Orbital Energies [Eh]
    ---------------------

    Doubly Occupied:

       1A    -15.565495     2A    -15.543799     3A    -11.288789
       4A    -11.278936     5A    -11.267675     6A    -11.262929
       7A    -11.242348     8A    -11.241273     9A    -11.238155
      10A    -11.234340    11A    -11.230622    12A    -11.228776
      13A    -11.226198    14A    -11.220564    15A     -1.261172
      16A     -1.212416    17A     -1.127903    18A     -1.088048
      19A     -1.061171    20A     -1.018859    21A     -0.988614
      22A     -0.917967    23A     -0.871823    24A     -0.861268
      25A     -0.822086    26A     -0.778386    27A     -0.707455
      28A     -0.688684    29A     -0.681456    30A     -0.662211
      31A     -0.646686    32A     -0.614355    33A     -0.599151
      34A     -0.592461    35A     -0.577939    36A     -0.573411
      37A     -0.571380    38A     -0.548480    39A     -0.532821
      40A     -0.530363    41A     -0.513565    42A     -0.492513
      43A     -0.483911    44A     -0.430932    45A     -0.419415
      46A     -0.387201    47A     -0.364375    48A     -0.311812
      49A     -0.285708

  @DF-RHF Final Energy:  -570.49254549365617

   => Energetics <=

    Nuclear Repulsion Energy =            812.1405118004922770
    One-Electron Energy =               -2384.6743206058399664
    Two-Electron Energy =                1002.0412633116915231
    Total Energy =                       -570.4925454936561664
  Basis Set: (AUG-CC-PVTZ AUX)
    Blend: AUG-CC-PVTZ-RI
    Molecular point group: c1

    Geometry (in Angstrom), charge = 0, multiplicity = 1:

       Center              X                  Y                   Z               Mass
    ------------   -----------------  -----------------  -----------------  -----------------
         N            0.111343256889     2.505475593402    -0.394242387285    14.003074004430
         N           -1.869459743111     0.752460593402     0.619986612715    14.003074004430
         C            0.363024156889     0.183173493402     0.043776212715    12.000000000000
         C            0.927285256889     1.393132593402    -0.168771387285    12.000000000000
         C            2.637525256889    -0.866352406598     0.115163612715    12.000000000000
         C            1.248555256889    -0.994972406598     0.156124612715    12.000000000000
         C           -1.076531743111    -0.149118406598    -0.007192387285    12.000000000000
         C            2.324471256889     1.517800593402    -0.231113387285    12.000000000000
         C            3.161900256889     0.417678593402    -0.079184387285    12.000000000000
         C            3.539733256889    -2.050861406598     0.344040612715    12.000000000000
         C           -1.609857743111    -1.289590406598    -0.630861387285    12.000000000000
         C           -2.979709743111    -1.528478406598    -0.567887387285    12.000000000000
         C           -3.191682743111     0.515044593402     0.659343612715    12.000000000000
         C           -3.792071743111    -0.610744406598     0.097574612715    12.000000000000
         H            0.814697256889    -1.978948406598     0.333529612715     1.007825032230
         H            2.755427256889     2.507546593402    -0.378836387285     1.007825032230
         H            4.241065256889     0.559859593402    -0.123898387285     1.007825032230
         H            3.860032256889    -2.114853406598     1.389987612715     1.007825032230
         H            3.030258256889    -2.986517406598     0.095554612715     1.007825032230
         H            4.440926256889    -1.983472406598    -0.273065387285     1.007825032230
         H           -0.952966743111    -1.965101406598    -1.171014387285     1.007825032230
         H            0.586117256889     3.383773593402    -0.211300387285     1.007825032230
         H           -0.769570743111     2.440595593402     0.109959612715     1.007825032230
         H           -3.408096743111    -2.406988406598    -1.044672387285     1.007825032230
         H           -3.790297743111     1.266612593402     1.171770612715     1.007825032230
         H           -4.866735743111    -0.752636406598     0.168198612715     1.007825032230

  Basis Set: AUG-CC-PVTZ
    Blend: AUG-CC-PVTZ
  Basis Set: (AUG-CC-PVTZ AUX)
    Blend: AUG-CC-PVTZ-JKFIT
	 Reference Energy          =    -570.4925454936561664 [Eh]
	 Singles Energy            =      -0.0000000000000000 [Eh]
	 Same-Spin Energy          =      -0.6406681410303178 [Eh]
	 Opposite-Spin Energy      =      -1.9783372911174313 [Eh]
	 Correlation Energy        =      -2.6190054321477492 [Eh]
	 Total Energy              =    -573.1115509258039538 [Eh]

	 ================> DF-SCS-MP2 Energies <==================
	-----------------------------------------------------------
	 SCS Same-Spin Scale       =       0.3333333333333333 [-]
	 SCS Opposite-Spin Scale   =       1.2000000000000000 [-]
	 SCS Same-Spin Energy      =      -0.2135560470101059 [Eh]
	 SCS Opposite-Spin Energy  =      -2.3740047493409175 [Eh]
	 SCS Correlation Energy    =      -2.5875607963510237 [Eh]
	 SCS Total Energy          =    -573.0801062900071656 [Eh]
	-----------------------------------------------------------

  Dipole Moment: [D]
     X:    -0.9959      Y:    -1.0420      Z:     0.0737     Total:     1.4433

*** Psi4 exiting successfully. Buy a developer a beer!
