                               Psi4 1.4a3.dev225

  ==> Input File <==

--------------------------------------------------------------------------
#psi4
#
memory 32 gb

molecule  {
0 1
  N        0.0801310     2.5312230    -0.3913130
  N       -1.9006720     0.7782080     0.6229160
  C        0.3499640     0.1224320    -0.0065570
  C        0.8960730     1.4188800    -0.1658420
  C        2.6063130    -0.8406050     0.1180930
  C        1.2173430    -0.9692250     0.1590540
  C       -1.1077440    -0.1233710    -0.0042630
  C        2.2932590     1.5435480    -0.2281840
  C        3.1306880     0.4434260    -0.0762550
  C        3.5204988    -2.0408397     0.3500086
  C       -1.6410700    -1.2638430    -0.6279320
  C       -3.0109220    -1.5027310    -0.5649580
  C       -3.2228950     0.5407920     0.6622730
  C       -3.8232840    -0.5849970     0.1005040
  H        0.7834850    -1.9532010     0.3364590
  H        2.7242150     2.5332940    -0.3759070
  H        4.2098530     0.5856070    -0.1209690
  H        3.8288200    -2.0891060     1.3929170
  H        2.9990460    -2.9607700     0.0984840
  H        4.4097140    -1.9577250    -0.2701360
  H       -0.9841790    -1.9393540    -1.1680850
  H        0.5549050     3.4095210    -0.2083710
  H       -0.8007830     2.4663430     0.1128890
  H       -3.4393090    -2.3812410    -1.0417430
  H       -3.8215100     1.2923600     1.1747000
  H       -4.8979480    -0.7268890     0.1711280
units angstrom
no_reorient  #important for SAPT in psi4, default
symmetry c1  #important for SAPT in psi4, default
}

set PROPERTIES_ORIGIN ["COM"]
properties('MP2/aug-cc-pvtz', properties = ['dipole'])
--------------------------------------------------------------------------

    Molecular point group: c1
  Charge       = 0
  Multiplicity = 1
  Basis Set: AUG-CC-PVTZ
    Blend: AUG-CC-PVTZ
  Basis Set: (AUG-CC-PVTZ AUX)
    Blend: AUG-CC-PVTZ-JKFIT

    Orbital Energies [Eh]
    ---------------------

    Doubly Occupied:

       1A    -15.567480     2A    -15.547617     3A    -11.288622
       4A    -11.280184     5A    -11.275260     6A    -11.262361
       7A    -11.241569     8A    -11.240786     9A    -11.233414
      10A    -11.232507    11A    -11.232222    12A    -11.227499
      13A    -11.222612    14A    -11.218932    15A     -1.260950
      16A     -1.210525    17A     -1.130792    18A     -1.087793
      19A     -1.062575    20A     -1.014546    21A     -0.992188
      22A     -0.916504    23A     -0.870386    24A     -0.862102
      25A     -0.814502    26A     -0.783405    27A     -0.708658
      28A     -0.689497    29A     -0.681295    30A     -0.660332
      31A     -0.649823    32A     -0.612342    33A     -0.600565
      34A     -0.588728    35A     -0.581438    36A     -0.574592
      37A     -0.570951    38A     -0.548548    39A     -0.534165
      40A     -0.530046    41A     -0.513080    42A     -0.489816
      43A     -0.485842    44A     -0.435500    45A     -0.418816
      46A     -0.387523    47A     -0.366565    48A     -0.316417
      49A     -0.278710

  @DF-RHF Final Energy:  -570.50164487280097

   => Energetics <=

    Nuclear Repulsion Energy =            811.6465942381254308
    One-Electron Energy =               -2383.6953057789146442
    Two-Electron Energy =                1001.5470666679881333
    Total Energy =                       -570.5016448728009664
  Basis Set: (AUG-CC-PVTZ AUX)
    Blend: AUG-CC-PVTZ-RI
    Molecular point group: c1

    Geometry (in Angstrom), charge = 0, multiplicity = 1:

       Center              X                  Y                   Z               Mass
    ------------   -----------------  -----------------  -----------------  -----------------
         N            0.109379331278     2.512138140265    -0.390968689069    14.003074004430
         N           -1.871423668722     0.759123140265     0.623260310931    14.003074004430
         C            0.379212331278     0.103347140265    -0.006212689069    12.000000000000
         C            0.925321331278     1.399795140265    -0.165497689069    12.000000000000
         C            2.635561331278    -0.859689859735     0.118437310931    12.000000000000
         C            1.246591331278    -0.988309859735     0.159398310931    12.000000000000
         C           -1.078495668722    -0.142455859735    -0.003918689069    12.000000000000
         C            2.322507331278     1.524463140265    -0.227839689069    12.000000000000
         C            3.159936331278     0.424341140265    -0.075910689069    12.000000000000
         C            3.549747131278    -2.059924559735     0.350352910931    12.000000000000
         C           -1.611821668722    -1.282927859735    -0.627587689069    12.000000000000
         C           -2.981673668722    -1.521815859735    -0.564613689069    12.000000000000
         C           -3.193646668722     0.521707140265     0.662617310931    12.000000000000
         C           -3.794035668722    -0.604081859735     0.100848310931    12.000000000000
         H            0.812733331278    -1.972285859735     0.336803310931     1.007825032230
         H            2.753463331278     2.514209140265    -0.375562689069     1.007825032230
         H            4.239101331278     0.566522140265    -0.120624689069     1.007825032230
         H            3.858068331278    -2.108190859735     1.393261310931     1.007825032230
         H            3.028294331278    -2.979854859735     0.098828310931     1.007825032230
         H            4.438962331278    -1.976809859735    -0.269791689069     1.007825032230
         H           -0.954930668722    -1.958438859735    -1.167740689069     1.007825032230
         H            0.584153331278     3.390436140265    -0.208026689069     1.007825032230
         H           -0.771534668722     2.447258140265     0.113233310931     1.007825032230
         H           -3.410060668722    -2.400325859735    -1.041398689069     1.007825032230
         H           -3.792261668722     1.273275140265     1.175044310931     1.007825032230
         H           -4.868699668722    -0.745973859735     0.171472310931     1.007825032230

  Basis Set: AUG-CC-PVTZ
    Blend: AUG-CC-PVTZ
  Basis Set: (AUG-CC-PVTZ AUX)
    Blend: AUG-CC-PVTZ-JKFIT
	 Reference Energy          =    -570.5016448728009664 [Eh]
	 Singles Energy            =      -0.0000000000000000 [Eh]
	 Same-Spin Energy          =      -0.6406884733828959 [Eh]
	 Opposite-Spin Energy      =      -1.9775778316155366 [Eh]
	 Correlation Energy        =      -2.6182663049984325 [Eh]
	 Total Energy              =    -573.1199111777993949 [Eh]

	 ================> DF-SCS-MP2 Energies <==================
	-----------------------------------------------------------
	 SCS Same-Spin Scale       =       0.3333333333333333 [-]
	 SCS Opposite-Spin Scale   =       1.2000000000000000 [-]
	 SCS Same-Spin Energy      =      -0.2135628244609653 [Eh]
	 SCS Opposite-Spin Energy  =      -2.3730933979386437 [Eh]
	 SCS Correlation Energy    =      -2.5866562223996090 [Eh]
	 SCS Total Energy          =    -573.0883010952005634 [Eh]
	-----------------------------------------------------------

  Dipole Moment: [D]
     X:    -1.0940      Y:    -0.9661      Z:     0.0781     Total:     1.4616

*** Psi4 exiting successfully. Buy a developer a beer!
