                               Psi4 1.4a3.dev225

  ==> Input File <==

--------------------------------------------------------------------------
#psi4
#
memory 32 gb

molecule  {
0 1
  N        0.0801310     2.5312230    -0.3913130
  N       -1.9006720     0.7782080     0.6229160
  C        0.3638580    -0.0094134    -0.0863489
  C        0.8960730     1.4188800    -0.1658420
  C        2.6063130    -0.8406050     0.1180930
  C        1.2173430    -0.9692250     0.1590540
  C       -1.1077440    -0.1233710    -0.0042630
  C        2.2932590     1.5435480    -0.2281840
  C        3.1306880     0.4434260    -0.0762550
  C        3.5085210    -2.0251140     0.3469700
  C       -1.6410700    -1.2638430    -0.6279320
  C       -3.0109220    -1.5027310    -0.5649580
  C       -3.2228950     0.5407920     0.6622730
  C       -3.8232840    -0.5849970     0.1005040
  H        0.7834850    -1.9532010     0.3364590
  H        2.7242150     2.5332940    -0.3759070
  H        4.2098530     0.5856070    -0.1209690
  H        3.8288200    -2.0891060     1.3929170
  H        2.9990460    -2.9607700     0.0984840
  H        4.4097140    -1.9577250    -0.2701360
  H       -0.9841790    -1.9393540    -1.1680850
  H        0.5549050     3.4095210    -0.2083710
  H       -0.8007830     2.4663430     0.1128890
  H       -3.4393090    -2.3812410    -1.0417430
  H       -3.8215100     1.2923600     1.1747000
  H       -4.8979480    -0.7268890     0.1711280
units angstrom
no_reorient  #important for SAPT in psi4, default
symmetry c1  #important for SAPT in psi4, default
}

set PROPERTIES_ORIGIN ["COM"]
properties('MP2/aug-cc-pvtz', properties = ['dipole'])
--------------------------------------------------------------------------

    Molecular point group: c1
  Charge       = 0
  Multiplicity = 1
  Basis Set: AUG-CC-PVTZ
    Blend: AUG-CC-PVTZ
  Basis Set: (AUG-CC-PVTZ AUX)
    Blend: AUG-CC-PVTZ-JKFIT

    Orbital Energies [Eh]
    ---------------------

    Doubly Occupied:

       1A    -15.571013     2A    -15.552562     3A    -11.290012
       4A    -11.285087     5A    -11.282421     6A    -11.261938
       7A    -11.242444     8A    -11.239013     9A    -11.235772
      10A    -11.231057    11A    -11.224480    12A    -11.223006
      13A    -11.217891    14A    -11.216917    15A     -1.261578
      16A     -1.208594    17A     -1.138538    18A     -1.088118
      19A     -1.066562    20A     -1.012475    21A     -0.999842
      22A     -0.910035    23A     -0.870384    24A     -0.862740
      25A     -0.802723    26A     -0.790872    27A     -0.711983
      28A     -0.690550    29A     -0.680907    30A     -0.658819
      31A     -0.657717    32A     -0.612348    33A     -0.603457
      34A     -0.589662    35A     -0.582074    36A     -0.571378
      37A     -0.565887    38A     -0.548407    39A     -0.532497
      40A     -0.526694    41A     -0.512821    42A     -0.498440
      43A     -0.471302    44A     -0.441522    45A     -0.416270
      46A     -0.388312    47A     -0.371108    48A     -0.323445
      49A     -0.269245

  @DF-RHF Final Energy:  -570.47952966640196

   => Energetics <=

    Nuclear Repulsion Energy =            811.7446486528923515
    One-Electron Energy =               -2383.8265194778223304
    Two-Electron Energy =                1001.6023411585279064
    Total Energy =                       -570.4795296664019588
  Basis Set: (AUG-CC-PVTZ AUX)
    Blend: AUG-CC-PVTZ-RI
    Molecular point group: c1

    Geometry (in Angstrom), charge = 0, multiplicity = 1:

       Center              X                  Y                   Z               Mass
    ------------   -----------------  -----------------  -----------------  -----------------
         N            0.109254429627     2.519707048650    -0.385569635626    14.003074004430
         N           -1.871548570373     0.766692048650     0.628659364374    14.003074004430
         C            0.392981429627    -0.020929351350    -0.080605535626    12.000000000000
         C            0.925196429627     1.407364048650    -0.160098635626    12.000000000000
         C            2.635436429627    -0.852120951350     0.123836364374    12.000000000000
         C            1.246466429627    -0.980740951350     0.164797364374    12.000000000000
         C           -1.078620570373    -0.134886951350     0.001480364374    12.000000000000
         C            2.322382429627     1.532032048650    -0.222440635626    12.000000000000
         C            3.159811429627     0.431910048650    -0.070511635626    12.000000000000
         C            3.537644429627    -2.036629951350     0.352713364374    12.000000000000
         C           -1.611946570373    -1.275358951350    -0.622188635626    12.000000000000
         C           -2.981798570373    -1.514246951350    -0.559214635626    12.000000000000
         C           -3.193771570373     0.529276048650     0.668016364374    12.000000000000
         C           -3.794160570373    -0.596512951350     0.106247364374    12.000000000000
         H            0.812608429627    -1.964716951350     0.342202364374     1.007825032230
         H            2.753338429627     2.521778048650    -0.370163635626     1.007825032230
         H            4.238976429627     0.574091048650    -0.115225635626     1.007825032230
         H            3.857943429627    -2.100621951350     1.398660364374     1.007825032230
         H            3.028169429627    -2.972285951350     0.104227364374     1.007825032230
         H            4.438837429627    -1.969240951350    -0.264392635626     1.007825032230
         H           -0.955055570373    -1.950869951350    -1.162341635626     1.007825032230
         H            0.584028429627     3.398005048650    -0.202627635626     1.007825032230
         H           -0.771659570373     2.454827048650     0.118632364374     1.007825032230
         H           -3.410185570373    -2.392756951350    -1.035999635626     1.007825032230
         H           -3.792386570373     1.280844048650     1.180443364374     1.007825032230
         H           -4.868824570373    -0.738404951350     0.176871364374     1.007825032230

  Basis Set: AUG-CC-PVTZ
    Blend: AUG-CC-PVTZ
  Basis Set: (AUG-CC-PVTZ AUX)
    Blend: AUG-CC-PVTZ-JKFIT
	 Reference Energy          =    -570.4795296664019588 [Eh]
	 Singles Energy            =      -0.0000000000000000 [Eh]
	 Same-Spin Energy          =      -0.6409044729999877 [Eh]
	 Opposite-Spin Energy      =      -1.9786668893844619 [Eh]
	 Correlation Energy        =      -2.6195713623844497 [Eh]
	 Total Energy              =    -573.0991010287864356 [Eh]

	 ================> DF-SCS-MP2 Energies <==================
	-----------------------------------------------------------
	 SCS Same-Spin Scale       =       0.3333333333333333 [-]
	 SCS Opposite-Spin Scale   =       1.2000000000000000 [-]
	 SCS Same-Spin Energy      =      -0.2136348243333292 [Eh]
	 SCS Opposite-Spin Energy  =      -2.3744002672613540 [Eh]
	 SCS Correlation Energy    =      -2.5880350915946830 [Eh]
	 SCS Total Energy          =    -573.0675647579965926 [Eh]
	-----------------------------------------------------------

  Dipole Moment: [D]
     X:    -1.2327      Y:    -0.8867      Z:     0.0859     Total:     1.5209

*** Psi4 exiting successfully. Buy a developer a beer!
