                               Psi4 1.4a3.dev225

  ==> Input File <==

--------------------------------------------------------------------------
#psi4
#
memory 32 gb

molecule  {
0 1
  N        0.0801310     2.5312230    -0.3913130
  N       -1.9006720     0.7782080     0.6229160
  C        0.3499640     0.1224320    -0.0065570
  C        0.8960730     1.4188800    -0.1658420
  C        2.6063130    -0.8406050     0.1180930
  C        1.2173430    -0.9692250     0.1590540
  C       -1.1077440    -0.1233710    -0.0042630
  C        2.2932590     1.5435480    -0.2281840
  C        3.1306880     0.4434260    -0.0762550
  C        3.5085210    -2.0251140     0.3469700
  C       -1.6410700    -1.2638430    -0.6279320
  C       -3.0109220    -1.5027310    -0.5649580
  C       -3.2228950     0.5407920     0.6622730
  C       -3.8232840    -0.5849970     0.1005040
  H        0.7834850    -1.9532010     0.3364590
  H        2.7242150     2.5332940    -0.3759070
  H        4.2098530     0.5856070    -0.1209690
  H        3.7703585    -2.0774261     1.2020091
  H        2.9990460    -2.9607700     0.0984840
  H        4.4097140    -1.9577250    -0.2701360
  H       -0.9841790    -1.9393540    -1.1680850
  H        0.5549050     3.4095210    -0.2083710
  H       -0.8007830     2.4663430     0.1128890
  H       -3.4393090    -2.3812410    -1.0417430
  H       -3.8215100     1.2923600     1.1747000
  H       -4.8979480    -0.7268890     0.1711280
units angstrom
no_reorient  #important for SAPT in psi4, default
symmetry c1  #important for SAPT in psi4, default
}

set PROPERTIES_ORIGIN ["COM"]
properties('MP2/aug-cc-pvtz', properties = ['dipole'])
--------------------------------------------------------------------------

    Molecular point group: c1
  Charge       = 0
  Multiplicity = 1
  Basis Set: AUG-CC-PVTZ
    Blend: AUG-CC-PVTZ
  Basis Set: (AUG-CC-PVTZ AUX)
    Blend: AUG-CC-PVTZ-JKFIT

    Orbital Energies [Eh]
    ---------------------

    Doubly Occupied:

       1A    -15.567283     2A    -15.547233     3A    -11.288388
       4A    -11.280005     5A    -11.274784     6A    -11.262180
       7A    -11.241400     8A    -11.240582     9A    -11.232899
      10A    -11.231978    11A    -11.231732    12A    -11.225616
      13A    -11.222250    14A    -11.194811    15A     -1.260741
      16A     -1.210190    17A     -1.132090    18A     -1.087610
      19A     -1.063825    20A     -1.024000    21A     -0.992498
      22A     -0.931354    23A     -0.870218    24A     -0.862162
      25A     -0.814425    26A     -0.786133    27A     -0.710142
      28A     -0.689494    29A     -0.681380    30A     -0.660397
      31A     -0.650353    32A     -0.618251    33A     -0.604295
      34A     -0.598657    35A     -0.588285    36A     -0.580940
      37A     -0.571756    38A     -0.549567    39A     -0.531450
      40A     -0.528535    41A     -0.513486    42A     -0.493608
      43A     -0.485102    44A     -0.436318    45A     -0.418744
      46A     -0.387367    47A     -0.366399    48A     -0.316181
      49A     -0.278841

  @DF-RHF Final Energy:  -570.46820479786754

   => Energetics <=

    Nuclear Repulsion Energy =            813.0355432375749842
    One-Electron Energy =               -2386.3356241822893935
    Two-Electron Energy =                1002.8318761468468665
    Total Energy =                       -570.4682047978675428
  Basis Set: (AUG-CC-PVTZ AUX)
    Blend: AUG-CC-PVTZ-RI
    Molecular point group: c1

    Geometry (in Angstrom), charge = 0, multiplicity = 1:

       Center              X                  Y                   Z               Mass
    ------------   -----------------  -----------------  -----------------  -----------------
         N            0.110480105367     2.511049168821    -0.389725533717    14.003074004430
         N           -1.870322894633     0.758034168821     0.624503466283    14.003074004430
         C            0.380313105367     0.102258168821    -0.004969533717    12.000000000000
         C            0.926422105367     1.398706168821    -0.164254533717    12.000000000000
         C            2.636662105367    -0.860778831179     0.119680466283    12.000000000000
         C            1.247692105367    -0.989398831179     0.160641466283    12.000000000000
         C           -1.077394894633    -0.143544831179    -0.002675533717    12.000000000000
         C            2.323608105367     1.523374168821    -0.226596533717    12.000000000000
         C            3.161037105367     0.423252168821    -0.074667533717    12.000000000000
         C            3.538870105367    -2.045287831179     0.348557466283    12.000000000000
         C           -1.610720894633    -1.284016831179    -0.626344533717    12.000000000000
         C           -2.980572894633    -1.522904831179    -0.563370533717    12.000000000000
         C           -3.192545894633     0.520618168821     0.663860466283    12.000000000000
         C           -3.792934894633    -0.605170831179     0.102091466283    12.000000000000
         H            0.813834105367    -1.973374831179     0.338046466283     1.007825032230
         H            2.754564105367     2.513120168821    -0.374319533717     1.007825032230
         H            4.240202105367     0.565433168821    -0.119381533717     1.007825032230
         H            3.800707605367    -2.097599931179     1.203596566283     1.007825032230
         H            3.029395105367    -2.980943831179     0.100071466283     1.007825032230
         H            4.440063105367    -1.977898831179    -0.268548533717     1.007825032230
         H           -0.953829894633    -1.959527831179    -1.166497533717     1.007825032230
         H            0.585254105367     3.389347168821    -0.206783533717     1.007825032230
         H           -0.770433894633     2.446169168821     0.114476466283     1.007825032230
         H           -3.408959894633    -2.401414831179    -1.040155533717     1.007825032230
         H           -3.791160894633     1.272186168821     1.176287466283     1.007825032230
         H           -4.867598894633    -0.747062831179     0.172715466283     1.007825032230

  Basis Set: AUG-CC-PVTZ
    Blend: AUG-CC-PVTZ
  Basis Set: (AUG-CC-PVTZ AUX)
    Blend: AUG-CC-PVTZ-JKFIT
	 Reference Energy          =    -570.4682047978675428 [Eh]
	 Singles Energy            =      -0.0000000000000000 [Eh]
	 Same-Spin Energy          =      -0.6409739311335767 [Eh]
	 Opposite-Spin Energy      =      -1.9771053319134611 [Eh]
	 Correlation Energy        =      -2.6180792630470378 [Eh]
	 Total Energy              =    -573.0862840609146360 [Eh]

	 ================> DF-SCS-MP2 Energies <==================
	-----------------------------------------------------------
	 SCS Same-Spin Scale       =       0.3333333333333333 [-]
	 SCS Opposite-Spin Scale   =       1.2000000000000000 [-]
	 SCS Same-Spin Energy      =      -0.2136579770445255 [Eh]
	 SCS Opposite-Spin Energy  =      -2.3725263982961531 [Eh]
	 SCS Correlation Energy    =      -2.5861843753406788 [Eh]
	 SCS Total Energy          =    -573.0543891732081647 [Eh]
	-----------------------------------------------------------

  Dipole Moment: [D]
     X:    -1.0410      Y:    -1.0096      Z:     0.1316     Total:     1.4561

*** Psi4 exiting successfully. Buy a developer a beer!
