                               Psi4 1.4a3.dev225

  ==> Input File <==

--------------------------------------------------------------------------
#psi4
#
memory 32 gb

molecule  {
0 1
  N        0.0801310     2.5312230    -0.3913130
  N       -1.9006720     0.7782080     0.6229160
  C        0.3499640     0.1224320    -0.0065570
  C        0.8843985     1.4347954    -0.1690680
  C        2.6063130    -0.8406050     0.1180930
  C        1.2173430    -0.9692250     0.1590540
  C       -1.1077440    -0.1233710    -0.0042630
  C        2.2932590     1.5435480    -0.2281840
  C        3.1306880     0.4434260    -0.0762550
  C        3.5085210    -2.0251140     0.3469700
  C       -1.6410700    -1.2638430    -0.6279320
  C       -3.0109220    -1.5027310    -0.5649580
  C       -3.2228950     0.5407920     0.6622730
  C       -3.8232840    -0.5849970     0.1005040
  H        0.7834850    -1.9532010     0.3364590
  H        2.7242150     2.5332940    -0.3759070
  H        4.2098530     0.5856070    -0.1209690
  H        3.8288200    -2.0891060     1.3929170
  H        2.9990460    -2.9607700     0.0984840
  H        4.4097140    -1.9577250    -0.2701360
  H       -0.9841790    -1.9393540    -1.1680850
  H        0.5549050     3.4095210    -0.2083710
  H       -0.8007830     2.4663430     0.1128890
  H       -3.4393090    -2.3812410    -1.0417430
  H       -3.8215100     1.2923600     1.1747000
  H       -4.8979480    -0.7268890     0.1711280
units angstrom
no_reorient  #important for SAPT in psi4, default
symmetry c1  #important for SAPT in psi4, default
}

set PROPERTIES_ORIGIN ["COM"]
properties('MP2/aug-cc-pvtz', properties = ['dipole'])
--------------------------------------------------------------------------

    Molecular point group: c1
  Charge       = 0
  Multiplicity = 1
  Basis Set: AUG-CC-PVTZ
    Blend: AUG-CC-PVTZ
  Basis Set: (AUG-CC-PVTZ AUX)
    Blend: AUG-CC-PVTZ-JKFIT

    Orbital Energies [Eh]
    ---------------------

    Doubly Occupied:

       1A    -15.567318     2A    -15.550228     3A    -11.288100
       4A    -11.280134     5A    -11.277415     6A    -11.262166
       7A    -11.241263     8A    -11.240323     9A    -11.233273
      10A    -11.232264    11A    -11.232100    12A    -11.225509
      13A    -11.222799    14A    -11.218884    15A     -1.261151
      16A     -1.217123    17A     -1.131554    18A     -1.087599
      19A     -1.062349    20A     -1.014491    21A     -0.991242
      22A     -0.914779    23A     -0.869895    24A     -0.861765
      25A     -0.813604    26A     -0.783594    27A     -0.708558
      28A     -0.691963    29A     -0.684449    30A     -0.660403
      31A     -0.650184    32A     -0.614092    33A     -0.599836
      34A     -0.588879    35A     -0.582598    36A     -0.573654
      37A     -0.569522    38A     -0.548229    39A     -0.531894
      40A     -0.528445    41A     -0.514390    42A     -0.493438
      43A     -0.483404    44A     -0.436855    45A     -0.418720
      46A     -0.387418    47A     -0.366218    48A     -0.315930
      49A     -0.275871

  @DF-RHF Final Energy:  -570.50086622648359

   => Energetics <=

    Nuclear Repulsion Energy =            811.9011612369369004
    One-Electron Energy =               -2384.1923065826008497
    Two-Electron Energy =                1001.7902791191804681
    Total Energy =                       -570.5008662264835948
  Basis Set: (AUG-CC-PVTZ AUX)
    Blend: AUG-CC-PVTZ-RI
    Molecular point group: c1

    Geometry (in Angstrom), charge = 0, multiplicity = 1:

       Center              X                  Y                   Z               Mass
    ------------   -----------------  -----------------  -----------------  -----------------
         N            0.110921034295     2.510075711693    -0.390560350230    14.003074004430
         N           -1.869881965705     0.757060711693     0.623668649770    14.003074004430
         C            0.380754034295     0.101284711693    -0.005804350230    12.000000000000
         C            0.915188534295     1.413648111693    -0.168315350230    12.000000000000
         C            2.637103034295    -0.861752288307     0.118845649770    12.000000000000
         C            1.248133034295    -0.990372288307     0.159806649770    12.000000000000
         C           -1.076953965705    -0.144518288307    -0.003510350230    12.000000000000
         C            2.324049034295     1.522400711693    -0.227431350230    12.000000000000
         C            3.161478034295     0.422278711693    -0.075502350230    12.000000000000
         C            3.539311034295    -2.046261288307     0.347722649770    12.000000000000
         C           -1.610279965705    -1.284990288307    -0.627179350230    12.000000000000
         C           -2.980131965705    -1.523878288307    -0.564205350230    12.000000000000
         C           -3.192104965705     0.519644711693     0.663025649770    12.000000000000
         C           -3.792493965705    -0.606144288307     0.101256649770    12.000000000000
         H            0.814275034295    -1.974348288307     0.337211649770     1.007825032230
         H            2.755005034295     2.512146711693    -0.375154350230     1.007825032230
         H            4.240643034295     0.564459711693    -0.120216350230     1.007825032230
         H            3.859610034295    -2.110253288307     1.393669649770     1.007825032230
         H            3.029836034295    -2.981917288307     0.099236649770     1.007825032230
         H            4.440504034295    -1.978872288307    -0.269383350230     1.007825032230
         H           -0.953388965705    -1.960501288307    -1.167332350230     1.007825032230
         H            0.585695034295     3.388373711693    -0.207618350230     1.007825032230
         H           -0.769992965705     2.445195711693     0.113641649770     1.007825032230
         H           -3.408518965705    -2.402388288307    -1.040990350230     1.007825032230
         H           -3.790719965705     1.271212711693     1.175452649770     1.007825032230
         H           -4.867157965705    -0.748036288307     0.171880649770     1.007825032230

  Basis Set: AUG-CC-PVTZ
    Blend: AUG-CC-PVTZ
  Basis Set: (AUG-CC-PVTZ AUX)
    Blend: AUG-CC-PVTZ-JKFIT
	 Reference Energy          =    -570.5008662264835948 [Eh]
	 Singles Energy            =      -0.0000000000000000 [Eh]
	 Same-Spin Energy          =      -0.6410083833272072 [Eh]
	 Opposite-Spin Energy      =      -1.9778252980704010 [Eh]
	 Correlation Energy        =      -2.6188336813976081 [Eh]
	 Total Energy              =    -573.1196999078812269 [Eh]

	 ================> DF-SCS-MP2 Energies <==================
	-----------------------------------------------------------
	 SCS Same-Spin Scale       =       0.3333333333333333 [-]
	 SCS Opposite-Spin Scale   =       1.2000000000000000 [-]
	 SCS Same-Spin Energy      =      -0.2136694611090691 [Eh]
	 SCS Opposite-Spin Energy  =      -2.3733903576844813 [Eh]
	 SCS Correlation Energy    =      -2.5870598187935503 [Eh]
	 SCS Total Energy          =    -573.0879260452771859 [Eh]
	-----------------------------------------------------------

  Dipole Moment: [D]
     X:    -1.1538      Y:    -0.8530      Z:     0.0559     Total:     1.4359

*** Psi4 exiting successfully. Buy a developer a beer!
