                               Psi4 1.4a3.dev225

  ==> Input File <==

--------------------------------------------------------------------------
#psi4
#
memory 32 gb

molecule  {
0 1
  N        0.0801310     2.5312230    -0.3913130
  N       -1.9006720     0.7782080     0.6229160
  C        0.3499640     0.1224320    -0.0065570
  C        0.8960730     1.4188800    -0.1658420
  C        2.6063130    -0.8406050     0.1180930
  C        1.2173430    -0.9692250     0.1590540
  C       -1.1077440    -0.1233710    -0.0042630
  C        2.2932590     1.5435480    -0.2281840
  C        3.1306880     0.4434260    -0.0762550
  C        3.5085210    -2.0251140     0.3469700
  C       -1.6410700    -1.2638430    -0.6279320
  C       -2.8982459    -1.4167855    -0.5299242
  C       -3.2228950     0.5407920     0.6622730
  C       -3.8232840    -0.5849970     0.1005040
  H        0.7834850    -1.9532010     0.3364590
  H        2.7242150     2.5332940    -0.3759070
  H        4.2098530     0.5856070    -0.1209690
  H        3.8288200    -2.0891060     1.3929170
  H        2.9990460    -2.9607700     0.0984840
  H        4.4097140    -1.9577250    -0.2701360
  H       -0.9841790    -1.9393540    -1.1680850
  H        0.5549050     3.4095210    -0.2083710
  H       -0.8007830     2.4663430     0.1128890
  H       -3.4393090    -2.3812410    -1.0417430
  H       -3.8215100     1.2923600     1.1747000
  H       -4.8979480    -0.7268890     0.1711280
units angstrom
no_reorient  #important for SAPT in psi4, default
symmetry c1  #important for SAPT in psi4, default
}

set PROPERTIES_ORIGIN ["COM"]
properties('MP2/aug-cc-pvtz', properties = ['dipole'])
--------------------------------------------------------------------------

    Molecular point group: c1
  Charge       = 0
  Multiplicity = 1
  Basis Set: AUG-CC-PVTZ
    Blend: AUG-CC-PVTZ
  Basis Set: (AUG-CC-PVTZ AUX)
    Blend: AUG-CC-PVTZ-JKFIT

    Orbital Energies [Eh]
    ---------------------

    Doubly Occupied:

       1A    -15.565072     2A    -15.548910     3A    -11.292516
       4A    -11.277384     5A    -11.277316     6A    -11.256323
       7A    -11.239090     8A    -11.235582     9A    -11.234555
      10A    -11.233845    11A    -11.228372    12A    -11.227161
      13A    -11.224274    14A    -11.220751    15A     -1.265946
      16A     -1.212415    17A     -1.133532    18A     -1.104612
      19A     -1.065426    20A     -1.017829    21A     -0.998983
      22A     -0.917326    23A     -0.878647    24A     -0.850427
      25A     -0.818286    26A     -0.780100    27A     -0.709475
      28A     -0.691688    29A     -0.683109    30A     -0.665228
      31A     -0.653035    32A     -0.612593    33A     -0.603337
      34A     -0.594188    35A     -0.584078    36A     -0.573076
      37A     -0.557122    38A     -0.547449    39A     -0.532469
      40A     -0.525187    41A     -0.513162    42A     -0.495000
      43A     -0.487530    44A     -0.435980    45A     -0.411913
      46A     -0.399910    47A     -0.369523    48A     -0.318110
      49A     -0.280205

  @DF-RHF Final Energy:  -570.47439861089617

   => Energetics <=

    Nuclear Repulsion Energy =            815.1215559714867140
    One-Electron Energy =               -2390.4958105027985766
    Two-Electron Energy =                1004.8998559204156891
    Total Energy =                       -570.4743986108961735
  Basis Set: (AUG-CC-PVTZ AUX)
    Blend: AUG-CC-PVTZ-RI
    Molecular point group: c1

    Geometry (in Angstrom), charge = 0, multiplicity = 1:

       Center              X                  Y                   Z               Mass
    ------------   -----------------  -----------------  -----------------  -----------------
         N            0.102815619804     2.505511013273    -0.393054198569    14.003074004430
         N           -1.877987380196     0.752496013273     0.621174801431    14.003074004430
         C            0.372648619804     0.096720013273    -0.008298198569    12.000000000000
         C            0.918757619804     1.393168013273    -0.167583198569    12.000000000000
         C            2.628997619804    -0.866316986727     0.116351801431    12.000000000000
         C            1.240027619804    -0.994936986727     0.157312801431    12.000000000000
         C           -1.085059380196    -0.149082986727    -0.006004198569    12.000000000000
         C            2.315943619804     1.517836013273    -0.229925198569    12.000000000000
         C            3.153372619804     0.417714013273    -0.077996198569    12.000000000000
         C            3.531205619804    -2.050825986727     0.345228801431    12.000000000000
         C           -1.618385380196    -1.289554986727    -0.629673198569    12.000000000000
         C           -2.875561280196    -1.442497486727    -0.531665398569    12.000000000000
         C           -3.200210380196     0.515080013273     0.660531801431    12.000000000000
         C           -3.800599380196    -0.610708986727     0.098762801431    12.000000000000
         H            0.806169619804    -1.978912986727     0.334717801431     1.007825032230
         H            2.746899619804     2.507582013273    -0.377648198569     1.007825032230
         H            4.232537619804     0.559895013273    -0.122710198569     1.007825032230
         H            3.851504619804    -2.114817986727     1.391175801431     1.007825032230
         H            3.021730619804    -2.986481986727     0.096742801431     1.007825032230
         H            4.432398619804    -1.983436986727    -0.271877198569     1.007825032230
         H           -0.961494380196    -1.965065986727    -1.169826198569     1.007825032230
         H            0.577589619804     3.383809013273    -0.210112198569     1.007825032230
         H           -0.778098380196     2.440631013273     0.111147801431     1.007825032230
         H           -3.416624380196    -2.406952986727    -1.043484198569     1.007825032230
         H           -3.798825380196     1.266648013273     1.172958801431     1.007825032230
         H           -4.875263380196    -0.752600986727     0.169386801431     1.007825032230

  Basis Set: AUG-CC-PVTZ
    Blend: AUG-CC-PVTZ
  Basis Set: (AUG-CC-PVTZ AUX)
    Blend: AUG-CC-PVTZ-JKFIT
	 Reference Energy          =    -570.4743986108961735 [Eh]
	 Singles Energy            =      -0.0000000000000000 [Eh]
	 Same-Spin Energy          =      -0.6408752433606358 [Eh]
	 Opposite-Spin Energy      =      -1.9777704245108099 [Eh]
	 Correlation Energy        =      -2.6186456678714456 [Eh]
	 Total Energy              =    -573.0930442787675929 [Eh]

	 ================> DF-SCS-MP2 Energies <==================
	-----------------------------------------------------------
	 SCS Same-Spin Scale       =       0.3333333333333333 [-]
	 SCS Opposite-Spin Scale   =       1.2000000000000000 [-]
	 SCS Same-Spin Energy      =      -0.2136250811202119 [Eh]
	 SCS Opposite-Spin Energy  =      -2.3733245094129716 [Eh]
	 SCS Correlation Energy    =      -2.5869495905331834 [Eh]
	 SCS Total Energy          =    -573.0613482014293822 [Eh]
	-----------------------------------------------------------

  Dipole Moment: [D]
     X:    -0.9554      Y:    -0.8200      Z:     0.1437     Total:     1.2673

*** Psi4 exiting successfully. Buy a developer a beer!
