                               Psi4 1.4a3.dev225

  ==> Input File <==

--------------------------------------------------------------------------
#psi4
#
memory 32 gb

molecule  {
0 1
  N        0.0801310     2.5312230    -0.3913130
  N       -1.9006720     0.7782080     0.6229160
  C        0.3499640     0.1224320    -0.0065570
  C        0.8960730     1.4188800    -0.1658420
  C        2.6063130    -0.8406050     0.1180930
  C        1.2173430    -0.9692250     0.1590540
  C       -1.1077440    -0.1233710    -0.0042630
  C        2.2932590     1.5435480    -0.2281840
  C        3.1306880     0.4434260    -0.0762550
  C        3.5085210    -2.0251140     0.3469700
  C       -1.6410700    -1.2638430    -0.6279320
  C       -3.0109220    -1.5027310    -0.5649580
  C       -3.2228950     0.5407920     0.6622730
  C       -3.8232840    -0.5849970     0.1005040
  H        0.7834850    -1.9532010     0.3364590
  H        2.7242150     2.5332940    -0.3759070
  H        4.2098530     0.5856070    -0.1209690
  H        3.8582894    -2.0189309     1.3853897
  H        2.9990460    -2.9607700     0.0984840
  H        4.4097140    -1.9577250    -0.2701360
  H       -0.9841790    -1.9393540    -1.1680850
  H        0.5549050     3.4095210    -0.2083710
  H       -0.8007830     2.4663430     0.1128890
  H       -3.4393090    -2.3812410    -1.0417430
  H       -3.8215100     1.2923600     1.1747000
  H       -4.8979480    -0.7268890     0.1711280
units angstrom
no_reorient  #important for SAPT in psi4, default
symmetry c1  #important for SAPT in psi4, default
}

set PROPERTIES_ORIGIN ["COM"]
properties('MP2/aug-cc-pvtz', properties = ['dipole'])
--------------------------------------------------------------------------

    Molecular point group: c1
  Charge       = 0
  Multiplicity = 1
  Basis Set: AUG-CC-PVTZ
    Blend: AUG-CC-PVTZ
  Basis Set: (AUG-CC-PVTZ AUX)
    Blend: AUG-CC-PVTZ-JKFIT

    Orbital Energies [Eh]
    ---------------------

    Doubly Occupied:

       1A    -15.567446     2A    -15.547502     3A    -11.288577
       4A    -11.280151     5A    -11.275059     6A    -11.262333
       7A    -11.241542     8A    -11.240761     9A    -11.233224
      10A    -11.232313    11A    -11.232057    12A    -11.226416
      13A    -11.222742    14A    -11.219772    15A     -1.260909
      16A     -1.210451    17A     -1.131630    18A     -1.087764
      19A     -1.063000    20A     -1.016315    21A     -0.992304
      22A     -0.915425    23A     -0.870431    24A     -0.862025
      25A     -0.814557    26A     -0.783091    27A     -0.708731
      28A     -0.689573    29A     -0.681257    30A     -0.660355
      31A     -0.650096    32A     -0.613022    33A     -0.601157
      34A     -0.588875    35A     -0.581811    36A     -0.573210
      37A     -0.571584    38A     -0.548964    39A     -0.532172
      40A     -0.529756    41A     -0.512918    42A     -0.491850
      43A     -0.485619    44A     -0.434897    45A     -0.418710
      46A     -0.387465    47A     -0.366477    48A     -0.316417
      49A     -0.278141

  @DF-RHF Final Energy:  -570.50116165407599

   => Energetics <=

    Nuclear Repulsion Energy =            812.0695150588253455
    One-Electron Energy =               -2384.5396413435137219
    Two-Electron Energy =                1001.9689646306123905
    Total Energy =                       -570.5011616540759860
  Basis Set: (AUG-CC-PVTZ AUX)
    Blend: AUG-CC-PVTZ-RI
    Molecular point group: c1

    Geometry (in Angstrom), charge = 0, multiplicity = 1:

       Center              X                  Y                   Z               Mass
    ------------   -----------------  -----------------  -----------------  -----------------
         N            0.109998742310     2.510728946598    -0.390729420248    14.003074004430
         N           -1.870804257690     0.757713946598     0.623499579752    14.003074004430
         C            0.379831742310     0.101937946598    -0.005973420248    12.000000000000
         C            0.925940742310     1.398385946598    -0.165258420248    12.000000000000
         C            2.636180742310    -0.861099053402     0.118676579752    12.000000000000
         C            1.247210742310    -0.989719053402     0.159637579752    12.000000000000
         C           -1.077876257690    -0.143865053402    -0.003679420248    12.000000000000
         C            2.323126742310     1.523053946598    -0.227600420248    12.000000000000
         C            3.160555742310     0.422931946598    -0.075671420248    12.000000000000
         C            3.538388742310    -2.045608053402     0.347553579752    12.000000000000
         C           -1.611202257690    -1.284337053402    -0.627348420248    12.000000000000
         C           -2.981054257690    -1.523225053402    -0.564374420248    12.000000000000
         C           -3.193027257690     0.520297946598     0.662856579752    12.000000000000
         C           -3.793416257690    -0.605491053402     0.101087579752    12.000000000000
         H            0.813352742310    -1.973695053402     0.337042579752     1.007825032230
         H            2.754082742310     2.512799946598    -0.375323420248     1.007825032230
         H            4.239720742310     0.565112946598    -0.120385420248     1.007825032230
         H            3.888157142310    -2.039424953402     1.385973279752     1.007825032230
         H            3.028913742310    -2.981264053402     0.099067579752     1.007825032230
         H            4.439581742310    -1.978219053402    -0.269552420248     1.007825032230
         H           -0.954311257690    -1.959848053402    -1.167501420248     1.007825032230
         H            0.584772742310     3.389026946598    -0.207787420248     1.007825032230
         H           -0.770915257690     2.445848946598     0.113472579752     1.007825032230
         H           -3.409441257690    -2.401735053402    -1.041159420248     1.007825032230
         H           -3.791642257690     1.271865946598     1.175283579752     1.007825032230
         H           -4.868080257690    -0.747383053402     0.171711579752     1.007825032230

  Basis Set: AUG-CC-PVTZ
    Blend: AUG-CC-PVTZ
  Basis Set: (AUG-CC-PVTZ AUX)
    Blend: AUG-CC-PVTZ-JKFIT
	 Reference Energy          =    -570.5011616540759860 [Eh]
	 Singles Energy            =      -0.0000000000000000 [Eh]
	 Same-Spin Energy          =      -0.6408920094346239 [Eh]
	 Opposite-Spin Energy      =      -1.9777977869239716 [Eh]
	 Correlation Energy        =      -2.6186897963585953 [Eh]
	 Total Energy              =    -573.1198514504345667 [Eh]

	 ================> DF-SCS-MP2 Energies <==================
	-----------------------------------------------------------
	 SCS Same-Spin Scale       =       0.3333333333333333 [-]
	 SCS Opposite-Spin Scale   =       1.2000000000000000 [-]
	 SCS Same-Spin Energy      =      -0.2136306698115413 [Eh]
	 SCS Opposite-Spin Energy  =      -2.3733573443087659 [Eh]
	 SCS Correlation Energy    =      -2.5869880141203070 [Eh]
	 SCS Total Energy          =    -573.0881496681962517 [Eh]
	-----------------------------------------------------------

  Dipole Moment: [D]
     X:    -1.0680      Y:    -0.9586      Z:     0.0718     Total:     1.4369

*** Psi4 exiting successfully. Buy a developer a beer!
