                               Psi4 1.4a3.dev225

  ==> Input File <==

--------------------------------------------------------------------------
#psi4
#
memory 32 gb

molecule  {
0 1
  N        0.0801310     2.5312230    -0.3913130
  N       -1.9006720     0.7782080     0.6229160
  C        0.3499640     0.1224320    -0.0065570
  C        0.8960730     1.4188800    -0.1658420
  C        2.6063130    -0.8406050     0.1180930
  C        1.2173430    -0.9692250     0.1590540
  C       -1.1077440    -0.1233710    -0.0042630
  C        2.2932590     1.5435480    -0.2281840
  C        3.1306880     0.4434260    -0.0762550
  C        3.5085210    -2.0251140     0.3469700
  C       -1.6410700    -1.2638430    -0.6279320
  C       -3.0109220    -1.5027310    -0.5649580
  C       -3.2228950     0.5407920     0.6622730
  C       -3.8232840    -0.5849970     0.1005040
  H        0.7834850    -1.9532010     0.3364590
  H        2.7242150     2.5332940    -0.3759070
  H        4.2098530     0.5856070    -0.1209690
  H        3.8288200    -2.0891060     1.3929170
  H        2.9990460    -2.9607700     0.0984840
  H        4.4097140    -1.9577250    -0.2701360
  H       -0.9841790    -1.9393540    -1.1680850
  H        0.5549050     3.4095210    -0.2083710
  H       -0.8007830     2.4663430     0.1128890
  H       -3.4590053    -2.4216329    -1.0636645
  H       -3.8215100     1.2923600     1.1747000
  H       -4.8979480    -0.7268890     0.1711280
units angstrom
no_reorient  #important for SAPT in psi4, default
symmetry c1  #important for SAPT in psi4, default
}

set PROPERTIES_ORIGIN ["COM"]
properties('MP2/aug-cc-pvtz', properties = ['dipole'])
--------------------------------------------------------------------------

    Molecular point group: c1
  Charge       = 0
  Multiplicity = 1
  Basis Set: AUG-CC-PVTZ
    Blend: AUG-CC-PVTZ
  Basis Set: (AUG-CC-PVTZ AUX)
    Blend: AUG-CC-PVTZ-JKFIT

    Orbital Energies [Eh]
    ---------------------

    Doubly Occupied:

       1A    -15.567688     2A    -15.547817     3A    -11.288996
       4A    -11.280559     5A    -11.275505     6A    -11.268016
       7A    -11.242053     8A    -11.241255     9A    -11.233595
      10A    -11.232651    11A    -11.232416    12A    -11.226713
      13A    -11.222803    14A    -11.219557    15A     -1.261229
      16A     -1.210753    17A     -1.131775    18A     -1.086686
      19A     -1.063237    20A     -1.016214    21A     -0.992548
      22A     -0.915622    23A     -0.870523    24A     -0.859502
      25A     -0.814646    26A     -0.781931    27A     -0.706630
      28A     -0.689577    29A     -0.681198    30A     -0.660369
      31A     -0.650191    32A     -0.612909    33A     -0.600648
      34A     -0.588115    35A     -0.582088    36A     -0.572117
      37A     -0.565797    38A     -0.548275    39A     -0.532405
      40A     -0.529613    41A     -0.513103    42A     -0.493040
      43A     -0.485832    44A     -0.435135    45A     -0.418667
      46A     -0.387781    47A     -0.366825    48A     -0.316633
      49A     -0.278645

  @DF-RHF Final Energy:  -570.49926851277212

   => Energetics <=

    Nuclear Repulsion Energy =            811.7542344192598875
    One-Electron Energy =               -2383.9072348542649706
    Two-Electron Energy =                1001.6537319222330780
    Total Energy =                       -570.4992685127721188
  Basis Set: (AUG-CC-PVTZ AUX)
    Blend: AUG-CC-PVTZ-RI
    Molecular point group: c1

    Geometry (in Angstrom), charge = 0, multiplicity = 1:

       Center              X                  Y                   Z               Mass
    ------------   -----------------  -----------------  -----------------  -----------------
         N            0.110267891741     2.511334227212    -0.390650621600    14.003074004430
         N           -1.870535108259     0.758319227212     0.623578378400    14.003074004430
         C            0.380100891741     0.102543227212    -0.005894621600    12.000000000000
         C            0.926209891741     1.398991227212    -0.165179621600    12.000000000000
         C            2.636449891741    -0.860493772788     0.118755378400    12.000000000000
         C            1.247479891741    -0.989113772788     0.159716378400    12.000000000000
         C           -1.077607108259    -0.143259772788    -0.003600621600    12.000000000000
         C            2.323395891741     1.523659227212    -0.227521621600    12.000000000000
         C            3.160824891741     0.423537227212    -0.075592621600    12.000000000000
         C            3.538657891741    -2.045002772788     0.347632378400    12.000000000000
         C           -1.610933108259    -1.283731772788    -0.627269621600    12.000000000000
         C           -2.980785108259    -1.522619772788    -0.564295621600    12.000000000000
         C           -3.192758108259     0.520903227212     0.662935378400    12.000000000000
         C           -3.793147108259    -0.604885772788     0.101166378400    12.000000000000
         H            0.813621891741    -1.973089772788     0.337121378400     1.007825032230
         H            2.754351891741     2.513405227212    -0.375244621600     1.007825032230
         H            4.239989891741     0.565718227212    -0.120306621600     1.007825032230
         H            3.858956891741    -2.108994772788     1.393579378400     1.007825032230
         H            3.029182891741    -2.980658772788     0.099146378400     1.007825032230
         H            4.439850891741    -1.977613772788    -0.269473621600     1.007825032230
         H           -0.954042108259    -1.959242772788    -1.167422621600     1.007825032230
         H            0.585041891741     3.389632227212    -0.207708621600     1.007825032230
         H           -0.770646108259     2.446454227212     0.113551378400     1.007825032230
         H           -3.428868408259    -2.441521672788    -1.063002121600     1.007825032230
         H           -3.791373108259     1.272471227212     1.175362378400     1.007825032230
         H           -4.867811108259    -0.746777772788     0.171790378400     1.007825032230

  Basis Set: AUG-CC-PVTZ
    Blend: AUG-CC-PVTZ
  Basis Set: (AUG-CC-PVTZ AUX)
    Blend: AUG-CC-PVTZ-JKFIT
	 Reference Energy          =    -570.4992685127721188 [Eh]
	 Singles Energy            =      -0.0000000000000000 [Eh]
	 Same-Spin Energy          =      -0.6409345142236620 [Eh]
	 Opposite-Spin Energy      =      -1.9780970738520429 [Eh]
	 Correlation Energy        =      -2.6190315880757051 [Eh]
	 Total Energy              =    -573.1183001008478186 [Eh]

	 ================> DF-SCS-MP2 Energies <==================
	-----------------------------------------------------------
	 SCS Same-Spin Scale       =       0.3333333333333333 [-]
	 SCS Opposite-Spin Scale   =       1.2000000000000000 [-]
	 SCS Same-Spin Energy      =      -0.2136448380745540 [Eh]
	 SCS Opposite-Spin Energy  =      -2.3737164886224513 [Eh]
	 SCS Correlation Energy    =      -2.5873613266970055 [Eh]
	 SCS Total Energy          =    -573.0866298394690830 [Eh]
	-----------------------------------------------------------

  Dipole Moment: [D]
     X:    -1.0841      Y:    -0.9490      Z:     0.0846     Total:     1.4432

*** Psi4 exiting successfully. Buy a developer a beer!
