                               Psi4 1.4a3.dev225

  ==> Input File <==

--------------------------------------------------------------------------
#psi4
#
memory 32 gb

molecule  {
0 1
  N        0.0801310     2.5312230    -0.3913130
  N       -1.9006720     0.7782080     0.6229160
  C        0.3499640     0.1224320    -0.0065570
  C        0.8960730     1.4188800    -0.1658420
  C        2.6063130    -0.8406050     0.1180930
  C        1.2173430    -0.9692250     0.1590540
  C       -1.1077440    -0.1233710    -0.0042630
  C        2.2733578     1.5417723    -0.2272960
  C        3.1306880     0.4434260    -0.0762550
  C        3.5085210    -2.0251140     0.3469700
  C       -1.6410700    -1.2638430    -0.6279320
  C       -3.0109220    -1.5027310    -0.5649580
  C       -3.2228950     0.5407920     0.6622730
  C       -3.8232840    -0.5849970     0.1005040
  H        0.7834850    -1.9532010     0.3364590
  H        2.7242150     2.5332940    -0.3759070
  H        4.2098530     0.5856070    -0.1209690
  H        3.8288200    -2.0891060     1.3929170
  H        2.9990460    -2.9607700     0.0984840
  H        4.4097140    -1.9577250    -0.2701360
  H       -0.9841790    -1.9393540    -1.1680850
  H        0.5549050     3.4095210    -0.2083710
  H       -0.8007830     2.4663430     0.1128890
  H       -3.4393090    -2.3812410    -1.0417430
  H       -3.8215100     1.2923600     1.1747000
  H       -4.8979480    -0.7268890     0.1711280
units angstrom
no_reorient  #important for SAPT in psi4, default
symmetry c1  #important for SAPT in psi4, default
}

set PROPERTIES_ORIGIN ["COM"]
properties('MP2/aug-cc-pvtz', properties = ['dipole'])
--------------------------------------------------------------------------

    Molecular point group: c1
  Charge       = 0
  Multiplicity = 1
  Basis Set: AUG-CC-PVTZ
    Blend: AUG-CC-PVTZ
  Basis Set: (AUG-CC-PVTZ AUX)
    Blend: AUG-CC-PVTZ-JKFIT

    Orbital Energies [Eh]
    ---------------------

    Doubly Occupied:

       1A    -15.567693     2A    -15.546545     3A    -11.288807
       4A    -11.280322     5A    -11.272597     6A    -11.262501
       7A    -11.241786     8A    -11.241013     9A    -11.234005
      10A    -11.233494    11A    -11.232739    12A    -11.227100
      13A    -11.222023    14A    -11.219705    15A     -1.261165
      16A     -1.211056    17A     -1.131616    18A     -1.087969
      19A     -1.062860    20A     -1.017125    21A     -0.991655
      22A     -0.916585    23A     -0.871555    24A     -0.862145
      25A     -0.814452    26A     -0.783010    27A     -0.709013
      28A     -0.689583    29A     -0.681440    30A     -0.660410
      31A     -0.650158    32A     -0.611634    33A     -0.600736
      34A     -0.588488    35A     -0.582957    36A     -0.573662
      37A     -0.570109    38A     -0.548441    39A     -0.532660
      40A     -0.529683    41A     -0.513794    42A     -0.492805
      43A     -0.485181    44A     -0.434649    45A     -0.418928
      46A     -0.387564    47A     -0.366198    48A     -0.315803
      49A     -0.280166

  @DF-RHF Final Energy:  -570.50124618080781

   => Energetics <=

    Nuclear Repulsion Energy =            812.3137792833499589
    One-Electron Energy =               -2385.0188877055902594
    Two-Electron Energy =                1002.2038622414324891
    Total Energy =                       -570.5012461808078115
  Basis Set: (AUG-CC-PVTZ AUX)
    Blend: AUG-CC-PVTZ-RI
    Molecular point group: c1

    Geometry (in Angstrom), charge = 0, multiplicity = 1:

       Center              X                  Y                   Z               Mass
    ------------   -----------------  -----------------  -----------------  -----------------
         N            0.111457266636     2.511228852074    -0.390828508769    14.003074004430
         N           -1.869345733364     0.758213852074     0.623400491231    14.003074004430
         C            0.381290266636     0.102437852074    -0.006072508769    12.000000000000
         C            0.927399266636     1.398885852074    -0.165357508769    12.000000000000
         C            2.637639266636    -0.860599147926     0.118577491231    12.000000000000
         C            1.248669266636    -0.989219147926     0.159538491231    12.000000000000
         C           -1.076417733364    -0.143365147926    -0.003778508769    12.000000000000
         C            2.304684066636     1.521778152074    -0.226811508769    12.000000000000
         C            3.162014266636     0.423431852074    -0.075770508769    12.000000000000
         C            3.539847266636    -2.045108147926     0.347454491231    12.000000000000
         C           -1.609743733364    -1.283837147926    -0.627447508769    12.000000000000
         C           -2.979595733364    -1.522725147926    -0.564473508769    12.000000000000
         C           -3.191568733364     0.520797852074     0.662757491231    12.000000000000
         C           -3.791957733364    -0.604991147926     0.100988491231    12.000000000000
         H            0.814811266636    -1.973195147926     0.336943491231     1.007825032230
         H            2.755541266636     2.513299852074    -0.375422508769     1.007825032230
         H            4.241179266636     0.565612852074    -0.120484508769     1.007825032230
         H            3.860146266636    -2.109100147926     1.393401491231     1.007825032230
         H            3.030372266636    -2.980764147926     0.098968491231     1.007825032230
         H            4.441040266636    -1.977719147926    -0.269651508769     1.007825032230
         H           -0.952852733364    -1.959348147926    -1.167600508769     1.007825032230
         H            0.586231266636     3.389526852074    -0.207886508769     1.007825032230
         H           -0.769456733364     2.446348852074     0.113373491231     1.007825032230
         H           -3.407982733364    -2.401235147926    -1.041258508769     1.007825032230
         H           -3.790183733364     1.272365852074     1.175184491231     1.007825032230
         H           -4.866621733364    -0.746883147926     0.171612491231     1.007825032230

  Basis Set: AUG-CC-PVTZ
    Blend: AUG-CC-PVTZ
  Basis Set: (AUG-CC-PVTZ AUX)
    Blend: AUG-CC-PVTZ-JKFIT
	 Reference Energy          =    -570.5012461808078115 [Eh]
	 Singles Energy            =      -0.0000000000000000 [Eh]
	 Same-Spin Energy          =      -0.6408933341417594 [Eh]
	 Opposite-Spin Energy      =      -1.9777441412006691 [Eh]
	 Correlation Energy        =      -2.6186374753424286 [Eh]
	 Total Energy              =    -573.1198836561502503 [Eh]

	 ================> DF-SCS-MP2 Energies <==================
	-----------------------------------------------------------
	 SCS Same-Spin Scale       =       0.3333333333333333 [-]
	 SCS Opposite-Spin Scale   =       1.2000000000000000 [-]
	 SCS Same-Spin Energy      =      -0.2136311113805865 [Eh]
	 SCS Opposite-Spin Energy  =      -2.3732929694408029 [Eh]
	 SCS Correlation Energy    =      -2.5869240808213894 [Eh]
	 SCS Total Energy          =    -573.0881702616292159 [Eh]
	-----------------------------------------------------------

  Dipole Moment: [D]
     X:    -1.0885      Y:    -1.0011      Z:     0.0851     Total:     1.4814

*** Psi4 exiting successfully. Buy a developer a beer!
