                               Psi4 1.4a3.dev225

  ==> Input File <==

--------------------------------------------------------------------------
#psi4
#
memory 32 gb

molecule  {
0 1
  N        0.0801310     2.5312230    -0.3913130
  N       -1.9006720     0.7782080     0.6229160
  C        0.3499640     0.1224320    -0.0065570
  C        0.8960730     1.4188800    -0.1658420
  C        2.6063130    -0.8406050     0.1180930
  C        1.2173430    -0.9692250     0.1590540
  C       -1.1077440    -0.1233710    -0.0042630
  C        2.2932590     1.5435480    -0.2281840
  C        3.1306880     0.4434260    -0.0762550
  C        3.5085210    -2.0251140     0.3469700
  C       -1.6410700    -1.2638430    -0.6279320
  C       -3.0908569    -1.5553022    -0.5829181
  C       -3.2228950     0.5407920     0.6622730
  C       -3.8232840    -0.5849970     0.1005040
  H        0.7834850    -1.9532010     0.3364590
  H        2.7242150     2.5332940    -0.3759070
  H        4.2098530     0.5856070    -0.1209690
  H        3.8288200    -2.0891060     1.3929170
  H        2.9990460    -2.9607700     0.0984840
  H        4.4097140    -1.9577250    -0.2701360
  H       -0.9841790    -1.9393540    -1.1680850
  H        0.5549050     3.4095210    -0.2083710
  H       -0.8007830     2.4663430     0.1128890
  H       -3.4393090    -2.3812410    -1.0417430
  H       -3.8215100     1.2923600     1.1747000
  H       -4.8979480    -0.7268890     0.1711280
units angstrom
no_reorient  #important for SAPT in psi4, default
symmetry c1  #important for SAPT in psi4, default
}

set PROPERTIES_ORIGIN ["COM"]
properties('MP2/aug-cc-pvtz', properties = ['dipole'])
--------------------------------------------------------------------------

    Molecular point group: c1
  Charge       = 0
  Multiplicity = 1
  Basis Set: AUG-CC-PVTZ
    Blend: AUG-CC-PVTZ
  Basis Set: (AUG-CC-PVTZ AUX)
    Blend: AUG-CC-PVTZ-JKFIT

    Orbital Energies [Eh]
    ---------------------

    Doubly Occupied:

       1A    -15.569778     2A    -15.547197     3A    -11.286654
       4A    -11.282978     5A    -11.274302     6A    -11.267049
       7A    -11.249417     8A    -11.245166     9A    -11.232555
      10A    -11.231456    11A    -11.231274    12A    -11.225694
      13A    -11.221896    14A    -11.218827    15A     -1.259542
      16A     -1.209878    17A     -1.130733    18A     -1.081539
      19A     -1.060969    20A     -1.015226    21A     -0.988580
      22A     -0.914597    23A     -0.872538    24A     -0.865828
      25A     -0.813155    26A     -0.786334    27A     -0.712089
      28A     -0.688513    29A     -0.680937    30A     -0.661041
      31A     -0.647319    32A     -0.618854    33A     -0.599378
      34A     -0.594713    35A     -0.582514    36A     -0.579881
      37A     -0.570555    38A     -0.545842    39A     -0.530268
      40A     -0.518644    41A     -0.510899    42A     -0.490767
      43A     -0.484351    44A     -0.434780    45A     -0.421507
      46A     -0.384366    47A     -0.362651    48A     -0.315492
      49A     -0.277630

  @DF-RHF Final Energy:  -570.48756363237214

   => Energetics <=

    Nuclear Repulsion Energy =            810.1251439568058004
    One-Electron Energy =               -2380.6331097561701426
    Two-Electron Energy =                1000.0204021669920849
    Total Energy =                       -570.4875636323721437
  Basis Set: (AUG-CC-PVTZ AUX)
    Blend: AUG-CC-PVTZ-RI
    Molecular point group: c1

    Geometry (in Angstrom), charge = 0, multiplicity = 1:

       Center              X                  Y                   Z               Mass
    ------------   -----------------  -----------------  -----------------  -----------------
         N            0.115370380219     2.514539801774    -0.389599952872    14.003074004430
         N           -1.865432619781     0.761524801774     0.624629047128    14.003074004430
         C            0.385203380219     0.105748801774    -0.004843952872    12.000000000000
         C            0.931312380219     1.402196801774    -0.164128952872    12.000000000000
         C            2.641552380219    -0.857288198226     0.119806047128    12.000000000000
         C            1.252582380219    -0.985908198226     0.160767047128    12.000000000000
         C           -1.072504619781    -0.140054198226    -0.002549952872    12.000000000000
         C            2.328498380219     1.526864801774    -0.226470952872    12.000000000000
         C            3.165927380219     0.426742801774    -0.074541952872    12.000000000000
         C            3.543760380219    -2.041797198226     0.348683047128    12.000000000000
         C           -1.605830619781    -1.280526198226    -0.626218952872    12.000000000000
         C           -3.055617519781    -1.571985398226    -0.581205052872    12.000000000000
         C           -3.187655619781     0.524108801774     0.663986047128    12.000000000000
         C           -3.788044619781    -0.601680198226     0.102217047128    12.000000000000
         H            0.818724380219    -1.969884198226     0.338172047128     1.007825032230
         H            2.759454380219     2.516610801774    -0.374193952872     1.007825032230
         H            4.245092380219     0.568923801774    -0.119255952872     1.007825032230
         H            3.864059380219    -2.105789198226     1.394630047128     1.007825032230
         H            3.034285380219    -2.977453198226     0.100197047128     1.007825032230
         H            4.444953380219    -1.974408198226    -0.268422952872     1.007825032230
         H           -0.948939619781    -1.956037198226    -1.166371952872     1.007825032230
         H            0.590144380219     3.392837801774    -0.206657952872     1.007825032230
         H           -0.765543619781     2.449659801774     0.114602047128     1.007825032230
         H           -3.404069619781    -2.397924198226    -1.040029952872     1.007825032230
         H           -3.786270619781     1.275676801774     1.176413047128     1.007825032230
         H           -4.862708619781    -0.743572198226     0.172841047128     1.007825032230

  Basis Set: AUG-CC-PVTZ
    Blend: AUG-CC-PVTZ
  Basis Set: (AUG-CC-PVTZ AUX)
    Blend: AUG-CC-PVTZ-JKFIT
	 Reference Energy          =    -570.4875636323721437 [Eh]
	 Singles Energy            =      -0.0000000000000000 [Eh]
	 Same-Spin Energy          =      -0.6411894981913313 [Eh]
	 Opposite-Spin Energy      =      -1.9792740961686430 [Eh]
	 Correlation Energy        =      -2.6204635943599746 [Eh]
	 Total Energy              =    -573.1080272267321334 [Eh]

	 ================> DF-SCS-MP2 Energies <==================
	-----------------------------------------------------------
	 SCS Same-Spin Scale       =       0.3333333333333333 [-]
	 SCS Opposite-Spin Scale   =       1.2000000000000000 [-]
	 SCS Same-Spin Energy      =      -0.2137298327304438 [Eh]
	 SCS Opposite-Spin Energy  =      -2.3751289154023714 [Eh]
	 SCS Correlation Energy    =      -2.5888587481328149 [Eh]
	 SCS Total Energy          =    -573.0764223805049369 [Eh]
	-----------------------------------------------------------

  Dipole Moment: [D]
     X:    -1.1458      Y:    -1.0003      Z:     0.0624     Total:     1.5223

*** Psi4 exiting successfully. Buy a developer a beer!
