                               Psi4 1.4a3.dev225

  ==> Input File <==

--------------------------------------------------------------------------
#psi4
#
memory 32 gb

molecule  {
0 1
  N        0.0801310     2.5312230    -0.3913130
  N       -1.9006720     0.7782080     0.6229160
  C        0.3499640     0.1224320    -0.0065570
  C        0.8960730     1.4188800    -0.1658420
  C        2.6063130    -0.8406050     0.1180930
  C        1.2173430    -0.9692250     0.1590540
  C       -1.1077440    -0.1233710    -0.0042630
  C        2.4922711     1.5613054    -0.2370639
  C        3.1306880     0.4434260    -0.0762550
  C        3.5085210    -2.0251140     0.3469700
  C       -1.6410700    -1.2638430    -0.6279320
  C       -3.0109220    -1.5027310    -0.5649580
  C       -3.2228950     0.5407920     0.6622730
  C       -3.8232840    -0.5849970     0.1005040
  H        0.7834850    -1.9532010     0.3364590
  H        2.7242150     2.5332940    -0.3759070
  H        4.2098530     0.5856070    -0.1209690
  H        3.8288200    -2.0891060     1.3929170
  H        2.9990460    -2.9607700     0.0984840
  H        4.4097140    -1.9577250    -0.2701360
  H       -0.9841790    -1.9393540    -1.1680850
  H        0.5549050     3.4095210    -0.2083710
  H       -0.8007830     2.4663430     0.1128890
  H       -3.4393090    -2.3812410    -1.0417430
  H       -3.8215100     1.2923600     1.1747000
  H       -4.8979480    -0.7268890     0.1711280
units angstrom
no_reorient  #important for SAPT in psi4, default
symmetry c1  #important for SAPT in psi4, default
}

set PROPERTIES_ORIGIN ["COM"]
properties('MP2/aug-cc-pvtz', properties = ['dipole'])
--------------------------------------------------------------------------

    Molecular point group: c1
  Charge       = 0
  Multiplicity = 1
  Basis Set: AUG-CC-PVTZ
    Blend: AUG-CC-PVTZ
  Basis Set: (AUG-CC-PVTZ AUX)
    Blend: AUG-CC-PVTZ-JKFIT

    Orbital Energies [Eh]
    ---------------------

    Doubly Occupied:

       1A    -15.565624     2A    -15.557080     3A    -11.293965
       4A    -11.287119     5A    -11.279065     6A    -11.261207
       7A    -11.239670     8A    -11.238869     9A    -11.232969
      10A    -11.229289    11A    -11.224904    12A    -11.224225
      13A    -11.222881    14A    -11.217960    15A     -1.259252
      16A     -1.208406    17A     -1.132953    18A     -1.086320
      19A     -1.065620    20A     -1.016939    21A     -0.994635
      22A     -0.907583    23A     -0.861833    24A     -0.860826
      25A     -0.820419    26A     -0.782944    27A     -0.709395
      28A     -0.692575    29A     -0.679894    30A     -0.664012
      31A     -0.652843    32A     -0.639647    33A     -0.600777
      34A     -0.590866    35A     -0.575867    36A     -0.568681
      37A     -0.563519    38A     -0.546289    39A     -0.530322
      40A     -0.525501    41A     -0.506943    42A     -0.502577
      43A     -0.462183    44A     -0.438496    45A     -0.415248
      46A     -0.388044    47A     -0.371957    48A     -0.325018
      49A     -0.265047

  @DF-RHF Final Energy:  -570.46155079671723

   => Energetics <=

    Nuclear Repulsion Energy =            809.2879885482630016
    One-Electron Energy =               -2378.9225751381591181
    Two-Electron Energy =                 999.1730357931788831
    Total Energy =                       -570.4615507967172334
  Basis Set: (AUG-CC-PVTZ AUX)
    Blend: AUG-CC-PVTZ-RI
    Molecular point group: c1

    Geometry (in Angstrom), charge = 0, multiplicity = 1:

       Center              X                  Y                   Z               Mass
    ------------   -----------------  -----------------  -----------------  -----------------
         N            0.097188071039     2.509955646542    -0.390191818007    14.003074004430
         N           -1.883614928961     0.756940646542     0.624037181993    14.003074004430
         C            0.367021071039     0.101164646542    -0.005435818007    12.000000000000
         C            0.913130071039     1.397612646542    -0.164720818007    12.000000000000
         C            2.623370071039    -0.861872353458     0.119214181993    12.000000000000
         C            1.234400071039    -0.990492353458     0.160175181993    12.000000000000
         C           -1.090686928961    -0.144638353458    -0.003141818007    12.000000000000
         C            2.509328171039     1.540038046542    -0.235942718007    12.000000000000
         C            3.147745071039     0.422158646542    -0.075133818007    12.000000000000
         C            3.525578071039    -2.046381353458     0.348091181993    12.000000000000
         C           -1.624012928961    -1.285110353458    -0.626810818007    12.000000000000
         C           -2.993864928961    -1.523998353458    -0.563836818007    12.000000000000
         C           -3.205837928961     0.519524646542     0.663394181993    12.000000000000
         C           -3.806226928961    -0.606264353458     0.101625181993    12.000000000000
         H            0.800542071039    -1.974468353458     0.337580181993     1.007825032230
         H            2.741272071039     2.512026646542    -0.374785818007     1.007825032230
         H            4.226910071039     0.564339646542    -0.119847818007     1.007825032230
         H            3.845877071039    -2.110373353458     1.394038181993     1.007825032230
         H            3.016103071039    -2.982037353458     0.099605181993     1.007825032230
         H            4.426771071039    -1.978992353458    -0.269014818007     1.007825032230
         H           -0.967121928961    -1.960621353458    -1.166963818007     1.007825032230
         H            0.571962071039     3.388253646542    -0.207249818007     1.007825032230
         H           -0.783725928961     2.445075646542     0.114010181993     1.007825032230
         H           -3.422251928961    -2.402508353458    -1.040621818007     1.007825032230
         H           -3.804452928961     1.271092646542     1.175821181993     1.007825032230
         H           -4.880890928961    -0.748156353458     0.172249181993     1.007825032230

  Basis Set: AUG-CC-PVTZ
    Blend: AUG-CC-PVTZ
  Basis Set: (AUG-CC-PVTZ AUX)
    Blend: AUG-CC-PVTZ-JKFIT
	 Reference Energy          =    -570.4615507967172334 [Eh]
	 Singles Energy            =      -0.0000000000000000 [Eh]
	 Same-Spin Energy          =      -0.6399072415572521 [Eh]
	 Opposite-Spin Energy      =      -1.9790749946222024 [Eh]
	 Correlation Energy        =      -2.6189822361794546 [Eh]
	 Total Energy              =    -573.0805330328967102 [Eh]

	 ================> DF-SCS-MP2 Energies <==================
	-----------------------------------------------------------
	 SCS Same-Spin Scale       =       0.3333333333333333 [-]
	 SCS Opposite-Spin Scale   =       1.2000000000000000 [-]
	 SCS Same-Spin Energy      =      -0.2133024138524174 [Eh]
	 SCS Opposite-Spin Energy  =      -2.3748899935466428 [Eh]
	 SCS Correlation Energy    =      -2.5881924073990601 [Eh]
	 SCS Total Energy          =    -573.0497432041163393 [Eh]
	-----------------------------------------------------------

  Dipole Moment: [D]
     X:    -1.1053      Y:    -0.6671      Z:     0.0168     Total:     1.2911

*** Psi4 exiting successfully. Buy a developer a beer!
