                               Psi4 1.4a3.dev225

  ==> Input File <==

--------------------------------------------------------------------------
#psi4
#
memory 32 gb

molecule  {
0 1
  N        0.0801310     2.5312230    -0.3913130
  N       -1.9006720     0.7782080     0.6229160
  C        0.3499640     0.1224320    -0.0065570
  C        0.8960730     1.4188800    -0.1658420
  C        2.6063130    -0.8406050     0.1180930
  C        1.2173430    -0.9692250     0.1590540
  C       -1.1077440    -0.1233710    -0.0042630
  C        2.2932590     1.5435480    -0.2281840
  C        3.1306880     0.4434260    -0.0762550
  C        3.5085210    -2.0251140     0.3469700
  C       -1.6486617    -1.2800773    -0.6368097
  C       -3.0109220    -1.5027310    -0.5649580
  C       -3.2228950     0.5407920     0.6622730
  C       -3.8232840    -0.5849970     0.1005040
  H        0.7834850    -1.9532010     0.3364590
  H        2.7242150     2.5332940    -0.3759070
  H        4.2098530     0.5856070    -0.1209690
  H        3.8288200    -2.0891060     1.3929170
  H        2.9990460    -2.9607700     0.0984840
  H        4.4097140    -1.9577250    -0.2701360
  H       -0.9841790    -1.9393540    -1.1680850
  H        0.5549050     3.4095210    -0.2083710
  H       -0.8007830     2.4663430     0.1128890
  H       -3.4393090    -2.3812410    -1.0417430
  H       -3.8215100     1.2923600     1.1747000
  H       -4.8979480    -0.7268890     0.1711280
units angstrom
no_reorient  #important for SAPT in psi4, default
symmetry c1  #important for SAPT in psi4, default
}

set PROPERTIES_ORIGIN ["COM"]
properties('MP2/aug-cc-pvtz', properties = ['dipole'])
--------------------------------------------------------------------------

    Molecular point group: c1
  Charge       = 0
  Multiplicity = 1
  Basis Set: AUG-CC-PVTZ
    Blend: AUG-CC-PVTZ
  Basis Set: (AUG-CC-PVTZ AUX)
    Blend: AUG-CC-PVTZ-JKFIT

    Orbital Energies [Eh]
    ---------------------

    Doubly Occupied:

       1A    -15.567507     2A    -15.548024     3A    -11.291448
       4A    -11.279739     5A    -11.275920     6A    -11.260752
       7A    -11.241139     8A    -11.241049     9A    -11.234003
      10A    -11.233036    11A    -11.232815    12A    -11.227025
      13A    -11.223100    14A    -11.219785    15A     -1.260230
      16A     -1.210920    17A     -1.132007    18A     -1.088788
      19A     -1.061857    20A     -1.016460    21A     -0.992172
      22A     -0.915916    23A     -0.871584    24A     -0.860223
      25A     -0.815285    26A     -0.783025    27A     -0.708976
      28A     -0.689985    29A     -0.681769    30A     -0.661780
      31A     -0.649665    32A     -0.613012    33A     -0.601066
      34A     -0.589219    35A     -0.582406    36A     -0.573120
      37A     -0.569314    38A     -0.547500    39A     -0.533819
      40A     -0.530549    41A     -0.513267    42A     -0.493623
      43A     -0.486244    44A     -0.435345    45A     -0.417867
      46A     -0.388969    47A     -0.365563    48A     -0.316046
      49A     -0.278671

  @DF-RHF Final Energy:  -570.50125241805245

   => Energetics <=

    Nuclear Repulsion Energy =            811.6847828095719706
    One-Electron Energy =               -2383.7489035234880248
    Two-Electron Energy =                1001.5628682958636091
    Total Energy =                       -570.5012524180524451
  Basis Set: (AUG-CC-PVTZ AUX)
    Blend: AUG-CC-PVTZ-RI
    Molecular point group: c1

    Geometry (in Angstrom), charge = 0, multiplicity = 1:

       Center              X                  Y                   Z               Mass
    ------------   -----------------  -----------------  -----------------  -----------------
         N            0.110654909433     2.512171291805    -0.390191961407    14.003074004430
         N           -1.870148090567     0.759156291805     0.624037038593    14.003074004430
         C            0.380487909433     0.103380291805    -0.005435961407    12.000000000000
         C            0.926596909433     1.399828291805    -0.164720961407    12.000000000000
         C            2.636836909433    -0.859656708195     0.119214038593    12.000000000000
         C            1.247866909433    -0.988276708195     0.160175038593    12.000000000000
         C           -1.077220090567    -0.142422708195    -0.003141961407    12.000000000000
         C            2.323782909433     1.524496291805    -0.227062961407    12.000000000000
         C            3.161211909433     0.424374291805    -0.075133961407    12.000000000000
         C            3.539044909433    -2.044165708195     0.348091038593    12.000000000000
         C           -1.618137790567    -1.299129008195    -0.635688661407    12.000000000000
         C           -2.980398090567    -1.521782708195    -0.563836961407    12.000000000000
         C           -3.192371090567     0.521740291805     0.663394038593    12.000000000000
         C           -3.792760090567    -0.604048708195     0.101625038593    12.000000000000
         H            0.814008909433    -1.972252708195     0.337580038593     1.007825032230
         H            2.754738909433     2.514242291805    -0.374785961407     1.007825032230
         H            4.240376909433     0.566555291805    -0.119847961407     1.007825032230
         H            3.859343909433    -2.108157708195     1.394038038593     1.007825032230
         H            3.029569909433    -2.979821708195     0.099605038593     1.007825032230
         H            4.440237909433    -1.976776708195    -0.269014961407     1.007825032230
         H           -0.953655090567    -1.958405708195    -1.166963961407     1.007825032230
         H            0.585428909433     3.390469291805    -0.207249961407     1.007825032230
         H           -0.770259090567     2.447291291805     0.114010038593     1.007825032230
         H           -3.408785090567    -2.400292708195    -1.040621961407     1.007825032230
         H           -3.790986090567     1.273308291805     1.175821038593     1.007825032230
         H           -4.867424090567    -0.745940708195     0.172249038593     1.007825032230

  Basis Set: AUG-CC-PVTZ
    Blend: AUG-CC-PVTZ
  Basis Set: (AUG-CC-PVTZ AUX)
    Blend: AUG-CC-PVTZ-JKFIT
	 Reference Energy          =    -570.5012524180524451 [Eh]
	 Singles Energy            =      -0.0000000000000000 [Eh]
	 Same-Spin Energy          =      -0.6407792124612917 [Eh]
	 Opposite-Spin Energy      =      -1.9776676839239469 [Eh]
	 Correlation Energy        =      -2.6184468963852385 [Eh]
	 Total Energy              =    -573.1196993144376393 [Eh]

	 ================> DF-SCS-MP2 Energies <==================
	-----------------------------------------------------------
	 SCS Same-Spin Scale       =       0.3333333333333333 [-]
	 SCS Opposite-Spin Scale   =       1.2000000000000000 [-]
	 SCS Same-Spin Energy      =      -0.2135930708204306 [Eh]
	 SCS Opposite-Spin Energy  =      -2.3732012207087361 [Eh]
	 SCS Correlation Energy    =      -2.5867942915291664 [Eh]
	 SCS Total Energy          =    -573.0880467095815902 [Eh]
	-----------------------------------------------------------

  Dipole Moment: [D]
     X:    -1.0593      Y:    -0.9535      Z:     0.0771     Total:     1.4273

*** Psi4 exiting successfully. Buy a developer a beer!
