                               Psi4 1.4a3.dev225

  ==> Input File <==

--------------------------------------------------------------------------
#psi4
#
memory 32 gb

molecule  {
0 1
  N        0.0801310     2.5312230    -0.3913130
  N       -1.9167898     0.8573491     0.6706283
  C        0.3499640     0.1224320    -0.0065570
  C        0.8960730     1.4188800    -0.1658420
  C        2.6063130    -0.8406050     0.1180930
  C        1.2173430    -0.9692250     0.1590540
  C       -1.1077440    -0.1233710    -0.0042630
  C        2.2932590     1.5435480    -0.2281840
  C        3.1306880     0.4434260    -0.0762550
  C        3.5085210    -2.0251140     0.3469700
  C       -1.6410700    -1.2638430    -0.6279320
  C       -3.0109220    -1.5027310    -0.5649580
  C       -3.2228950     0.5407920     0.6622730
  C       -3.8232840    -0.5849970     0.1005040
  H        0.7834850    -1.9532010     0.3364590
  H        2.7242150     2.5332940    -0.3759070
  H        4.2098530     0.5856070    -0.1209690
  H        3.8288200    -2.0891060     1.3929170
  H        2.9990460    -2.9607700     0.0984840
  H        4.4097140    -1.9577250    -0.2701360
  H       -0.9841790    -1.9393540    -1.1680850
  H        0.5549050     3.4095210    -0.2083710
  H       -0.8007830     2.4663430     0.1128890
  H       -3.4393090    -2.3812410    -1.0417430
  H       -3.8215100     1.2923600     1.1747000
  H       -4.8979480    -0.7268890     0.1711280
units angstrom
no_reorient  #important for SAPT in psi4, default
symmetry c1  #important for SAPT in psi4, default
}

set PROPERTIES_ORIGIN ["COM"]
properties('MP2/aug-cc-pvtz', properties = ['dipole'])
--------------------------------------------------------------------------

    Molecular point group: c1
  Charge       = 0
  Multiplicity = 1
  Basis Set: AUG-CC-PVTZ
    Blend: AUG-CC-PVTZ
  Basis Set: (AUG-CC-PVTZ AUX)
    Blend: AUG-CC-PVTZ-JKFIT

    Orbital Energies [Eh]
    ---------------------

    Doubly Occupied:

       1A    -15.578552     2A    -15.547126     3A    -11.297686
       4A    -11.280961     5A    -11.276066     6A    -11.266018
       7A    -11.242691     8A    -11.241695     9A    -11.234485
      10A    -11.233310    11A    -11.233208    12A    -11.227001
      13A    -11.223040    14A    -11.219853    15A     -1.245592
      16A     -1.209448    17A     -1.132273    18A     -1.089943
      19A     -1.061776    20A     -1.016456    21A     -0.990108
      22A     -0.915923    23A     -0.872330    24A     -0.858102
      25A     -0.811447    26A     -0.782401    27A     -0.706989
      28A     -0.689900    29A     -0.681422    30A     -0.659325
      31A     -0.646809    32A     -0.611037    33A     -0.600492
      34A     -0.590051    35A     -0.582230    36A     -0.572729
      37A     -0.569602    38A     -0.541833    39A     -0.532299
      40A     -0.527997    41A     -0.510998    42A     -0.491405
      43A     -0.482874    44A     -0.439379    45A     -0.427881
      46A     -0.385658    47A     -0.369685    48A     -0.315315
      49A     -0.277934

  @DF-RHF Final Energy:  -570.48995796016891

   => Energetics <=

    Nuclear Repulsion Energy =            809.9494929877265577
    One-Electron Energy =               -2380.2762374947074022
    Two-Electron Energy =                 999.8367865468120499
    Total Energy =                       -570.4899579601689084
  Basis Set: (AUG-CC-PVTZ AUX)
    Blend: AUG-CC-PVTZ-RI
    Molecular point group: c1

    Geometry (in Angstrom), charge = 0, multiplicity = 1:

       Center              X                  Y                   Z               Mass
    ------------   -----------------  -----------------  -----------------  -----------------
         N            0.111386024646     2.505093454012    -0.394399734706    14.003074004430
         N           -1.885534775354     0.831219554012     0.667541565294    14.003074004430
         C            0.381219024646     0.096302454012    -0.009643734706    12.000000000000
         C            0.927328024646     1.392750454012    -0.168928734706    12.000000000000
         C            2.637568024646    -0.866734545988     0.115006265294    12.000000000000
         C            1.248598024646    -0.995354545988     0.155967265294    12.000000000000
         C           -1.076488975354    -0.149500545988    -0.007349734706    12.000000000000
         C            2.324514024646     1.517418454012    -0.231270734706    12.000000000000
         C            3.161943024646     0.417296454012    -0.079341734706    12.000000000000
         C            3.539776024646    -2.051243545988     0.343883265294    12.000000000000
         C           -1.609814975354    -1.289972545988    -0.631018734706    12.000000000000
         C           -2.979666975354    -1.528860545988    -0.568044734706    12.000000000000
         C           -3.191639975354     0.514662454012     0.659186265294    12.000000000000
         C           -3.792028975354    -0.611126545988     0.097417265294    12.000000000000
         H            0.814740024646    -1.979330545988     0.333372265294     1.007825032230
         H            2.755470024646     2.507164454012    -0.378993734706     1.007825032230
         H            4.241108024646     0.559477454012    -0.124055734706     1.007825032230
         H            3.860075024646    -2.115235545988     1.389830265294     1.007825032230
         H            3.030301024646    -2.986899545988     0.095397265294     1.007825032230
         H            4.440969024646    -1.983854545988    -0.273222734706     1.007825032230
         H           -0.952923975354    -1.965483545988    -1.171171734706     1.007825032230
         H            0.586160024646     3.383391454012    -0.211457734706     1.007825032230
         H           -0.769527975354     2.440213454012     0.109802265294     1.007825032230
         H           -3.408053975354    -2.407370545988    -1.044829734706     1.007825032230
         H           -3.790254975354     1.266230454012     1.171613265294     1.007825032230
         H           -4.866692975354    -0.753018545988     0.168041265294     1.007825032230

  Basis Set: AUG-CC-PVTZ
    Blend: AUG-CC-PVTZ
  Basis Set: (AUG-CC-PVTZ AUX)
    Blend: AUG-CC-PVTZ-JKFIT
	 Reference Energy          =    -570.4899579601689084 [Eh]
	 Singles Energy            =      -0.0000000000000000 [Eh]
	 Same-Spin Energy          =      -0.6417325586343261 [Eh]
	 Opposite-Spin Energy      =      -1.9807899027643641 [Eh]
	 Correlation Energy        =      -2.6225224613986899 [Eh]
	 Total Energy              =    -573.1124804215676249 [Eh]

	 ================> DF-SCS-MP2 Energies <==================
	-----------------------------------------------------------
	 SCS Same-Spin Scale       =       0.3333333333333333 [-]
	 SCS Opposite-Spin Scale   =       1.2000000000000000 [-]
	 SCS Same-Spin Energy      =      -0.2139108528781087 [Eh]
	 SCS Opposite-Spin Energy  =      -2.3769478833172366 [Eh]
	 SCS Correlation Energy    =      -2.5908587361953455 [Eh]
	 SCS Total Energy          =    -573.0808166963643089 [Eh]
	-----------------------------------------------------------

  Dipole Moment: [D]
     X:    -1.0694      Y:    -1.0951      Z:     0.0014     Total:     1.5306

*** Psi4 exiting successfully. Buy a developer a beer!
