                               Psi4 1.4a3.dev225

  ==> Input File <==

--------------------------------------------------------------------------
#psi4
#
memory 32 gb

molecule  {
0 1
  N        0.0801310     2.5312230    -0.3913130
  N       -1.9006720     0.7782080     0.6229160
  C        0.3499640     0.1224320    -0.0065570
  C        0.8960730     1.4188800    -0.1658420
  C        2.6063130    -0.8406050     0.1180930
  C        1.2173430    -0.9692250     0.1590540
  C       -1.1077440    -0.1233710    -0.0042630
  C        2.2932590     1.5435480    -0.2281840
  C        3.1306880     0.4434260    -0.0762550
  C        3.5085210    -2.0251140     0.3469700
  C       -1.6410700    -1.2638430    -0.6279320
  C       -3.0109220    -1.5027310    -0.5649580
  C       -3.2228950     0.5407920     0.6622730
  C       -3.8232840    -0.5849970     0.1005040
  H        0.7914463    -1.9351450     0.3332036
  H        2.7242150     2.5332940    -0.3759070
  H        4.2098530     0.5856070    -0.1209690
  H        3.8288200    -2.0891060     1.3929170
  H        2.9990460    -2.9607700     0.0984840
  H        4.4097140    -1.9577250    -0.2701360
  H       -0.9841790    -1.9393540    -1.1680850
  H        0.5549050     3.4095210    -0.2083710
  H       -0.8007830     2.4663430     0.1128890
  H       -3.4393090    -2.3812410    -1.0417430
  H       -3.8215100     1.2923600     1.1747000
  H       -4.8979480    -0.7268890     0.1711280
units angstrom
no_reorient  #important for SAPT in psi4, default
symmetry c1  #important for SAPT in psi4, default
}

set PROPERTIES_ORIGIN ["COM"]
properties('MP2/aug-cc-pvtz', properties = ['dipole'])
--------------------------------------------------------------------------

    Molecular point group: c1
  Charge       = 0
  Multiplicity = 1
  Basis Set: AUG-CC-PVTZ
    Blend: AUG-CC-PVTZ
  Basis Set: (AUG-CC-PVTZ AUX)
    Blend: AUG-CC-PVTZ-JKFIT

    Orbital Energies [Eh]
    ---------------------

    Doubly Occupied:

       1A    -15.567535     2A    -15.547630     3A    -11.288677
       4A    -11.280261     5A    -11.275223     6A    -11.262449
       7A    -11.241633     8A    -11.240884     9A    -11.232731
      10A    -11.232386    11A    -11.230489    12A    -11.226405
      13A    -11.222628    14A    -11.219517    15A     -1.261014
      16A     -1.210554    17A     -1.131774    18A     -1.087869
      19A     -1.063024    20A     -1.016237    21A     -0.992644
      22A     -0.915767    23A     -0.870754    24A     -0.862138
      25A     -0.815576    26A     -0.783520    27A     -0.708970
      28A     -0.689726    29A     -0.682734    30A     -0.660493
      31A     -0.650298    32A     -0.613732    33A     -0.600697
      34A     -0.589025    35A     -0.583378    36A     -0.573705
      37A     -0.570045    38A     -0.548384    39A     -0.532720
      40A     -0.529400    41A     -0.512930    42A     -0.492977
      43A     -0.486163    44A     -0.434974    45A     -0.418823
      46A     -0.387578    47A     -0.366606    48A     -0.316414
      49A     -0.278419

  @DF-RHF Final Energy:  -570.50192516316827

   => Energetics <=

    Nuclear Repulsion Energy =            812.1162210401995480
    One-Electron Energy =               -2384.6212751933903746
    Two-Electron Energy =                1002.0031289900226739
    Total Energy =                       -570.5019251631682664
  Basis Set: (AUG-CC-PVTZ AUX)
    Blend: AUG-CC-PVTZ-RI
    Molecular point group: c1

    Geometry (in Angstrom), charge = 0, multiplicity = 1:

       Center              X                  Y                   Z               Mass
    ------------   -----------------  -----------------  -----------------  -----------------
         N            0.110116484819     2.511014263924    -0.390752806053    14.003074004430
         N           -1.870686515181     0.757999263924     0.623476193947    14.003074004430
         C            0.379949484819     0.102223263924    -0.005996806053    12.000000000000
         C            0.926058484819     1.398671263924    -0.165281806053    12.000000000000
         C            2.636298484819    -0.860813736076     0.118653193947    12.000000000000
         C            1.247328484819    -0.989433736076     0.159614193947    12.000000000000
         C           -1.077758515181    -0.143579736076    -0.003702806053    12.000000000000
         C            2.323244484819     1.523339263924    -0.227623806053    12.000000000000
         C            3.160673484819     0.423217263924    -0.075694806053    12.000000000000
         C            3.538506484819    -2.045322736076     0.347530193947    12.000000000000
         C           -1.611084515181    -1.284051736076    -0.627371806053    12.000000000000
         C           -2.980936515181    -1.522939736076    -0.564397806053    12.000000000000
         C           -3.192909515181     0.520583263924     0.662833193947    12.000000000000
         C           -3.793298515181    -0.605205736076     0.101064193947    12.000000000000
         H            0.821431784819    -1.955353736076     0.333763793947     1.007825032230
         H            2.754200484819     2.513085263924    -0.375346806053     1.007825032230
         H            4.239838484819     0.565398263924    -0.120408806053     1.007825032230
         H            3.858805484819    -2.109314736076     1.393477193947     1.007825032230
         H            3.029031484819    -2.980978736076     0.099044193947     1.007825032230
         H            4.439699484819    -1.977933736076    -0.269575806053     1.007825032230
         H           -0.954193515181    -1.959562736076    -1.167524806053     1.007825032230
         H            0.584890484819     3.389312263924    -0.207810806053     1.007825032230
         H           -0.770797515181     2.446134263924     0.113449193947     1.007825032230
         H           -3.409323515181    -2.401449736076    -1.041182806053     1.007825032230
         H           -3.791524515181     1.272151263924     1.175260193947     1.007825032230
         H           -4.867962515181    -0.747097736076     0.171688193947     1.007825032230

  Basis Set: AUG-CC-PVTZ
    Blend: AUG-CC-PVTZ
  Basis Set: (AUG-CC-PVTZ AUX)
    Blend: AUG-CC-PVTZ-JKFIT
	 Reference Energy          =    -570.5019251631682664 [Eh]
	 Singles Energy            =      -0.0000000000000000 [Eh]
	 Same-Spin Energy          =      -0.6407643395387874 [Eh]
	 Opposite-Spin Energy      =      -1.9775101385120597 [Eh]
	 Correlation Energy        =      -2.6182744780508473 [Eh]
	 Total Energy              =    -573.1201996412190738 [Eh]

	 ================> DF-SCS-MP2 Energies <==================
	-----------------------------------------------------------
	 SCS Same-Spin Scale       =       0.3333333333333333 [-]
	 SCS Opposite-Spin Scale   =       1.2000000000000000 [-]
	 SCS Same-Spin Energy      =      -0.2135881131795958 [Eh]
	 SCS Opposite-Spin Energy  =      -2.3730121662144716 [Eh]
	 SCS Correlation Energy    =      -2.5866002793940672 [Eh]
	 SCS Total Energy          =    -573.0885254425622861 [Eh]
	-----------------------------------------------------------

  Dipole Moment: [D]
     X:    -1.1007      Y:    -0.9711      Z:     0.0789     Total:     1.4700

*** Psi4 exiting successfully. Buy a developer a beer!
