                               Psi4 1.4a3.dev225

  ==> Input File <==

--------------------------------------------------------------------------
#psi4
#
memory 32 gb

molecule  {
0 1
  N        0.0801310     2.5312230    -0.3913130
  N       -1.9006720     0.7782080     0.6229160
  C        0.3499640     0.1224320    -0.0065570
  C        0.8960730     1.4188800    -0.1658420
  C        2.6063130    -0.8406050     0.1180930
  C        1.2173430    -0.9692250     0.1590540
  C       -1.1077440    -0.1233710    -0.0042630
  C        2.2550243     1.5141102    -0.2228378
  C        3.1306880     0.4434260    -0.0762550
  C        3.5085210    -2.0251140     0.3469700
  C       -1.6410700    -1.2638430    -0.6279320
  C       -3.0109220    -1.5027310    -0.5649580
  C       -3.2228950     0.5407920     0.6622730
  C       -3.8232840    -0.5849970     0.1005040
  H        0.7834850    -1.9532010     0.3364590
  H        2.7242150     2.5332940    -0.3759070
  H        4.2098530     0.5856070    -0.1209690
  H        3.8288200    -2.0891060     1.3929170
  H        2.9990460    -2.9607700     0.0984840
  H        4.4097140    -1.9577250    -0.2701360
  H       -0.9841790    -1.9393540    -1.1680850
  H        0.5549050     3.4095210    -0.2083710
  H       -0.8007830     2.4663430     0.1128890
  H       -3.4393090    -2.3812410    -1.0417430
  H       -3.8215100     1.2923600     1.1747000
  H       -4.8979480    -0.7268890     0.1711280
units angstrom
no_reorient  #important for SAPT in psi4, default
symmetry c1  #important for SAPT in psi4, default
}

set PROPERTIES_ORIGIN ["COM"]
properties('MP2/aug-cc-pvtz', properties = ['dipole'])
--------------------------------------------------------------------------

    Molecular point group: c1
  Charge       = 0
  Multiplicity = 1
  Basis Set: AUG-CC-PVTZ
    Blend: AUG-CC-PVTZ
  Basis Set: (AUG-CC-PVTZ AUX)
    Blend: AUG-CC-PVTZ-JKFIT

    Orbital Energies [Eh]
    ---------------------

    Doubly Occupied:

       1A    -15.567866     2A    -15.546384     3A    -11.288720
       4A    -11.280413     5A    -11.269704     6A    -11.262571
       7A    -11.241946     8A    -11.241124     9A    -11.234311
      10A    -11.232348    11A    -11.232201    12A    -11.227407
      13A    -11.221628    14A    -11.219764    15A     -1.261327
      16A     -1.211916    17A     -1.133297    18A     -1.088071
      19A     -1.063220    20A     -1.019344    21A     -0.991751
      22A     -0.918150    23A     -0.872895    24A     -0.862105
      25A     -0.812517    26A     -0.783089    27A     -0.708910
      28A     -0.690374    29A     -0.682360    30A     -0.660134
      31A     -0.649919    32A     -0.608645    33A     -0.602285
      34A     -0.589187    35A     -0.580662    36A     -0.573669
      37A     -0.570132    38A     -0.548679    39A     -0.534279
      40A     -0.529698    41A     -0.515395    42A     -0.494456
      43A     -0.479550    44A     -0.435301    45A     -0.419002
      46A     -0.387731    47A     -0.366564    48A     -0.316561
      49A     -0.281426

  @DF-RHF Final Energy:  -570.49883452042025

   => Energetics <=

    Nuclear Repulsion Energy =            813.0127070209058502
    One-Electron Energy =               -2386.4051079833775475
    Two-Electron Energy =                1002.8935664420513376
    Total Energy =                       -570.4988345204202460
  Basis Set: (AUG-CC-PVTZ AUX)
    Blend: AUG-CC-PVTZ-RI
    Molecular point group: c1

    Geometry (in Angstrom), charge = 0, multiplicity = 1:

       Center              X                  Y                   Z               Mass
    ------------   -----------------  -----------------  -----------------  -----------------
         N            0.112652279902     2.513031921671    -0.391119102935    14.003074004430
         N           -1.868150720098     0.760016921671     0.623109897065    14.003074004430
         C            0.382485279902     0.104240921671    -0.006363102935    12.000000000000
         C            0.928594279902     1.400688921671    -0.165648102935    12.000000000000
         C            2.638834279902    -0.858796078329     0.118286897065    12.000000000000
         C            1.249864279902    -0.987416078329     0.159247897065    12.000000000000
         C           -1.075222720098    -0.141562078329    -0.004069102935    12.000000000000
         C            2.287545579902     1.495919121671    -0.222643902935    12.000000000000
         C            3.163209279902     0.425234921671    -0.076061102935    12.000000000000
         C            3.541042279902    -2.043305078329     0.347163897065    12.000000000000
         C           -1.608548720098    -1.282034078329    -0.627738102935    12.000000000000
         C           -2.978400720098    -1.520922078329    -0.564764102935    12.000000000000
         C           -3.190373720098     0.522600921671     0.662466897065    12.000000000000
         C           -3.790762720098    -0.603188078329     0.100697897065    12.000000000000
         H            0.816006279902    -1.971392078329     0.336652897065     1.007825032230
         H            2.756736279902     2.515102921671    -0.375713102935     1.007825032230
         H            4.242374279902     0.567415921671    -0.120775102935     1.007825032230
         H            3.861341279902    -2.107297078329     1.393110897065     1.007825032230
         H            3.031567279902    -2.978961078329     0.098677897065     1.007825032230
         H            4.442235279902    -1.975916078329    -0.269942102935     1.007825032230
         H           -0.951657720098    -1.957545078329    -1.167891102935     1.007825032230
         H            0.587426279902     3.391329921671    -0.208177102935     1.007825032230
         H           -0.768261720098     2.448151921671     0.113082897065     1.007825032230
         H           -3.406787720098    -2.399432078329    -1.041549102935     1.007825032230
         H           -3.788988720098     1.274168921671     1.174893897065     1.007825032230
         H           -4.865426720098    -0.745080078329     0.171321897065     1.007825032230

  Basis Set: AUG-CC-PVTZ
    Blend: AUG-CC-PVTZ
  Basis Set: (AUG-CC-PVTZ AUX)
    Blend: AUG-CC-PVTZ-JKFIT
	 Reference Energy          =    -570.4988345204202460 [Eh]
	 Singles Energy            =      -0.0000000000000000 [Eh]
	 Same-Spin Energy          =      -0.6410549679446034 [Eh]
	 Opposite-Spin Energy      =      -1.9778446854656186 [Eh]
	 Correlation Energy        =      -2.6188996534102218 [Eh]
	 Total Energy              =    -573.1177341738305131 [Eh]

	 ================> DF-SCS-MP2 Energies <==================
	-----------------------------------------------------------
	 SCS Same-Spin Scale       =       0.3333333333333333 [-]
	 SCS Opposite-Spin Scale   =       1.2000000000000000 [-]
	 SCS Same-Spin Energy      =      -0.2136849893148678 [Eh]
	 SCS Opposite-Spin Energy  =      -2.3734136225587421 [Eh]
	 SCS Correlation Energy    =      -2.5870986118736097 [Eh]
	 SCS Total Energy          =    -573.0859331322938033 [Eh]
	-----------------------------------------------------------

  Dipole Moment: [D]
     X:    -1.0798      Y:    -1.0389      Z:     0.0926     Total:     1.5013

*** Psi4 exiting successfully. Buy a developer a beer!
