                               Psi4 1.4a3.dev225

  ==> Input File <==

--------------------------------------------------------------------------
#psi4
#
memory 32 gb

molecule  {
0 1
  N        0.0801310     2.5312230    -0.3913130
  N       -1.9006720     0.7782080     0.6229160
  C        0.3499640     0.1224320    -0.0065570
  C        0.8960730     1.4188800    -0.1658420
  C        2.5936008    -0.7454402     0.1016647
  C        1.2173430    -0.9692250     0.1590540
  C       -1.1077440    -0.1233710    -0.0042630
  C        2.2932590     1.5435480    -0.2281840
  C        3.1306880     0.4434260    -0.0762550
  C        3.5085210    -2.0251140     0.3469700
  C       -1.6410700    -1.2638430    -0.6279320
  C       -3.0109220    -1.5027310    -0.5649580
  C       -3.2228950     0.5407920     0.6622730
  C       -3.8232840    -0.5849970     0.1005040
  H        0.7834850    -1.9532010     0.3364590
  H        2.7242150     2.5332940    -0.3759070
  H        4.2098530     0.5856070    -0.1209690
  H        3.8288200    -2.0891060     1.3929170
  H        2.9990460    -2.9607700     0.0984840
  H        4.4097140    -1.9577250    -0.2701360
  H       -0.9841790    -1.9393540    -1.1680850
  H        0.5549050     3.4095210    -0.2083710
  H       -0.8007830     2.4663430     0.1128890
  H       -3.4393090    -2.3812410    -1.0417430
  H       -3.8215100     1.2923600     1.1747000
  H       -4.8979480    -0.7268890     0.1711280
units angstrom
no_reorient  #important for SAPT in psi4, default
symmetry c1  #important for SAPT in psi4, default
}

set PROPERTIES_ORIGIN ["COM"]
properties('MP2/aug-cc-pvtz', properties = ['dipole'])
--------------------------------------------------------------------------

    Molecular point group: c1
  Charge       = 0
  Multiplicity = 1
  Basis Set: AUG-CC-PVTZ
    Blend: AUG-CC-PVTZ
  Basis Set: (AUG-CC-PVTZ AUX)
    Blend: AUG-CC-PVTZ-JKFIT

    Orbital Energies [Eh]
    ---------------------

    Doubly Occupied:

       1A    -15.568632     2A    -15.546127     3A    -11.289286
       4A    -11.281141     5A    -11.273477     6A    -11.263435
       7A    -11.242798     8A    -11.242140     9A    -11.235305
      10A    -11.233902    11A    -11.222690    12A    -11.221174
      13A    -11.220551    14A    -11.220182    15A     -1.262012
      16A     -1.210578    17A     -1.138605    18A     -1.088919
      19A     -1.066238    20A     -1.005062    21A     -0.996107
      22A     -0.912115    23A     -0.874523    24A     -0.863175
      25A     -0.819350    26A     -0.783238    27A     -0.708060
      28A     -0.691451    29A     -0.683978    30A     -0.661074
      31A     -0.649815    32A     -0.610169    33A     -0.601971
      34A     -0.593062    35A     -0.581748    36A     -0.574420
      37A     -0.565249    38A     -0.547712    39A     -0.531554
      40A     -0.529491    41A     -0.513375    42A     -0.497526
      43A     -0.468360    44A     -0.440175    45A     -0.420027
      46A     -0.388876    47A     -0.369144    48A     -0.315442
      49A     -0.283497

  @DF-RHF Final Energy:  -570.49138248586974

   => Energetics <=

    Nuclear Repulsion Energy =            813.0161723819159079
    One-Electron Energy =               -2386.4012299181686103
    Two-Electron Energy =                1002.8936750503828534
    Total Energy =                       -570.4913824858697353
  Basis Set: (AUG-CC-PVTZ AUX)
    Blend: AUG-CC-PVTZ-RI
    Molecular point group: c1

    Geometry (in Angstrom), charge = 0, multiplicity = 1:

       Center              X                  Y                   Z               Mass
    ------------   -----------------  -----------------  -----------------  -----------------
         N            0.110988673603     2.504910081329    -0.389699798582    14.003074004430
         N           -1.869814326397     0.751895081329     0.624529201418    14.003074004430
         C            0.380821673603     0.096119081329    -0.004943798582    12.000000000000
         C            0.926930673603     1.392567081329    -0.164228798582    12.000000000000
         C            2.624458473603    -0.771753118671     0.103277901418    12.000000000000
         C            1.248200673603    -0.995537918671     0.160667201418    12.000000000000
         C           -1.076886326397    -0.149683918671    -0.002649798582    12.000000000000
         C            2.324116673603     1.517235081329    -0.226570798582    12.000000000000
         C            3.161545673603     0.417113081329    -0.074641798582    12.000000000000
         C            3.539378673603    -2.051426918671     0.348583201418    12.000000000000
         C           -1.610212326397    -1.290155918671    -0.626318798582    12.000000000000
         C           -2.980064326397    -1.529043918671    -0.563344798582    12.000000000000
         C           -3.192037326397     0.514479081329     0.663886201418    12.000000000000
         C           -3.792426326397    -0.611309918671     0.102117201418    12.000000000000
         H            0.814342673603    -1.979513918671     0.338072201418     1.007825032230
         H            2.755072673603     2.506981081329    -0.374293798582     1.007825032230
         H            4.240710673603     0.559294081329    -0.119355798582     1.007825032230
         H            3.859677673603    -2.115418918671     1.394530201418     1.007825032230
         H            3.029903673603    -2.987082918671     0.100097201418     1.007825032230
         H            4.440571673603    -1.984037918671    -0.268522798582     1.007825032230
         H           -0.953321326397    -1.965666918671    -1.166471798582     1.007825032230
         H            0.585762673603     3.383208081329    -0.206757798582     1.007825032230
         H           -0.769925326397     2.440030081329     0.114502201418     1.007825032230
         H           -3.408451326397    -2.407553918671    -1.040129798582     1.007825032230
         H           -3.790652326397     1.266047081329     1.176313201418     1.007825032230
         H           -4.867090326397    -0.753201918671     0.172741201418     1.007825032230

  Basis Set: AUG-CC-PVTZ
    Blend: AUG-CC-PVTZ
  Basis Set: (AUG-CC-PVTZ AUX)
    Blend: AUG-CC-PVTZ-JKFIT
	 Reference Energy          =    -570.4913824858697353 [Eh]
	 Singles Energy            =      -0.0000000000000000 [Eh]
	 Same-Spin Energy          =      -0.6405081457900975 [Eh]
	 Opposite-Spin Energy      =      -1.9773144853237912 [Eh]
	 Correlation Energy        =      -2.6178226311138886 [Eh]
	 Total Energy              =    -573.1092051169836168 [Eh]

	 ================> DF-SCS-MP2 Energies <==================
	-----------------------------------------------------------
	 SCS Same-Spin Scale       =       0.3333333333333333 [-]
	 SCS Opposite-Spin Scale   =       1.2000000000000000 [-]
	 SCS Same-Spin Energy      =      -0.2135027152633658 [Eh]
	 SCS Opposite-Spin Energy  =      -2.3727773823885494 [Eh]
	 SCS Correlation Energy    =      -2.5862800976519154 [Eh]
	 SCS Total Energy          =    -573.0776625835216009 [Eh]
	-----------------------------------------------------------

  Dipole Moment: [D]
     X:    -1.2257      Y:    -0.9244      Z:     0.0671     Total:     1.5366

*** Psi4 exiting successfully. Buy a developer a beer!
