                               Psi4 1.4a3.dev225

  ==> Input File <==

--------------------------------------------------------------------------
#psi4
#
memory 32 gb

molecule  {
0 1
  N        0.0801310     2.5312230    -0.3913130
  N       -1.9006720     0.7782080     0.6229160
  C        0.3499640     0.1224320    -0.0065570
  C        0.9544454     1.3393031    -0.1497118
  C        2.6063130    -0.8406050     0.1180930
  C        1.2173430    -0.9692250     0.1590540
  C       -1.1077440    -0.1233710    -0.0042630
  C        2.2932590     1.5435480    -0.2281840
  C        3.1306880     0.4434260    -0.0762550
  C        3.5085210    -2.0251140     0.3469700
  C       -1.6410700    -1.2638430    -0.6279320
  C       -3.0109220    -1.5027310    -0.5649580
  C       -3.2228950     0.5407920     0.6622730
  C       -3.8232840    -0.5849970     0.1005040
  H        0.7834850    -1.9532010     0.3364590
  H        2.7242150     2.5332940    -0.3759070
  H        4.2098530     0.5856070    -0.1209690
  H        3.8288200    -2.0891060     1.3929170
  H        2.9990460    -2.9607700     0.0984840
  H        4.4097140    -1.9577250    -0.2701360
  H       -0.9841790    -1.9393540    -1.1680850
  H        0.5549050     3.4095210    -0.2083710
  H       -0.8007830     2.4663430     0.1128890
  H       -3.4393090    -2.3812410    -1.0417430
  H       -3.8215100     1.2923600     1.1747000
  H       -4.8979480    -0.7268890     0.1711280
units angstrom
no_reorient  #important for SAPT in psi4, default
symmetry c1  #important for SAPT in psi4, default
}

set PROPERTIES_ORIGIN ["COM"]
properties('MP2/aug-cc-pvtz', properties = ['dipole'])
--------------------------------------------------------------------------

    Molecular point group: c1
  Charge       = 0
  Multiplicity = 1
  Basis Set: AUG-CC-PVTZ
    Blend: AUG-CC-PVTZ
  Basis Set: (AUG-CC-PVTZ AUX)
    Blend: AUG-CC-PVTZ-JKFIT

    Orbital Energies [Eh]
    ---------------------

    Doubly Occupied:

       1A    -15.568526     2A    -15.536350     3A    -11.291552
       4A    -11.280677     5A    -11.266776     6A    -11.263497
       7A    -11.243213     8A    -11.243164     9A    -11.234926
      10A    -11.234162    11A    -11.232568    12A    -11.231025
      13A    -11.222176    14A    -11.222097    15A     -1.261258
      16A     -1.190838    17A     -1.126086    18A     -1.088855
      19A     -1.066398    20A     -1.023320    21A     -0.998259
      22A     -0.918572    23A     -0.873557    24A     -0.863837
      25A     -0.821246    26A     -0.783613    27A     -0.711428
      28A     -0.682958    29A     -0.672522    30A     -0.659018
      31A     -0.648883    32A     -0.614009    33A     -0.605080
      34A     -0.593494    35A     -0.577203    36A     -0.573002
      37A     -0.564008    38A     -0.548356    39A     -0.535412
      40A     -0.531991    41A     -0.510801    42A     -0.495886
      43A     -0.486183    44A     -0.426057    45A     -0.416202
      46A     -0.388218    47A     -0.368491    48A     -0.319300
      49A     -0.290678

  @DF-RHF Final Energy:  -570.49125379477300

   => Energetics <=

    Nuclear Repulsion Energy =            812.6687998980505654
    One-Electron Energy =               -2385.7086480586203834
    Two-Electron Energy =                1002.5485943657968164
    Total Energy =                       -570.4912537947730016
  Basis Set: (AUG-CC-PVTZ AUX)
    Blend: AUG-CC-PVTZ-RI
    Molecular point group: c1

    Geometry (in Angstrom), charge = 0, multiplicity = 1:

       Center              X                  Y                   Z               Mass
    ------------   -----------------  -----------------  -----------------  -----------------
         N            0.106355240818     2.516300085939    -0.391822025075    14.003074004430
         N           -1.874447759182     0.763285085939     0.622406974925    14.003074004430
         C            0.376188240818     0.107509085939    -0.007066025075    12.000000000000
         C            0.980669640818     1.324380185939    -0.150220825075    12.000000000000
         C            2.632537240818    -0.855527914061     0.117583974925    12.000000000000
         C            1.243567240818    -0.984147914061     0.158544974925    12.000000000000
         C           -1.081519759182    -0.138293914061    -0.004772025075    12.000000000000
         C            2.319483240818     1.528625085939    -0.228693025075    12.000000000000
         C            3.156912240818     0.428503085939    -0.076764025075    12.000000000000
         C            3.534745240818    -2.040036914061     0.346460974925    12.000000000000
         C           -1.614845759182    -1.278765914061    -0.628441025075    12.000000000000
         C           -2.984697759182    -1.517653914061    -0.565467025075    12.000000000000
         C           -3.196670759182     0.525869085939     0.661763974925    12.000000000000
         C           -3.797059759182    -0.599919914061     0.099994974925    12.000000000000
         H            0.809709240818    -1.968123914061     0.335949974925     1.007825032230
         H            2.750439240818     2.518371085939    -0.376416025075     1.007825032230
         H            4.236077240818     0.570684085939    -0.121478025075     1.007825032230
         H            3.855044240818    -2.104028914061     1.392407974925     1.007825032230
         H            3.025270240818    -2.975692914061     0.097974974925     1.007825032230
         H            4.435938240818    -1.972647914061    -0.270645025075     1.007825032230
         H           -0.957954759182    -1.954276914061    -1.168594025075     1.007825032230
         H            0.581129240818     3.394598085939    -0.208880025075     1.007825032230
         H           -0.774558759182     2.451420085939     0.112379974925     1.007825032230
         H           -3.413084759182    -2.396163914061    -1.042252025075     1.007825032230
         H           -3.795285759182     1.277437085939     1.174190974925     1.007825032230
         H           -4.871723759182    -0.741811914061     0.170618974925     1.007825032230

  Basis Set: AUG-CC-PVTZ
    Blend: AUG-CC-PVTZ
  Basis Set: (AUG-CC-PVTZ AUX)
    Blend: AUG-CC-PVTZ-JKFIT
	 Reference Energy          =    -570.4912537947730016 [Eh]
	 Singles Energy            =      -0.0000000000000000 [Eh]
	 Same-Spin Energy          =      -0.6404182098474122 [Eh]
	 Opposite-Spin Energy      =      -1.9778422028456830 [Eh]
	 Correlation Energy        =      -2.6182604126930951 [Eh]
	 Total Energy              =    -573.1095142074660771 [Eh]

	 ================> DF-SCS-MP2 Energies <==================
	-----------------------------------------------------------
	 SCS Same-Spin Scale       =       0.3333333333333333 [-]
	 SCS Opposite-Spin Scale   =       1.2000000000000000 [-]
	 SCS Same-Spin Energy      =      -0.2134727366158040 [Eh]
	 SCS Opposite-Spin Energy  =      -2.3734106434148194 [Eh]
	 SCS Correlation Energy    =      -2.5868833800306237 [Eh]
	 SCS Total Energy          =    -573.0781371748036008 [Eh]
	-----------------------------------------------------------

  Dipole Moment: [D]
     X:    -0.8404      Y:    -1.4712      Z:     0.1743     Total:     1.7033

*** Psi4 exiting successfully. Buy a developer a beer!
