                               Psi4 1.4a3.dev225

  ==> Input File <==

--------------------------------------------------------------------------
#psi4
#
memory 32 gb

molecule  {
0 1
  N        0.0801310     2.5312230    -0.3913130
  N       -1.9006720     0.7782080     0.6229160
  C        0.3499640     0.1224320    -0.0065570
  C        0.8960730     1.4188800    -0.1658420
  C        2.6063130    -0.8406050     0.1180930
  C        1.2173430    -0.9692250     0.1590540
  C       -1.1077440    -0.1233710    -0.0042630
  C        2.2740112     1.5289944    -0.2255336
  C        3.1306880     0.4434260    -0.0762550
  C        3.5085210    -2.0251140     0.3469700
  C       -1.6410700    -1.2638430    -0.6279320
  C       -3.0109220    -1.5027310    -0.5649580
  C       -3.2228950     0.5407920     0.6622730
  C       -3.8232840    -0.5849970     0.1005040
  H        0.7834850    -1.9532010     0.3364590
  H        2.7242150     2.5332940    -0.3759070
  H        4.2098530     0.5856070    -0.1209690
  H        3.8288200    -2.0891060     1.3929170
  H        2.9990460    -2.9607700     0.0984840
  H        4.4097140    -1.9577250    -0.2701360
  H       -0.9841790    -1.9393540    -1.1680850
  H        0.5549050     3.4095210    -0.2083710
  H       -0.8007830     2.4663430     0.1128890
  H       -3.4393090    -2.3812410    -1.0417430
  H       -3.8215100     1.2923600     1.1747000
  H       -4.8979480    -0.7268890     0.1711280
units angstrom
no_reorient  #important for SAPT in psi4, default
symmetry c1  #important for SAPT in psi4, default
}

set PROPERTIES_ORIGIN ["COM"]
properties('MP2/aug-cc-pvtz', properties = ['dipole'])
--------------------------------------------------------------------------

    Molecular point group: c1
  Charge       = 0
  Multiplicity = 1
  Basis Set: AUG-CC-PVTZ
    Blend: AUG-CC-PVTZ
  Basis Set: (AUG-CC-PVTZ AUX)
    Blend: AUG-CC-PVTZ-JKFIT

    Orbital Energies [Eh]
    ---------------------

    Doubly Occupied:

       1A    -15.567694     2A    -15.547038     3A    -11.288691
       4A    -11.280315     5A    -11.272559     6A    -11.262481
       7A    -11.241775     8A    -11.240973     9A    -11.233754
      10A    -11.232437    11A    -11.232316    12A    -11.226997
      13A    -11.222144    14A    -11.219624    15A     -1.261157
      16A     -1.211238    17A     -1.132454    18A     -1.087949
      19A     -1.063110    20A     -1.017659    21A     -0.992053
      22A     -0.916778    23A     -0.871712    24A     -0.862100
      25A     -0.813514    26A     -0.783330    27A     -0.708881
      28A     -0.690050    29A     -0.681895    30A     -0.660265
      31A     -0.649976    32A     -0.610764    33A     -0.601263
      34A     -0.588892    35A     -0.581619    36A     -0.573884
      37A     -0.570178    38A     -0.548443    39A     -0.533246
      40A     -0.529566    41A     -0.514153    42A     -0.493452
      43A     -0.483179    44A     -0.435181    45A     -0.418919
      46A     -0.387640    47A     -0.366568    48A     -0.316472
      49A     -0.279964

  @DF-RHF Final Energy:  -570.50104379134643

   => Energetics <=

    Nuclear Repulsion Energy =            812.5096803468110238
    One-Electron Energy =               -2385.4088424750107151
    Two-Electron Energy =                1002.3981183368533721
    Total Energy =                       -570.5010437913464330
  Basis Set: (AUG-CC-PVTZ AUX)
    Blend: AUG-CC-PVTZ-RI
    Molecular point group: c1

    Geometry (in Angstrom), charge = 0, multiplicity = 1:

       Center              X                  Y                   Z               Mass
    ------------   -----------------  -----------------  -----------------  -----------------
         N            0.111414676751     2.512061740503    -0.390943385436    14.003074004430
         N           -1.869388323249     0.759046740503     0.623285614564    14.003074004430
         C            0.381247676751     0.103270740503    -0.006187385436    12.000000000000
         C            0.927356676751     1.399718740503    -0.165472385436    12.000000000000
         C            2.637596676751    -0.859766259497     0.118462614564    12.000000000000
         C            1.248626676751    -0.988386259497     0.159423614564    12.000000000000
         C           -1.076460323249    -0.142532259497    -0.003893385436    12.000000000000
         C            2.305294876751     1.509833140503    -0.225163985436    12.000000000000
         C            3.161971676751     0.424264740503    -0.075885385436    12.000000000000
         C            3.539804676751    -2.044275259497     0.347339614564    12.000000000000
         C           -1.609786323249    -1.283004259497    -0.627562385436    12.000000000000
         C           -2.979638323249    -1.521892259497    -0.564588385436    12.000000000000
         C           -3.191611323249     0.521630740503     0.662642614564    12.000000000000
         C           -3.792000323249    -0.604158259497     0.100873614564    12.000000000000
         H            0.814768676751    -1.972362259497     0.336828614564     1.007825032230
         H            2.755498676751     2.514132740503    -0.375537385436     1.007825032230
         H            4.241136676751     0.566445740503    -0.120599385436     1.007825032230
         H            3.860103676751    -2.108267259497     1.393286614564     1.007825032230
         H            3.030329676751    -2.979931259497     0.098853614564     1.007825032230
         H            4.440997676751    -1.976886259497    -0.269766385436     1.007825032230
         H           -0.952895323249    -1.958515259497    -1.167715385436     1.007825032230
         H            0.586188676751     3.390359740503    -0.208001385436     1.007825032230
         H           -0.769499323249     2.447181740503     0.113258614564     1.007825032230
         H           -3.408025323249    -2.400402259497    -1.041373385436     1.007825032230
         H           -3.790226323249     1.273198740503     1.175069614564     1.007825032230
         H           -4.866664323249    -0.746050259497     0.171497614564     1.007825032230

  Basis Set: AUG-CC-PVTZ
    Blend: AUG-CC-PVTZ
  Basis Set: (AUG-CC-PVTZ AUX)
    Blend: AUG-CC-PVTZ-JKFIT
	 Reference Energy          =    -570.5010437913464330 [Eh]
	 Singles Energy            =      -0.0000000000000000 [Eh]
	 Same-Spin Energy          =      -0.6409387953858533 [Eh]
	 Opposite-Spin Energy      =      -1.9777308924193082 [Eh]
	 Correlation Energy        =      -2.6186696878051614 [Eh]
	 Total Energy              =    -573.1197134791516419 [Eh]

	 ================> DF-SCS-MP2 Energies <==================
	-----------------------------------------------------------
	 SCS Same-Spin Scale       =       0.3333333333333333 [-]
	 SCS Opposite-Spin Scale   =       1.2000000000000000 [-]
	 SCS Same-Spin Energy      =      -0.2136462651286178 [Eh]
	 SCS Opposite-Spin Energy  =      -2.3732770709031699 [Eh]
	 SCS Correlation Energy    =      -2.5869233360317878 [Eh]
	 SCS Total Energy          =    -573.0879671273781923 [Eh]
	-----------------------------------------------------------

  Dipole Moment: [D]
     X:    -1.0879      Y:    -0.9996      Z:     0.0848     Total:     1.4799

*** Psi4 exiting successfully. Buy a developer a beer!
