                               Psi4 1.4a3.dev225

  ==> Input File <==

--------------------------------------------------------------------------
#psi4
#
memory 32 gb

molecule  {
0 1
  N        0.0801310     2.5312230    -0.3913130
  N       -1.9006720     0.7782080     0.6229160
  C        0.3499640     0.1224320    -0.0065570
  C        0.8960730     1.4188800    -0.1658420
  C        2.6063130    -0.8406050     0.1180930
  C        1.2173430    -0.9692250     0.1590540
  C       -1.1077440    -0.1233710    -0.0042630
  C        2.2932590     1.5435480    -0.2281840
  C        3.1306880     0.4434260    -0.0762550
  C        3.5085210    -2.0251140     0.3469700
  C       -1.6410700    -1.2638430    -0.6279320
  C       -3.0109220    -1.5027310    -0.5649580
  C       -3.2228950     0.5407920     0.6622730
  C       -3.8232840    -0.5849970     0.1005040
  H        0.7834850    -1.9532010     0.3364590
  H        2.7242150     2.5332940    -0.3759070
  H        4.2098530     0.5856070    -0.1209690
  H        3.8288200    -2.0891060     1.3929170
  H        2.9990460    -2.9607700     0.0984840
  H        4.4097140    -1.9577250    -0.2701360
  H       -0.9841790    -1.9393540    -1.1680850
  H        0.5549050     3.4095210    -0.2083710
  H       -0.8007830     2.4663430     0.1128890
  H       -3.4393090    -2.3812410    -1.0417430
  H       -3.8215100     1.2923600     1.1747000
  H       -4.8979480    -0.7268890     0.1711280
units angstrom
no_reorient  #important for SAPT in psi4, default
symmetry c1  #important for SAPT in psi4, default
}

set PROPERTIES_ORIGIN ["COM"]
properties('MP2/aug-cc-pvtz', properties = ['dipole'])
--------------------------------------------------------------------------

    Molecular point group: c1
  Charge       = 0
  Multiplicity = 1
  Basis Set: AUG-CC-PVTZ
    Blend: AUG-CC-PVTZ
  Basis Set: (AUG-CC-PVTZ AUX)
    Blend: AUG-CC-PVTZ-JKFIT

    Orbital Energies [Eh]
    ---------------------

    Doubly Occupied:

       1A    -15.567533     2A    -15.547717     3A    -11.288674
       4A    -11.280228     5A    -11.275380     6A    -11.262402
       7A    -11.241613     8A    -11.240834     9A    -11.233469
      10A    -11.232550    11A    -11.232285    12A    -11.226627
      13A    -11.222710    14A    -11.219502    15A     -1.261004
      16A     -1.210640    17A     -1.131671    18A     -1.087837
      19A     -1.063017    20A     -1.016124    21A     -0.992366
      22A     -0.915535    23A     -0.870540    24A     -0.862113
      25A     -0.814720    26A     -0.783412    27A     -0.708909
      28A     -0.689782    29A     -0.681398    30A     -0.660462
      31A     -0.650131    32A     -0.613571    33A     -0.600569
      34A     -0.589021    35A     -0.582000    36A     -0.573720
      37A     -0.570046    38A     -0.548233    39A     -0.532217
      40A     -0.529413    41A     -0.512986    42A     -0.492914
      43A     -0.485717    44A     -0.435069    45A     -0.418823
      46A     -0.387561    47A     -0.366602    48A     -0.316477
      49A     -0.278526

  @DF-RHF Final Energy:  -570.50173110934884

   => Energetics <=

    Nuclear Repulsion Energy =            812.0132778675070995
    One-Electron Energy =               -2384.4207198174412952
    Two-Electron Energy =                1001.9057108405854706
    Total Energy =                       -570.5017311093488388
  Basis Set: (AUG-CC-PVTZ AUX)
    Blend: AUG-CC-PVTZ-RI
    Molecular point group: c1

    Geometry (in Angstrom), charge = 0, multiplicity = 1:

       Center              X                  Y                   Z               Mass
    ------------   -----------------  -----------------  -----------------  -----------------
         N            0.110160067629     2.511113108487    -0.390770627198    14.003074004430
         N           -1.870642932371     0.758098108487     0.623458372802    14.003074004430
         C            0.379993067629     0.102322108487    -0.006014627198    12.000000000000
         C            0.926102067629     1.398770108487    -0.165299627198    12.000000000000
         C            2.636342067629    -0.860714891513     0.118635372802    12.000000000000
         C            1.247372067629    -0.989334891513     0.159596372802    12.000000000000
         C           -1.077714932371    -0.143480891513    -0.003720627198    12.000000000000
         C            2.323288067629     1.523438108487    -0.227641627198    12.000000000000
         C            3.160717067629     0.423316108487    -0.075712627198    12.000000000000
         C            3.538550067629    -2.045223891513     0.347512372802    12.000000000000
         C           -1.611040932371    -1.283952891513    -0.627389627198    12.000000000000
         C           -2.980892932371    -1.522840891513    -0.564415627198    12.000000000000
         C           -3.192865932371     0.520682108487     0.662815372802    12.000000000000
         C           -3.793254932371    -0.605106891513     0.101046372802    12.000000000000
         H            0.813514067629    -1.973310891513     0.337001372802     1.007825032230
         H            2.754244067629     2.513184108487    -0.375364627198     1.007825032230
         H            4.239882067629     0.565497108487    -0.120426627198     1.007825032230
         H            3.858849067629    -2.109215891513     1.393459372802     1.007825032230
         H            3.029075067629    -2.980879891513     0.099026372802     1.007825032230
         H            4.439743067629    -1.977834891513    -0.269593627198     1.007825032230
         H           -0.954149932371    -1.959463891513    -1.167542627198     1.007825032230
         H            0.584934067629     3.389411108487    -0.207828627198     1.007825032230
         H           -0.770753932371     2.446233108487     0.113431372802     1.007825032230
         H           -3.409279932371    -2.401350891513    -1.041200627198     1.007825032230
         H           -3.791480932371     1.272250108487     1.175242372802     1.007825032230
         H           -4.867918932371    -0.746998891513     0.171670372802     1.007825032230

  Basis Set: AUG-CC-PVTZ
    Blend: AUG-CC-PVTZ
  Basis Set: (AUG-CC-PVTZ AUX)
    Blend: AUG-CC-PVTZ-JKFIT
	 Reference Energy          =    -570.5017311093488388 [Eh]
	 Singles Energy            =      -0.0000000000000000 [Eh]
	 Same-Spin Energy          =      -0.6408351465899496 [Eh]
	 Opposite-Spin Energy      =      -1.9776888191366782 [Eh]
	 Correlation Energy        =      -2.6185239657266277 [Eh]
	 Total Energy              =    -573.1202550750754199 [Eh]

	 ================> DF-SCS-MP2 Energies <==================
	-----------------------------------------------------------
	 SCS Same-Spin Scale       =       0.3333333333333333 [-]
	 SCS Opposite-Spin Scale   =       1.2000000000000000 [-]
	 SCS Same-Spin Energy      =      -0.2136117155299832 [Eh]
	 SCS Opposite-Spin Energy  =      -2.3732265829640138 [Eh]
	 SCS Correlation Energy    =      -2.5868382984939968 [Eh]
	 SCS Total Energy          =    -573.0885694078427832 [Eh]
	-----------------------------------------------------------

  Dipole Moment: [D]
     X:    -1.0970      Y:    -0.9637      Z:     0.0775     Total:     1.4622

*** Psi4 exiting successfully. Buy a developer a beer!
