                               Psi4 1.4a3.dev225

  ==> Input File <==

--------------------------------------------------------------------------
#psi4
#
memory 32 gb

molecule  {
0 1
  N        0.0801310     2.5312230    -0.3913130
  N       -1.9006720     0.7782080     0.6229160
  C        0.3499640     0.1224320    -0.0065570
  C        0.8960730     1.4188800    -0.1658420
  C        2.6063130    -0.8406050     0.1180930
  C        1.2173430    -0.9692250     0.1590540
  C       -1.1077440    -0.1233710    -0.0042630
  C        2.2932590     1.5435480    -0.2281840
  C        3.1306880     0.4434260    -0.0762550
  C        3.5085210    -2.0251140     0.3469700
  C       -1.6410700    -1.2638430    -0.6279320
  C       -2.9349449    -1.4456887    -0.5437558
  C       -3.2228950     0.5407920     0.6622730
  C       -3.8232840    -0.5849970     0.1005040
  H        0.7834850    -1.9532010     0.3364590
  H        2.7242150     2.5332940    -0.3759070
  H        4.2098530     0.5856070    -0.1209690
  H        3.8288200    -2.0891060     1.3929170
  H        2.9990460    -2.9607700     0.0984840
  H        4.4097140    -1.9577250    -0.2701360
  H       -0.9841790    -1.9393540    -1.1680850
  H        0.5549050     3.4095210    -0.2083710
  H       -0.8007830     2.4663430     0.1128890
  H       -3.4393090    -2.3812410    -1.0417430
  H       -3.8215100     1.2923600     1.1747000
  H       -4.8979480    -0.7268890     0.1711280
units angstrom
no_reorient  #important for SAPT in psi4, default
symmetry c1  #important for SAPT in psi4, default
}

set PROPERTIES_ORIGIN ["COM"]
properties('MP2/aug-cc-pvtz', properties = ['dipole'])
--------------------------------------------------------------------------

    Molecular point group: c1
  Charge       = 0
  Multiplicity = 1
  Basis Set: AUG-CC-PVTZ
    Blend: AUG-CC-PVTZ
  Basis Set: (AUG-CC-PVTZ AUX)
    Blend: AUG-CC-PVTZ-JKFIT

    Orbital Energies [Eh]
    ---------------------

    Doubly Occupied:

       1A    -15.565743     2A    -15.548448     3A    -11.291090
       4A    -11.278084     5A    -11.276656     6A    -11.258129
       7A    -11.239525     8A    -11.234785     9A    -11.233832
      10A    -11.233294    11A    -11.231645    12A    -11.227739
      13A    -11.223701    14A    -11.220300    15A     -1.263839
      16A     -1.211726    17A     -1.132836    18A     -1.098157
      19A     -1.064632    20A     -1.017206    21A     -0.996685
      22A     -0.916672    23A     -0.875840    24A     -0.853860
      25A     -0.817027    26A     -0.781038    27A     -0.708558
      28A     -0.691046    29A     -0.682412    30A     -0.663159
      31A     -0.652347    32A     -0.612198    33A     -0.602290
      34A     -0.592122    35A     -0.583390    36A     -0.572558
      37A     -0.555814    38A     -0.546766    39A     -0.535074
      40A     -0.531661    41A     -0.513982    42A     -0.494431
      43A     -0.486898    44A     -0.435615    45A     -0.414758
      46A     -0.394986    47A     -0.368837    48A     -0.317510
      49A     -0.279589

  @DF-RHF Final Energy:  -570.49017771488911

   => Energetics <=

    Nuclear Repulsion Energy =            814.0505404737014032
    One-Electron Energy =               -2388.4244611888357213
    Two-Electron Energy =                1003.8837430002452038
    Total Energy =                       -570.4901777148891142
  Basis Set: (AUG-CC-PVTZ AUX)
    Blend: AUG-CC-PVTZ-RI
    Molecular point group: c1

    Geometry (in Angstrom), charge = 0, multiplicity = 1:

       Center              X                  Y                   Z               Mass
    ------------   -----------------  -----------------  -----------------  -----------------
         N            0.105207732157     2.507394980187    -0.392152627921    14.003074004430
         N           -1.875595267843     0.754379980187     0.622076372079    14.003074004430
         C            0.375040732157     0.098603980187    -0.007396627921    12.000000000000
         C            0.921149732157     1.395051980187    -0.166681627921    12.000000000000
         C            2.631389732157    -0.864433019813     0.117253372079    12.000000000000
         C            1.242419732157    -0.993053019813     0.158214372079    12.000000000000
         C           -1.082667267843    -0.147199019813    -0.005102627921    12.000000000000
         C            2.318335732157     1.519719980187    -0.229023627921    12.000000000000
         C            3.155764732157     0.419597980187    -0.077094627921    12.000000000000
         C            3.533597732157    -2.048942019813     0.346130372079    12.000000000000
         C           -1.615993267843    -1.287671019813    -0.628771627921    12.000000000000
         C           -2.909868167843    -1.469516719813    -0.544595427921    12.000000000000
         C           -3.197818267843     0.516963980187     0.661433372079    12.000000000000
         C           -3.798207267843    -0.608825019813     0.099664372079    12.000000000000
         H            0.808561732157    -1.977029019813     0.335619372079     1.007825032230
         H            2.749291732157     2.509465980187    -0.376746627921     1.007825032230
         H            4.234929732157     0.561778980187    -0.121808627921     1.007825032230
         H            3.853896732157    -2.112934019813     1.392077372079     1.007825032230
         H            3.024122732157    -2.984598019813     0.097644372079     1.007825032230
         H            4.434790732157    -1.981553019813    -0.270975627921     1.007825032230
         H           -0.959102267843    -1.963182019813    -1.168924627921     1.007825032230
         H            0.579981732157     3.385692980187    -0.209210627921     1.007825032230
         H           -0.775706267843     2.442514980187     0.112049372079     1.007825032230
         H           -3.414232267843    -2.405069019813    -1.042582627921     1.007825032230
         H           -3.796433267843     1.268531980187     1.173860372079     1.007825032230
         H           -4.872871267843    -0.750717019813     0.170288372079     1.007825032230

  Basis Set: AUG-CC-PVTZ
    Blend: AUG-CC-PVTZ
  Basis Set: (AUG-CC-PVTZ AUX)
    Blend: AUG-CC-PVTZ-JKFIT
	 Reference Energy          =    -570.4901777148891142 [Eh]
	 Singles Energy            =      -0.0000000000000000 [Eh]
	 Same-Spin Energy          =      -0.6407769794484783 [Eh]
	 Opposite-Spin Energy      =      -1.9774352691480530 [Eh]
	 Correlation Energy        =      -2.6182122485965316 [Eh]
	 Total Energy              =    -573.1083899634855925 [Eh]

	 ================> DF-SCS-MP2 Energies <==================
	-----------------------------------------------------------
	 SCS Same-Spin Scale       =       0.3333333333333333 [-]
	 SCS Opposite-Spin Scale   =       1.2000000000000000 [-]
	 SCS Same-Spin Energy      =      -0.2135923264828261 [Eh]
	 SCS Opposite-Spin Energy  =      -2.3729223229776637 [Eh]
	 SCS Correlation Energy    =      -2.5865146494604896 [Eh]
	 SCS Total Energy          =    -573.0766923643495829 [Eh]
	-----------------------------------------------------------

  Dipole Moment: [D]
     X:    -1.0147      Y:    -0.8823      Z:     0.1155     Total:     1.3495

*** Psi4 exiting successfully. Buy a developer a beer!
