                               Psi4 1.4a3.dev225

  ==> Input File <==

--------------------------------------------------------------------------
#psi4
#
memory 32 gb

molecule  {
0 1
  N        0.0801310     2.5312230    -0.3913130
  N       -1.9006720     0.7782080     0.6229160
  C        0.3499640     0.1224320    -0.0065570
  C        0.8960730     1.4188800    -0.1658420
  C        2.6063130    -0.8406050     0.1180930
  C        1.2173430    -0.9692250     0.1590540
  C       -1.1077440    -0.1233710    -0.0042630
  C        2.2932590     1.5435480    -0.2281840
  C        3.1186466     0.4592447    -0.0784396
  C        3.5085210    -2.0251140     0.3469700
  C       -1.6410700    -1.2638430    -0.6279320
  C       -3.0109220    -1.5027310    -0.5649580
  C       -3.2228950     0.5407920     0.6622730
  C       -3.8232840    -0.5849970     0.1005040
  H        0.7834850    -1.9532010     0.3364590
  H        2.7242150     2.5332940    -0.3759070
  H        4.2098530     0.5856070    -0.1209690
  H        3.8288200    -2.0891060     1.3929170
  H        2.9990460    -2.9607700     0.0984840
  H        4.4097140    -1.9577250    -0.2701360
  H       -0.9841790    -1.9393540    -1.1680850
  H        0.5549050     3.4095210    -0.2083710
  H       -0.8007830     2.4663430     0.1128890
  H       -3.4393090    -2.3812410    -1.0417430
  H       -3.8215100     1.2923600     1.1747000
  H       -4.8979480    -0.7268890     0.1711280
units angstrom
no_reorient  #important for SAPT in psi4, default
symmetry c1  #important for SAPT in psi4, default
}

set PROPERTIES_ORIGIN ["COM"]
properties('MP2/aug-cc-pvtz', properties = ['dipole'])
--------------------------------------------------------------------------

    Molecular point group: c1
  Charge       = 0
  Multiplicity = 1
  Basis Set: AUG-CC-PVTZ
    Blend: AUG-CC-PVTZ
  Basis Set: (AUG-CC-PVTZ AUX)
    Blend: AUG-CC-PVTZ-JKFIT

    Orbital Energies [Eh]
    ---------------------

    Doubly Occupied:

       1A    -15.567229     2A    -15.548199     3A    -11.288403
       4A    -11.280012     5A    -11.275803     6A    -11.262186
       7A    -11.241323     8A    -11.240531     9A    -11.232803
      10A    -11.232544    11A    -11.231462    12A    -11.227228
      13A    -11.221325    14A    -11.219943    15A     -1.260760
      16A     -1.211138    17A     -1.131815    18A     -1.087586
      19A     -1.062878    20A     -1.018054    21A     -0.992631
      22A     -0.915370    23A     -0.869675    24A     -0.861948
      25A     -0.813967    26A     -0.784037    27A     -0.708812
      28A     -0.690334    29A     -0.680806    30A     -0.660307
      31A     -0.649671    32A     -0.614077    33A     -0.600714
      34A     -0.588487    35A     -0.581765    36A     -0.573488
      37A     -0.569858    38A     -0.548121    39A     -0.533250
      40A     -0.529157    41A     -0.513455    42A     -0.494630
      43A     -0.482621    44A     -0.435234    45A     -0.418570
      46A     -0.387528    47A     -0.367171    48A     -0.318269
      49A     -0.277155

  @DF-RHF Final Energy:  -570.50138763532414

   => Energetics <=

    Nuclear Repulsion Energy =            812.1860673856913309
    One-Electron Energy =               -2384.7702503789769253
    Two-Electron Energy =                1002.0827953579614586
    Total Energy =                       -570.5013876353241358
  Basis Set: (AUG-CC-PVTZ AUX)
    Blend: AUG-CC-PVTZ-RI
    Molecular point group: c1

    Geometry (in Angstrom), charge = 0, multiplicity = 1:

       Center              X                  Y                   Z               Mass
    ------------   -----------------  -----------------  -----------------  -----------------
         N            0.110944949552     2.510082014787    -0.390628230712    14.003074004430
         N           -1.869858050448     0.757067014787     0.623600769288    14.003074004430
         C            0.380777949552     0.101291014787    -0.005872230712    12.000000000000
         C            0.926886949552     1.397739014787    -0.165157230712    12.000000000000
         C            2.637126949552    -0.861745985213     0.118777769288    12.000000000000
         C            1.248156949552    -0.990365985213     0.159738769288    12.000000000000
         C           -1.076930050448    -0.144511985213    -0.003578230712    12.000000000000
         C            2.324072949552     1.522407014787    -0.227499230712    12.000000000000
         C            3.149460549552     0.438103714787    -0.077754830712    12.000000000000
         C            3.539334949552    -2.046254985213     0.347654769288    12.000000000000
         C           -1.610256050448    -1.284983985213    -0.627247230712    12.000000000000
         C           -2.980108050448    -1.523871985213    -0.564273230712    12.000000000000
         C           -3.192081050448     0.519651014787     0.662957769288    12.000000000000
         C           -3.792470050448    -0.606137985213     0.101188769288    12.000000000000
         H            0.814298949552    -1.974341985213     0.337143769288     1.007825032230
         H            2.755028949552     2.512153014787    -0.375222230712     1.007825032230
         H            4.240666949552     0.564466014787    -0.120284230712     1.007825032230
         H            3.859633949552    -2.110246985213     1.393601769288     1.007825032230
         H            3.029859949552    -2.981910985213     0.099168769288     1.007825032230
         H            4.440527949552    -1.978865985213    -0.269451230712     1.007825032230
         H           -0.953365050448    -1.960494985213    -1.167400230712     1.007825032230
         H            0.585718949552     3.388380014787    -0.207686230712     1.007825032230
         H           -0.769969050448     2.445202014787     0.113573769288     1.007825032230
         H           -3.408495050448    -2.402381985213    -1.041058230712     1.007825032230
         H           -3.790696050448     1.271219014787     1.175384769288     1.007825032230
         H           -4.867134050448    -0.748029985213     0.171812769288     1.007825032230

  Basis Set: AUG-CC-PVTZ
    Blend: AUG-CC-PVTZ
  Basis Set: (AUG-CC-PVTZ AUX)
    Blend: AUG-CC-PVTZ-JKFIT
	 Reference Energy          =    -570.5013876353241358 [Eh]
	 Singles Energy            =      -0.0000000000000000 [Eh]
	 Same-Spin Energy          =      -0.6407921720726333 [Eh]
	 Opposite-Spin Energy      =      -1.9776020565161385 [Eh]
	 Correlation Energy        =      -2.6183942285887718 [Eh]
	 Total Energy              =    -573.1197818639128627 [Eh]

	 ================> DF-SCS-MP2 Energies <==================
	-----------------------------------------------------------
	 SCS Same-Spin Scale       =       0.3333333333333333 [-]
	 SCS Opposite-Spin Scale   =       1.2000000000000000 [-]
	 SCS Same-Spin Energy      =      -0.2135973906908777 [Eh]
	 SCS Opposite-Spin Energy  =      -2.3731224678193663 [Eh]
	 SCS Correlation Energy    =      -2.5867198585102442 [Eh]
	 SCS Total Energy          =    -573.0881074938344000 [Eh]
	-----------------------------------------------------------

  Dipole Moment: [D]
     X:    -1.0786      Y:    -0.9558      Z:     0.0766     Total:     1.4432

*** Psi4 exiting successfully. Buy a developer a beer!
