                               Psi4 1.4a3.dev225

  ==> Input File <==

--------------------------------------------------------------------------
#psi4
#
memory 32 gb

molecule  {
0 1
  N        0.0801310     2.5312230    -0.3913130
  N       -1.9006720     0.7782080     0.6229160
  C        0.3499640     0.1224320    -0.0065570
  C        0.8960730     1.4188800    -0.1658420
  C        2.6063130    -0.8406050     0.1180930
  C        1.2173430    -0.9692250     0.1590540
  C       -1.1077440    -0.1233710    -0.0042630
  C        2.2932590     1.5435480    -0.2281840
  C        3.1306880     0.4434260    -0.0762550
  C        3.5085210    -2.0251140     0.3469700
  C       -1.6410700    -1.2638430    -0.6279320
  C       -3.0109220    -1.5027310    -0.5649580
  C       -3.2228950     0.5407920     0.6622730
  C       -3.8232840    -0.5849970     0.1005040
  H        0.7436784    -2.0434811     0.3527360
  H        2.7242150     2.5332940    -0.3759070
  H        4.2098530     0.5856070    -0.1209690
  H        3.8288200    -2.0891060     1.3929170
  H        2.9990460    -2.9607700     0.0984840
  H        4.4097140    -1.9577250    -0.2701360
  H       -0.9841790    -1.9393540    -1.1680850
  H        0.5549050     3.4095210    -0.2083710
  H       -0.8007830     2.4663430     0.1128890
  H       -3.4393090    -2.3812410    -1.0417430
  H       -3.8215100     1.2923600     1.1747000
  H       -4.8979480    -0.7268890     0.1711280
units angstrom
no_reorient  #important for SAPT in psi4, default
symmetry c1  #important for SAPT in psi4, default
}

set PROPERTIES_ORIGIN ["COM"]
properties('MP2/aug-cc-pvtz', properties = ['dipole'])
--------------------------------------------------------------------------

    Molecular point group: c1
  Charge       = 0
  Multiplicity = 1
  Basis Set: AUG-CC-PVTZ
    Blend: AUG-CC-PVTZ
  Basis Set: (AUG-CC-PVTZ AUX)
    Blend: AUG-CC-PVTZ-JKFIT

    Orbital Energies [Eh]
    ---------------------

    Doubly Occupied:

       1A    -15.567543     2A    -15.548207     3A    -11.288673
       4A    -11.280050     5A    -11.276253     6A    -11.262144
       7A    -11.244277     8A    -11.241516     9A    -11.240575
      10A    -11.233941    11A    -11.233429    12A    -11.227784
      13A    -11.223228    14A    -11.219448    15A     -1.260973
      16A     -1.211142    17A     -1.131492    18A     -1.087674
      19A     -1.063056    20A     -1.015832    21A     -0.991368
      22A     -0.914766    23A     -0.869772    24A     -0.861976
      25A     -0.811353    26A     -0.782991    27A     -0.708747
      28A     -0.690133    29A     -0.676010    30A     -0.660293
      31A     -0.649303    32A     -0.613071    33A     -0.600323
      34A     -0.589155    35A     -0.574931    36A     -0.573737
      37A     -0.570017    38A     -0.547434    39A     -0.529652
      40A     -0.528990    41A     -0.513280    42A     -0.492887
      43A     -0.482205    44A     -0.435628    45A     -0.418830
      46A     -0.387470    47A     -0.366580    48A     -0.316892
      49A     -0.279127

  @DF-RHF Final Energy:  -570.49413240457750

   => Energetics <=

    Nuclear Repulsion Energy =            811.5289830091307977
    One-Electron Energy =               -2383.4579087150823398
    Two-Electron Energy =                1001.4347933013740430
    Total Energy =                       -570.4941324045774991
  Basis Set: (AUG-CC-PVTZ AUX)
    Blend: AUG-CC-PVTZ-RI
    Molecular point group: c1

    Geometry (in Angstrom), charge = 0, multiplicity = 1:

       Center              X                  Y                   Z               Mass
    ------------   -----------------  -----------------  -----------------  -----------------
         N            0.110377982226     2.511607331848    -0.390859732922    14.003074004430
         N           -1.870425017774     0.758592331848     0.623369267078    14.003074004430
         C            0.380210982226     0.102816331848    -0.006103732922    12.000000000000
         C            0.926319982226     1.399264331848    -0.165388732922    12.000000000000
         C            2.636559982226    -0.860220668152     0.118546267078    12.000000000000
         C            1.247589982226    -0.988840668152     0.159507267078    12.000000000000
         C           -1.077497017774    -0.142986668152    -0.003809732922    12.000000000000
         C            2.323505982226     1.523932331848    -0.227730732922    12.000000000000
         C            3.160934982226     0.423810331848    -0.075801732922    12.000000000000
         C            3.538767982226    -2.044729668152     0.347423267078    12.000000000000
         C           -1.610823017774    -1.283458668152    -0.627478732922    12.000000000000
         C           -2.980675017774    -1.522346668152    -0.564504732922    12.000000000000
         C           -3.192648017774     0.521176331848     0.662726267078    12.000000000000
         C           -3.793037017774    -0.604612668152     0.100957267078    12.000000000000
         H            0.773925382226    -2.063096768152     0.353189267078     1.007825032230
         H            2.754461982226     2.513678331848    -0.375453732922     1.007825032230
         H            4.240099982226     0.565991331848    -0.120515732922     1.007825032230
         H            3.859066982226    -2.108721668152     1.393370267078     1.007825032230
         H            3.029292982226    -2.980385668152     0.098937267078     1.007825032230
         H            4.439960982226    -1.977340668152    -0.269682732922     1.007825032230
         H           -0.953932017774    -1.958969668152    -1.167631732922     1.007825032230
         H            0.585151982226     3.389905331848    -0.207917732922     1.007825032230
         H           -0.770536017774     2.446727331848     0.113342267078     1.007825032230
         H           -3.409062017774    -2.400856668152    -1.041289732922     1.007825032230
         H           -3.791263017774     1.272744331848     1.175153267078     1.007825032230
         H           -4.867701017774    -0.746504668152     0.171581267078     1.007825032230

  Basis Set: AUG-CC-PVTZ
    Blend: AUG-CC-PVTZ
  Basis Set: (AUG-CC-PVTZ AUX)
    Blend: AUG-CC-PVTZ-JKFIT
	 Reference Energy          =    -570.4941324045774991 [Eh]
	 Singles Energy            =      -0.0000000000000000 [Eh]
	 Same-Spin Energy          =      -0.6412383032837143 [Eh]
	 Opposite-Spin Energy      =      -1.9788191526944772 [Eh]
	 Correlation Energy        =      -2.6200574559781913 [Eh]
	 Total Energy              =    -573.1141898605557117 [Eh]

	 ================> DF-SCS-MP2 Energies <==================
	-----------------------------------------------------------
	 SCS Same-Spin Scale       =       0.3333333333333333 [-]
	 SCS Opposite-Spin Scale   =       1.2000000000000000 [-]
	 SCS Same-Spin Energy      =      -0.2137461010945714 [Eh]
	 SCS Opposite-Spin Energy  =      -2.3745829832333727 [Eh]
	 SCS Correlation Energy    =      -2.5883290843279441 [Eh]
	 SCS Total Energy          =    -573.0824614889054374 [Eh]
	-----------------------------------------------------------

  Dipole Moment: [D]
     X:    -1.0756      Y:    -0.9187      Z:     0.0684     Total:     1.4161

*** Psi4 exiting successfully. Buy a developer a beer!
