                               Psi4 1.4a3.dev225

  ==> Input File <==

--------------------------------------------------------------------------
#psi4
#
memory 32 gb

molecule  {
0 1
  N        0.0801310     2.5312230    -0.3913130
  N       -1.9041001     0.7981169     0.6348352
  C        0.3499640     0.1224320    -0.0065570
  C        0.8960730     1.4188800    -0.1658420
  C        2.6063130    -0.8406050     0.1180930
  C        1.2173430    -0.9692250     0.1590540
  C       -1.1077440    -0.1233710    -0.0042630
  C        2.2932590     1.5435480    -0.2281840
  C        3.1306880     0.4434260    -0.0762550
  C        3.5085210    -2.0251140     0.3469700
  C       -1.6410700    -1.2638430    -0.6279320
  C       -3.0109220    -1.5027310    -0.5649580
  C       -3.2228950     0.5407920     0.6622730
  C       -3.8232840    -0.5849970     0.1005040
  H        0.7834850    -1.9532010     0.3364590
  H        2.7242150     2.5332940    -0.3759070
  H        4.2098530     0.5856070    -0.1209690
  H        3.8288200    -2.0891060     1.3929170
  H        2.9990460    -2.9607700     0.0984840
  H        4.4097140    -1.9577250    -0.2701360
  H       -0.9841790    -1.9393540    -1.1680850
  H        0.5549050     3.4095210    -0.2083710
  H       -0.8007830     2.4663430     0.1128890
  H       -3.4393090    -2.3812410    -1.0417430
  H       -3.8215100     1.2923600     1.1747000
  H       -4.8979480    -0.7268890     0.1711280
units angstrom
no_reorient  #important for SAPT in psi4, default
symmetry c1  #important for SAPT in psi4, default
}

set PROPERTIES_ORIGIN ["COM"]
properties('MP2/aug-cc-pvtz', properties = ['dipole'])
--------------------------------------------------------------------------

    Molecular point group: c1
  Charge       = 0
  Multiplicity = 1
  Basis Set: AUG-CC-PVTZ
    Blend: AUG-CC-PVTZ
  Basis Set: (AUG-CC-PVTZ AUX)
    Blend: AUG-CC-PVTZ-JKFIT

    Orbital Energies [Eh]
    ---------------------

    Doubly Occupied:

       1A    -15.570399     2A    -15.547536     3A    -11.291066
       4A    -11.280366     5A    -11.275551     6A    -11.263335
       7A    -11.241620     8A    -11.241320     9A    -11.233726
      10A    -11.232731    11A    -11.232554    12A    -11.226720
      13A    -11.222790    14A    -11.219590    15A     -1.256791
      16A     -1.210378    17A     -1.131816    18A     -1.088227
      19A     -1.062799    20A     -1.016202    21A     -0.991758
      22A     -0.915629    23A     -0.870699    24A     -0.861335
      25A     -0.813945    26A     -0.783207    27A     -0.708300
      28A     -0.689778    29A     -0.681362    30A     -0.660092
      31A     -0.649432    32A     -0.612914    33A     -0.600591
      34A     -0.589303    35A     -0.582045    36A     -0.573418
      37A     -0.569974    38A     -0.546473    39A     -0.532204
      40A     -0.529076    41A     -0.512493    42A     -0.492397
      43A     -0.485261    44A     -0.435659    45A     -0.421977
      46A     -0.386819    47A     -0.367568    48A     -0.316183
      49A     -0.278377

  @DF-RHF Final Energy:  -570.49998503443123

   => Energetics <=

    Nuclear Repulsion Energy =            811.4946166149838973
    One-Electron Energy =               -2383.3816391267569088
    Two-Electron Energy =                1001.3870374773417780
    Total Energy =                       -570.4999850344312335
  Basis Set: (AUG-CC-PVTZ AUX)
    Blend: AUG-CC-PVTZ-RI
    Molecular point group: c1

    Geometry (in Angstrom), charge = 0, multiplicity = 1:

       Center              X                  Y                   Z               Mass
    ------------   -----------------  -----------------  -----------------  -----------------
         N            0.110420816816     2.509598791666    -0.391677229022    14.003074004430
         N           -1.873810283184     0.776492691666     0.634470970978    14.003074004430
         C            0.380253816816     0.100807791666    -0.006921229022    12.000000000000
         C            0.926362816816     1.397255791666    -0.166206229022    12.000000000000
         C            2.636602816816    -0.862229208334     0.117728770978    12.000000000000
         C            1.247632816816    -0.990849208334     0.158689770978    12.000000000000
         C           -1.077454183184    -0.144995208334    -0.004627229022    12.000000000000
         C            2.323548816816     1.521923791666    -0.228548229022    12.000000000000
         C            3.160977816816     0.421801791666    -0.076619229022    12.000000000000
         C            3.538810816816    -2.046738208334     0.346605770978    12.000000000000
         C           -1.610780183184    -1.285467208334    -0.628296229022    12.000000000000
         C           -2.980632183184    -1.524355208334    -0.565322229022    12.000000000000
         C           -3.192605183184     0.519167791666     0.661908770978    12.000000000000
         C           -3.792994183184    -0.606621208334     0.100139770978    12.000000000000
         H            0.813774816816    -1.974825208334     0.336094770978     1.007825032230
         H            2.754504816816     2.511669791666    -0.376271229022     1.007825032230
         H            4.240142816816     0.563982791666    -0.121333229022     1.007825032230
         H            3.859109816816    -2.110730208334     1.392552770978     1.007825032230
         H            3.029335816816    -2.982394208334     0.098119770978     1.007825032230
         H            4.440003816816    -1.979349208334    -0.270500229022     1.007825032230
         H           -0.953889183184    -1.960978208334    -1.168449229022     1.007825032230
         H            0.585194816816     3.387896791666    -0.208735229022     1.007825032230
         H           -0.770493183184     2.444718791666     0.112524770978     1.007825032230
         H           -3.409019183184    -2.402865208334    -1.042107229022     1.007825032230
         H           -3.791220183184     1.270735791666     1.174335770978     1.007825032230
         H           -4.867658183184    -0.748513208334     0.170763770978     1.007825032230

  Basis Set: AUG-CC-PVTZ
    Blend: AUG-CC-PVTZ
  Basis Set: (AUG-CC-PVTZ AUX)
    Blend: AUG-CC-PVTZ-JKFIT
	 Reference Energy          =    -570.4999850344312335 [Eh]
	 Singles Energy            =      -0.0000000000000000 [Eh]
	 Same-Spin Energy          =      -0.6410513295179305 [Eh]
	 Opposite-Spin Energy      =      -1.9783856929418242 [Eh]
	 Correlation Energy        =      -2.6194370224597545 [Eh]
	 Total Energy              =    -573.1194220568910396 [Eh]

	 ================> DF-SCS-MP2 Energies <==================
	-----------------------------------------------------------
	 SCS Same-Spin Scale       =       0.3333333333333333 [-]
	 SCS Opposite-Spin Scale   =       1.2000000000000000 [-]
	 SCS Same-Spin Energy      =      -0.2136837765059768 [Eh]
	 SCS Opposite-Spin Energy  =      -2.3740628315301890 [Eh]
	 SCS Correlation Energy    =      -2.5877466080361660 [Eh]
	 SCS Total Energy          =    -573.0877316424673609 [Eh]
	-----------------------------------------------------------

  Dipole Moment: [D]
     X:    -1.0911      Y:    -0.9996      Z:     0.0568     Total:     1.4809

*** Psi4 exiting successfully. Buy a developer a beer!
