                               Psi4 1.4a3.dev225

  ==> Input File <==

--------------------------------------------------------------------------
#psi4
#
memory 32 gb

molecule  {
0 1
  N        0.0801310     2.5312230    -0.3913130
  N       -1.9079299     0.8179474     0.6467627
  C        0.3499640     0.1224320    -0.0065570
  C        0.8960730     1.4188800    -0.1658420
  C        2.6063130    -0.8406050     0.1180930
  C        1.2173430    -0.9692250     0.1590540
  C       -1.1077440    -0.1233710    -0.0042630
  C        2.2932590     1.5435480    -0.2281840
  C        3.1306880     0.4434260    -0.0762550
  C        3.5085210    -2.0251140     0.3469700
  C       -1.6410700    -1.2638430    -0.6279320
  C       -3.0109220    -1.5027310    -0.5649580
  C       -3.2228950     0.5407920     0.6622730
  C       -3.8232840    -0.5849970     0.1005040
  H        0.7834850    -1.9532010     0.3364590
  H        2.7242150     2.5332940    -0.3759070
  H        4.2098530     0.5856070    -0.1209690
  H        3.8288200    -2.0891060     1.3929170
  H        2.9990460    -2.9607700     0.0984840
  H        4.4097140    -1.9577250    -0.2701360
  H       -0.9841790    -1.9393540    -1.1680850
  H        0.5549050     3.4095210    -0.2083710
  H       -0.8007830     2.4663430     0.1128890
  H       -3.4393090    -2.3812410    -1.0417430
  H       -3.8215100     1.2923600     1.1747000
  H       -4.8979480    -0.7268890     0.1711280
units angstrom
no_reorient  #important for SAPT in psi4, default
symmetry c1  #important for SAPT in psi4, default
}

set PROPERTIES_ORIGIN ["COM"]
properties('MP2/aug-cc-pvtz', properties = ['dipole'])
--------------------------------------------------------------------------

    Molecular point group: c1
  Charge       = 0
  Multiplicity = 1
  Basis Set: AUG-CC-PVTZ
    Blend: AUG-CC-PVTZ
  Basis Set: (AUG-CC-PVTZ AUX)
    Blend: AUG-CC-PVTZ-JKFIT

    Orbital Energies [Eh]
    ---------------------

    Doubly Occupied:

       1A    -15.573191     2A    -15.547377     3A    -11.293371
       4A    -11.280535     5A    -11.275723     6A    -11.264248
       7A    -11.241797     8A    -11.241631     9A    -11.233982
      10A    -11.232917    11A    -11.232796    12A    -11.226813
      13A    -11.222872    14A    -11.219678    15A     -1.252813
      16A     -1.210095    17A     -1.131965    18A     -1.088717
      19A     -1.062509    20A     -1.016283    21A     -0.991178
      22A     -0.915726    23A     -0.871103    24A     -0.860348
      25A     -0.813136    26A     -0.782974    27A     -0.707780
      28A     -0.689799    29A     -0.681354    30A     -0.659778
      31A     -0.648634    32A     -0.612265    33A     -0.600591
      34A     -0.589573    35A     -0.582099    36A     -0.573149
      37A     -0.569878    38A     -0.544817    39A     -0.532222
      40A     -0.528718    41A     -0.511992    42A     -0.491961
      43A     -0.484639    44A     -0.436551    45A     -0.424582
      46A     -0.386232    47A     -0.368427    48A     -0.315890
      49A     -0.278228

  @DF-RHF Final Energy:  -570.49739467927975

   => Energetics <=

    Nuclear Repulsion Energy =            810.9776468970571841
    One-Electron Energy =               -2382.3442107570376720
    Two-Electron Energy =                1000.8691691807007373
    Total Energy =                       -570.4973946792797506
  Basis Set: (AUG-CC-PVTZ AUX)
    Blend: AUG-CC-PVTZ-RI
    Molecular point group: c1

    Geometry (in Angstrom), charge = 0, multiplicity = 1:

       Center              X                  Y                   Z               Mass
    ------------   -----------------  -----------------  -----------------  -----------------
         N            0.110712120231     2.508090438129    -0.392584462163    14.003074004430
         N           -1.877348779769     0.794814838129     0.645491237837    14.003074004430
         C            0.380545120231     0.099299438129    -0.007828462163    12.000000000000
         C            0.926654120231     1.395747438129    -0.167113462163    12.000000000000
         C            2.636894120231    -0.863737561871     0.116821537837    12.000000000000
         C            1.247924120231    -0.992357561871     0.157782537837    12.000000000000
         C           -1.077162879769    -0.146503561871    -0.005534462163    12.000000000000
         C            2.323840120231     1.520415438129    -0.229455462163    12.000000000000
         C            3.161269120231     0.420293438129    -0.077526462163    12.000000000000
         C            3.539102120231    -2.048246561871     0.345698537837    12.000000000000
         C           -1.610488879769    -1.286975561871    -0.629203462163    12.000000000000
         C           -2.980340879769    -1.525863561871    -0.566229462163    12.000000000000
         C           -3.192313879769     0.517659438129     0.661001537837    12.000000000000
         C           -3.792702879769    -0.608129561871     0.099232537837    12.000000000000
         H            0.814066120231    -1.976333561871     0.335187537837     1.007825032230
         H            2.754796120231     2.510161438129    -0.377178462163     1.007825032230
         H            4.240434120231     0.562474438129    -0.122240462163     1.007825032230
         H            3.859401120231    -2.112238561871     1.391645537837     1.007825032230
         H            3.029627120231    -2.983902561871     0.097212537837     1.007825032230
         H            4.440295120231    -1.980857561871    -0.271407462163     1.007825032230
         H           -0.953597879769    -1.962486561871    -1.169356462163     1.007825032230
         H            0.585486120231     3.386388438129    -0.209642462163     1.007825032230
         H           -0.770201879769     2.443210438129     0.111617537837     1.007825032230
         H           -3.408727879769    -2.404373561871    -1.043014462163     1.007825032230
         H           -3.790928879769     1.269227438129     1.173428537837     1.007825032230
         H           -4.867366879769    -0.750021561871     0.169856537837     1.007825032230

  Basis Set: AUG-CC-PVTZ
    Blend: AUG-CC-PVTZ
  Basis Set: (AUG-CC-PVTZ AUX)
    Blend: AUG-CC-PVTZ-JKFIT
	 Reference Energy          =    -570.4973946792797506 [Eh]
	 Singles Energy            =      -0.0000000000000000 [Eh]
	 Same-Spin Energy          =      -0.6412730787356944 [Eh]
	 Opposite-Spin Energy      =      -1.9791360359818717 [Eh]
	 Correlation Energy        =      -2.6204091147175661 [Eh]
	 Total Energy              =    -573.1178037939972683 [Eh]

	 ================> DF-SCS-MP2 Energies <==================
	-----------------------------------------------------------
	 SCS Same-Spin Scale       =       0.3333333333333333 [-]
	 SCS Opposite-Spin Scale   =       1.2000000000000000 [-]
	 SCS Same-Spin Energy      =      -0.2137576929118981 [Eh]
	 SCS Opposite-Spin Energy  =      -2.3749632431782461 [Eh]
	 SCS Correlation Energy    =      -2.5887209360901444 [Eh]
	 SCS Total Energy          =    -573.0861156153698630 [Eh]
	-----------------------------------------------------------

  Dipole Moment: [D]
     X:    -1.0847      Y:    -1.0334      Z:     0.0373     Total:     1.4986

*** Psi4 exiting successfully. Buy a developer a beer!
