                               Psi4 1.4a3.dev225

  ==> Input File <==

--------------------------------------------------------------------------
#psi4
#
memory 32 gb

molecule  {
0 1
  N        0.0801310     2.5312230    -0.3913130
  N       -1.9006720     0.7782080     0.6229160
  C        0.3499640     0.1224320    -0.0065570
  C        0.8960730     1.4188800    -0.1658420
  C        2.6002550    -0.8693925     0.0171425
  C        1.2173430    -0.9692250     0.1590540
  C       -1.1077440    -0.1233710    -0.0042630
  C        2.2932590     1.5435480    -0.2281840
  C        3.1306880     0.4434260    -0.0762550
  C        3.5085210    -2.0251140     0.3469700
  C       -1.6410700    -1.2638430    -0.6279320
  C       -3.0109220    -1.5027310    -0.5649580
  C       -3.2228950     0.5407920     0.6622730
  C       -3.8232840    -0.5849970     0.1005040
  H        0.7834850    -1.9532010     0.3364590
  H        2.7242150     2.5332940    -0.3759070
  H        4.2098530     0.5856070    -0.1209690
  H        3.8288200    -2.0891060     1.3929170
  H        2.9990460    -2.9607700     0.0984840
  H        4.4097140    -1.9577250    -0.2701360
  H       -0.9841790    -1.9393540    -1.1680850
  H        0.5549050     3.4095210    -0.2083710
  H       -0.8007830     2.4663430     0.1128890
  H       -3.4393090    -2.3812410    -1.0417430
  H       -3.8215100     1.2923600     1.1747000
  H       -4.8979480    -0.7268890     0.1711280
units angstrom
no_reorient  #important for SAPT in psi4, default
symmetry c1  #important for SAPT in psi4, default
}

set PROPERTIES_ORIGIN ["COM"]
properties('MP2/aug-cc-pvtz', properties = ['dipole'])
--------------------------------------------------------------------------

    Molecular point group: c1
  Charge       = 0
  Multiplicity = 1
  Basis Set: AUG-CC-PVTZ
    Blend: AUG-CC-PVTZ
  Basis Set: (AUG-CC-PVTZ AUX)
    Blend: AUG-CC-PVTZ-JKFIT

    Orbital Energies [Eh]
    ---------------------

    Doubly Occupied:

       1A    -15.567554     2A    -15.548989     3A    -11.288514
       4A    -11.280239     5A    -11.277072     6A    -11.262393
       7A    -11.241714     8A    -11.240833     9A    -11.235579
      10A    -11.233652    11A    -11.231924    12A    -11.227451
      13A    -11.223263    14A    -11.219088    15A     -1.261046
      16A     -1.211505    17A     -1.130665    18A     -1.087862
      19A     -1.062363    20A     -1.016699    21A     -0.992028
      22A     -0.914990    23A     -0.870056    24A     -0.862076
      25A     -0.813921    26A     -0.783600    27A     -0.709203
      28A     -0.689572    29A     -0.681676    30A     -0.660498
      31A     -0.650377    32A     -0.613789    33A     -0.600622
      34A     -0.588644    35A     -0.582965    36A     -0.573969
      37A     -0.568014    38A     -0.548925    39A     -0.531810
      40A     -0.528716    41A     -0.511670    42A     -0.494857
      43A     -0.482755    44A     -0.433669    45A     -0.419071
      46A     -0.387558    47A     -0.365798    48A     -0.317536
      49A     -0.278649

  @DF-RHF Final Energy:  -570.49666118265782

   => Energetics <=

    Nuclear Repulsion Energy =            811.7806952726393774
    One-Electron Energy =               -2383.9438669015958112
    Two-Electron Energy =                1001.6665104462986164
    Total Energy =                       -570.4966611826578173
  Basis Set: (AUG-CC-PVTZ AUX)
    Blend: AUG-CC-PVTZ-RI
    Molecular point group: c1

    Geometry (in Angstrom), charge = 0, multiplicity = 1:

       Center              X                  Y                   Z               Mass
    ------------   -----------------  -----------------  -----------------  -----------------
         N            0.110554939877     2.512989533849    -0.384190476836    14.003074004430
         N           -1.870248060123     0.759974533849     0.630038523164    14.003074004430
         C            0.380387939877     0.104198533849     0.000565523164    12.000000000000
         C            0.926496939877     1.400646533849    -0.158719476836    12.000000000000
         C            2.630678939877    -0.887625966151     0.024265023164    12.000000000000
         C            1.247766939877    -0.987458466151     0.166176523164    12.000000000000
         C           -1.077320060123    -0.141604466151     0.002859523164    12.000000000000
         C            2.323682939877     1.525314533849    -0.221061476836    12.000000000000
         C            3.161111939877     0.425192533849    -0.069132476836    12.000000000000
         C            3.538944939877    -2.043347466151     0.354092523164    12.000000000000
         C           -1.610646060123    -1.282076466151    -0.620809476836    12.000000000000
         C           -2.980498060123    -1.520964466151    -0.557835476836    12.000000000000
         C           -3.192471060123     0.522558533849     0.669395523164    12.000000000000
         C           -3.792860060123    -0.603230466151     0.107626523164    12.000000000000
         H            0.813908939877    -1.971434466151     0.343581523164     1.007825032230
         H            2.754638939877     2.515060533849    -0.368784476836     1.007825032230
         H            4.240276939877     0.567373533849    -0.113846476836     1.007825032230
         H            3.859243939877    -2.107339466151     1.400039523164     1.007825032230
         H            3.029469939877    -2.979003466151     0.105606523164     1.007825032230
         H            4.440137939877    -1.975958466151    -0.263013476836     1.007825032230
         H           -0.953755060123    -1.957587466151    -1.160962476836     1.007825032230
         H            0.585328939877     3.391287533849    -0.201248476836     1.007825032230
         H           -0.770359060123     2.448109533849     0.120011523164     1.007825032230
         H           -3.408885060123    -2.399474466151    -1.034620476836     1.007825032230
         H           -3.791086060123     1.274126533849     1.181822523164     1.007825032230
         H           -4.867524060123    -0.745122466151     0.178250523164     1.007825032230

  Basis Set: AUG-CC-PVTZ
    Blend: AUG-CC-PVTZ
  Basis Set: (AUG-CC-PVTZ AUX)
    Blend: AUG-CC-PVTZ-JKFIT
	 Reference Energy          =    -570.4966611826578173 [Eh]
	 Singles Energy            =      -0.0000000000000000 [Eh]
	 Same-Spin Energy          =      -0.6410246931483214 [Eh]
	 Opposite-Spin Energy      =      -1.9783539725024548 [Eh]
	 Correlation Energy        =      -2.6193786656507765 [Eh]
	 Total Energy              =    -573.1160398483085601 [Eh]

	 ================> DF-SCS-MP2 Energies <==================
	-----------------------------------------------------------
	 SCS Same-Spin Scale       =       0.3333333333333333 [-]
	 SCS Opposite-Spin Scale   =       1.2000000000000000 [-]
	 SCS Same-Spin Energy      =      -0.2136748977161071 [Eh]
	 SCS Opposite-Spin Energy  =      -2.3740247670029455 [Eh]
	 SCS Correlation Energy    =      -2.5876996647190524 [Eh]
	 SCS Total Energy          =    -573.0843608473768427 [Eh]
	-----------------------------------------------------------

  Dipole Moment: [D]
     X:    -1.1581      Y:    -0.8896      Z:     0.1189     Total:     1.4651

*** Psi4 exiting successfully. Buy a developer a beer!
