                               Psi4 1.4a3.dev225

  ==> Input File <==

--------------------------------------------------------------------------
#psi4
#
memory 32 gb

molecule  {
0 1
  N        0.0801310     2.5312230    -0.3913130
  N       -1.9006720     0.7782080     0.6229160
  C        0.3499640     0.1224320    -0.0065570
  C        0.8960730     1.4188800    -0.1658420
  C        2.6063130    -0.8406050     0.1180930
  C        1.2173430    -0.9692250     0.1590540
  C       -1.1077440    -0.1233710    -0.0042630
  C        2.2932590     1.5435480    -0.2281840
  C        3.1306880     0.4434260    -0.0762550
  C        3.5085210    -2.0251140     0.3469700
  C       -1.6410700    -1.2638430    -0.6279320
  C       -3.0109220    -1.5027310    -0.5649580
  C       -3.2228950     0.5407920     0.6622730
  C       -3.8663511    -0.6657521     0.0602072
  H        0.7834850    -1.9532010     0.3364590
  H        2.7242150     2.5332940    -0.3759070
  H        4.2098530     0.5856070    -0.1209690
  H        3.8288200    -2.0891060     1.3929170
  H        2.9990460    -2.9607700     0.0984840
  H        4.4097140    -1.9577250    -0.2701360
  H       -0.9841790    -1.9393540    -1.1680850
  H        0.5549050     3.4095210    -0.2083710
  H       -0.8007830     2.4663430     0.1128890
  H       -3.4393090    -2.3812410    -1.0417430
  H       -3.8215100     1.2923600     1.1747000
  H       -4.8979480    -0.7268890     0.1711280
units angstrom
no_reorient  #important for SAPT in psi4, default
symmetry c1  #important for SAPT in psi4, default
}

set PROPERTIES_ORIGIN ["COM"]
properties('MP2/aug-cc-pvtz', properties = ['dipole'])
--------------------------------------------------------------------------

    Molecular point group: c1
  Charge       = 0
  Multiplicity = 1
  Basis Set: AUG-CC-PVTZ
    Blend: AUG-CC-PVTZ
  Basis Set: (AUG-CC-PVTZ AUX)
    Blend: AUG-CC-PVTZ-JKFIT

    Orbital Energies [Eh]
    ---------------------

    Doubly Occupied:

       1A    -15.570653     2A    -15.547864     3A    -11.293961
       4A    -11.287591     5A    -11.274942     6A    -11.256034
       7A    -11.244162     8A    -11.239137     9A    -11.232895
      10A    -11.232083    11A    -11.231729    12A    -11.226187
      13A    -11.222386    14A    -11.219141    15A     -1.259578
      16A     -1.210330    17A     -1.131172    18A     -1.093255
      19A     -1.058769    20A     -1.015641    21A     -0.987909
      22A     -0.915411    23A     -0.874902    24A     -0.855926
      25A     -0.815829    26A     -0.782172    27A     -0.709529
      28A     -0.690403    29A     -0.682084    30A     -0.664846
      31A     -0.651212    32A     -0.612029    33A     -0.600283
      34A     -0.587111    35A     -0.582006    36A     -0.571389
      37A     -0.563478    38A     -0.548900    39A     -0.541063
      40A     -0.530041    41A     -0.512867    42A     -0.493126
      43A     -0.485198    44A     -0.434579    45A     -0.414503
      46A     -0.395485    47A     -0.361232    48A     -0.313340
      49A     -0.277402

  @DF-RHF Final Energy:  -570.48999012187301

   => Energetics <=

    Nuclear Repulsion Energy =            810.8752670101947615
    One-Electron Energy =               -2382.1269906863026335
    Two-Electron Energy =                1000.7617335542347519
    Total Energy =                       -570.4899901218730065
  Basis Set: (AUG-CC-PVTZ AUX)
    Blend: AUG-CC-PVTZ-RI
    Molecular point group: c1

    Geometry (in Angstrom), charge = 0, multiplicity = 1:

       Center              X                  Y                   Z               Mass
    ------------   -----------------  -----------------  -----------------  -----------------
         N            0.112967265153     2.516376883312    -0.388144003228    14.003074004430
         N           -1.867835734847     0.763361883312     0.626084996772    14.003074004430
         C            0.382800265153     0.107585883312    -0.003388003228    12.000000000000
         C            0.928909265153     1.404033883312    -0.162673003228    12.000000000000
         C            2.639149265153    -0.855451116688     0.121261996772    12.000000000000
         C            1.250179265153    -0.984071116688     0.162222996772    12.000000000000
         C           -1.074907734847    -0.138217116688    -0.001094003228    12.000000000000
         C            2.326095265153     1.528701883312    -0.225015003228    12.000000000000
         C            3.163524265153     0.428579883312    -0.073086003228    12.000000000000
         C            3.541357265153    -2.039960116688     0.350138996772    12.000000000000
         C           -1.608233734847    -1.278689116688    -0.624763003228    12.000000000000
         C           -2.978085734847    -1.517577116688    -0.561789003228    12.000000000000
         C           -3.190058734847     0.525945883312     0.665441996772    12.000000000000
         C           -3.833514834847    -0.680598216688     0.063376196772    12.000000000000
         H            0.816321265153    -1.968047116688     0.339627996772     1.007825032230
         H            2.757051265153     2.518447883312    -0.372738003228     1.007825032230
         H            4.242689265153     0.570760883312    -0.117800003228     1.007825032230
         H            3.861656265153    -2.103952116688     1.396085996772     1.007825032230
         H            3.031882265153    -2.975616116688     0.101652996772     1.007825032230
         H            4.442550265153    -1.972571116688    -0.266967003228     1.007825032230
         H           -0.951342734847    -1.954200116688    -1.164916003228     1.007825032230
         H            0.587741265153     3.394674883312    -0.205202003228     1.007825032230
         H           -0.767946734847     2.451496883312     0.116057996772     1.007825032230
         H           -3.406472734847    -2.396087116688    -1.038574003228     1.007825032230
         H           -3.788673734847     1.277513883312     1.177868996772     1.007825032230
         H           -4.865111734847    -0.741735116688     0.174296996772     1.007825032230

  Basis Set: AUG-CC-PVTZ
    Blend: AUG-CC-PVTZ
  Basis Set: (AUG-CC-PVTZ AUX)
    Blend: AUG-CC-PVTZ-JKFIT
	 Reference Energy          =    -570.4899901218730065 [Eh]
	 Singles Energy            =      -0.0000000000000000 [Eh]
	 Same-Spin Energy          =      -0.6407369333705688 [Eh]
	 Opposite-Spin Energy      =      -1.9783452450916299 [Eh]
	 Correlation Energy        =      -2.6190821784621985 [Eh]
	 Total Energy              =    -573.1090723003352423 [Eh]

	 ================> DF-SCS-MP2 Energies <==================
	-----------------------------------------------------------
	 SCS Same-Spin Scale       =       0.3333333333333333 [-]
	 SCS Opposite-Spin Scale   =       1.2000000000000000 [-]
	 SCS Same-Spin Energy      =      -0.2135789777901896 [Eh]
	 SCS Opposite-Spin Energy  =      -2.3740142941099558 [Eh]
	 SCS Correlation Energy    =      -2.5875932719001455 [Eh]
	 SCS Total Energy          =    -573.0775833937731250 [Eh]
	-----------------------------------------------------------

  Dipole Moment: [D]
     X:    -1.1569      Y:    -0.8989      Z:     0.1251     Total:     1.4704

*** Psi4 exiting successfully. Buy a developer a beer!
