                               Psi4 1.4a3.dev225

  ==> Input File <==

--------------------------------------------------------------------------
#psi4
#
memory 32 gb

molecule  {
0 1
  N        0.0801310     2.5312230    -0.3913130
  N       -1.9006720     0.7782080     0.6229160
  C        0.3499640     0.1224320    -0.0065570
  C        0.8960730     1.4188800    -0.1658420
  C        2.6063130    -0.8406050     0.1180930
  C        1.2173430    -0.9692250     0.1590540
  C       -1.1077440    -0.1233710    -0.0042630
  C        2.2932590     1.5435480    -0.2281840
  C        3.1306880     0.4434260    -0.0762550
  C        3.5085210    -2.0251140     0.3469700
  C       -1.6410700    -1.2638430    -0.6279320
  C       -3.0109220    -1.5027310    -0.5649580
  C       -3.2228950     0.5407920     0.6622730
  C       -3.8232840    -0.5849970     0.1005040
  H        0.7834850    -1.9532010     0.3364590
  H        2.7242150     2.5332940    -0.3759070
  H        4.2098530     0.5856070    -0.1209690
  H        3.8288200    -2.0891060     1.3929170
  H        2.9990460    -2.9607700     0.0984840
  H        4.4097140    -1.9577250    -0.2701360
  H       -0.9841790    -1.9393540    -1.1680850
  H        0.5549050     3.4095210    -0.2083710
  H       -0.8007830     2.4663430     0.1128890
  H       -3.3999165    -2.3004572    -0.9979000
  H       -3.8215100     1.2923600     1.1747000
  H       -4.8979480    -0.7268890     0.1711280
units angstrom
no_reorient  #important for SAPT in psi4, default
symmetry c1  #important for SAPT in psi4, default
}

set PROPERTIES_ORIGIN ["COM"]
properties('MP2/aug-cc-pvtz', properties = ['dipole'])
--------------------------------------------------------------------------

    Molecular point group: c1
  Charge       = 0
  Multiplicity = 1
  Basis Set: AUG-CC-PVTZ
    Blend: AUG-CC-PVTZ
  Basis Set: (AUG-CC-PVTZ AUX)
    Blend: AUG-CC-PVTZ-JKFIT

    Orbital Energies [Eh]
    ---------------------

    Doubly Occupied:

       1A    -15.567357     2A    -15.547571     3A    -11.288155
       4A    -11.279691     5A    -11.275185     6A    -11.250710
       7A    -11.240933     8A    -11.240190     9A    -11.233279
      10A    -11.232395    11A    -11.232082    12A    -11.226501
      13A    -11.222572    14A    -11.219422    15A     -1.260690
      16A     -1.210478    17A     -1.131514    18A     -1.091284
      19A     -1.062675    20A     -1.015990    21A     -0.992108
      22A     -0.915405    23A     -0.872752    24A     -0.867654
      25A     -0.815042    26A     -0.787013    27A     -0.714540
      28A     -0.690199    29A     -0.681748    30A     -0.660835
      31A     -0.650141    32A     -0.615846    33A     -0.600509
      34A     -0.592882    35A     -0.581944    36A     -0.579772
      37A     -0.571063    38A     -0.548035    39A     -0.531944
      40A     -0.529088    41A     -0.512801    42A     -0.492724
      43A     -0.485546    44A     -0.434980    45A     -0.419131
      46A     -0.387300    47A     -0.366250    48A     -0.316230
      49A     -0.278344

  @DF-RHF Final Energy:  -570.49586563939897

   => Energetics <=

    Nuclear Repulsion Energy =            812.5793174693259289
    One-Electron Energy =               -2385.5093630770620621
    Two-Electron Energy =                1002.4341799683372756
    Total Energy =                       -570.4958656393989713
  Basis Set: (AUG-CC-PVTZ AUX)
    Blend: AUG-CC-PVTZ-RI
    Molecular point group: c1

    Geometry (in Angstrom), charge = 0, multiplicity = 1:

       Center              X                  Y                   Z               Mass
    ------------   -----------------  -----------------  -----------------  -----------------
         N            0.109944419953     2.510670871037    -0.391010638394    14.003074004430
         N           -1.870858580047     0.757655871037     0.623218361606    14.003074004430
         C            0.379777419953     0.101879871037    -0.006254638394    12.000000000000
         C            0.925886419953     1.398327871037    -0.165539638394    12.000000000000
         C            2.636126419953    -0.861157128963     0.118395361606    12.000000000000
         C            1.247156419953    -0.989777128963     0.159356361606    12.000000000000
         C           -1.077930580047    -0.143923128963    -0.003960638394    12.000000000000
         C            2.323072419953     1.522995871037    -0.227881638394    12.000000000000
         C            3.160501419953     0.422873871037    -0.075952638394    12.000000000000
         C            3.538334419953    -2.045666128963     0.347272361606    12.000000000000
         C           -1.611256580047    -1.284395128963    -0.627629638394    12.000000000000
         C           -2.981108580047    -1.523283128963    -0.564655638394    12.000000000000
         C           -3.193081580047     0.520239871037     0.662575361606    12.000000000000
         C           -3.793470580047    -0.605549128963     0.100806361606    12.000000000000
         H            0.813298419953    -1.973753128963     0.336761361606     1.007825032230
         H            2.754028419953     2.512741871037    -0.375604638394     1.007825032230
         H            4.239666419953     0.565054871037    -0.120666638394     1.007825032230
         H            3.858633419953    -2.109658128963     1.393219361606     1.007825032230
         H            3.028859419953    -2.981322128963     0.098786361606     1.007825032230
         H            4.439527419953    -1.978277128963    -0.269833638394     1.007825032230
         H           -0.954365580047    -1.959906128963    -1.167782638394     1.007825032230
         H            0.584718419953     3.388968871037    -0.208068638394     1.007825032230
         H           -0.770969580047     2.445790871037     0.113191361606     1.007825032230
         H           -3.370103080047    -2.321009328963    -0.997597638394     1.007825032230
         H           -3.791696580047     1.271807871037     1.175002361606     1.007825032230
         H           -4.868134580047    -0.747441128963     0.171430361606     1.007825032230

  Basis Set: AUG-CC-PVTZ
    Blend: AUG-CC-PVTZ
  Basis Set: (AUG-CC-PVTZ AUX)
    Blend: AUG-CC-PVTZ-JKFIT
	 Reference Energy          =    -570.4958656393989713 [Eh]
	 Singles Energy            =      -0.0000000000000000 [Eh]
	 Same-Spin Energy          =      -0.6407055899269019 [Eh]
	 Opposite-Spin Energy      =      -1.9772044889108591 [Eh]
	 Correlation Energy        =      -2.6179100788377609 [Eh]
	 Total Energy              =    -573.1137757182367523 [Eh]

	 ================> DF-SCS-MP2 Energies <==================
	-----------------------------------------------------------
	 SCS Same-Spin Scale       =       0.3333333333333333 [-]
	 SCS Opposite-Spin Scale   =       1.2000000000000000 [-]
	 SCS Same-Spin Energy      =      -0.2135685299756339 [Eh]
	 SCS Opposite-Spin Energy  =      -2.3726453866930308 [Eh]
	 SCS Correlation Energy    =      -2.5862139166686648 [Eh]
	 SCS Total Energy          =    -573.0820795560675833 [Eh]
	-----------------------------------------------------------

  Dipole Moment: [D]
     X:    -1.1150      Y:    -0.9823      Z:     0.0687     Total:     1.4876

*** Psi4 exiting successfully. Buy a developer a beer!
