                               Psi4 1.4a3.dev225

  ==> Input File <==

--------------------------------------------------------------------------
#psi4
#
memory 32 gb

molecule  {
0 1
  N        0.0801310     2.5312230    -0.3913130
  N       -1.9006720     0.7782080     0.6229160
  C        0.3499640     0.1224320    -0.0065570
  C        0.8960730     1.4188800    -0.1658420
  C        2.6063130    -0.8406050     0.1180930
  C        1.2173430    -0.9692250     0.1590540
  C       -1.1077440    -0.1233710    -0.0042630
  C        2.2932590     1.5435480    -0.2281840
  C        3.1306880     0.4434260    -0.0762550
  C        3.4785764    -1.9857997     0.3393735
  C       -1.6410700    -1.2638430    -0.6279320
  C       -3.0109220    -1.5027310    -0.5649580
  C       -3.2228950     0.5407920     0.6622730
  C       -3.8232840    -0.5849970     0.1005040
  H        0.7834850    -1.9532010     0.3364590
  H        2.7242150     2.5332940    -0.3759070
  H        4.2098530     0.5856070    -0.1209690
  H        3.8288200    -2.0891060     1.3929170
  H        2.9990460    -2.9607700     0.0984840
  H        4.4097140    -1.9577250    -0.2701360
  H       -0.9841790    -1.9393540    -1.1680850
  H        0.5549050     3.4095210    -0.2083710
  H       -0.8007830     2.4663430     0.1128890
  H       -3.4393090    -2.3812410    -1.0417430
  H       -3.8215100     1.2923600     1.1747000
  H       -4.8979480    -0.7268890     0.1711280
units angstrom
no_reorient  #important for SAPT in psi4, default
symmetry c1  #important for SAPT in psi4, default
}

set PROPERTIES_ORIGIN ["COM"]
properties('MP2/aug-cc-pvtz', properties = ['dipole'])
--------------------------------------------------------------------------

    Molecular point group: c1
  Charge       = 0
  Multiplicity = 1
  Basis Set: AUG-CC-PVTZ
    Blend: AUG-CC-PVTZ
  Basis Set: (AUG-CC-PVTZ AUX)
    Blend: AUG-CC-PVTZ-JKFIT

    Orbital Energies [Eh]
    ---------------------

    Doubly Occupied:

       1A    -15.567683     2A    -15.548013     3A    -11.288824
       4A    -11.280351     5A    -11.275734     6A    -11.262517
       7A    -11.241739     8A    -11.240968     9A    -11.233659
      10A    -11.232724    11A    -11.232484    12A    -11.224190
      13A    -11.222985    14A    -11.221361    15A     -1.261161
      16A     -1.210975    17A     -1.134281    18A     -1.087965
      19A     -1.064342    20A     -1.020389    21A     -0.992831
      22A     -0.913194    23A     -0.870970    24A     -0.862140
      25A     -0.815319    26A     -0.783334    27A     -0.709611
      28A     -0.690588    29A     -0.681687    30A     -0.660869
      31A     -0.651055    32A     -0.617289    33A     -0.600831
      34A     -0.589938    35A     -0.583394    36A     -0.573487
      37A     -0.566588    38A     -0.547651    39A     -0.533380
      40A     -0.522009    41A     -0.512893    42A     -0.499468
      43A     -0.483923    44A     -0.433733    45A     -0.418805
      46A     -0.387660    47A     -0.366697    48A     -0.316636
      49A     -0.277949

  @DF-RHF Final Energy:  -570.49841014740923

   => Energetics <=

    Nuclear Repulsion Energy =            812.9523821018201488
    One-Electron Energy =               -2386.2690336071755155
    Two-Electron Energy =                1002.8182413579461354
    Total Energy =                       -570.4984101474092313
  Basis Set: (AUG-CC-PVTZ AUX)
    Blend: AUG-CC-PVTZ-RI
    Molecular point group: c1

    Geometry (in Angstrom), charge = 0, multiplicity = 1:

       Center              X                  Y                   Z               Mass
    ------------   -----------------  -----------------  -----------------  -----------------
         N            0.112111915025     2.508550525782    -0.390275472521    14.003074004430
         N           -1.868691084975     0.755535525782     0.623953527479    14.003074004430
         C            0.381944915025     0.099759525782    -0.005519472521    12.000000000000
         C            0.928053915025     1.396207525782    -0.164804472521    12.000000000000
         C            2.638293915025    -0.863277474218     0.119130527479    12.000000000000
         C            1.249323915025    -0.991897474218     0.160091527479    12.000000000000
         C           -1.075763084975    -0.146043474218    -0.003225472521    12.000000000000
         C            2.325239915025     1.520875525782    -0.227146472521    12.000000000000
         C            3.162668915025     0.420753525782    -0.075217472521    12.000000000000
         C            3.510557315025    -2.008472174218     0.340411027479    12.000000000000
         C           -1.609089084975    -1.286515474218    -0.626894472521    12.000000000000
         C           -2.978941084975    -1.525403474218    -0.563920472521    12.000000000000
         C           -3.190914084975     0.518119525782     0.663310527479    12.000000000000
         C           -3.791303084975    -0.607669474218     0.101541527479    12.000000000000
         H            0.815465915025    -1.975873474218     0.337496527479     1.007825032230
         H            2.756195915025     2.510621525782    -0.374869472521     1.007825032230
         H            4.241833915025     0.562934525782    -0.119931472521     1.007825032230
         H            3.860800915025    -2.111778474218     1.393954527479     1.007825032230
         H            3.031026915025    -2.983442474218     0.099521527479     1.007825032230
         H            4.441694915025    -1.980397474218    -0.269098472521     1.007825032230
         H           -0.952198084975    -1.962026474218    -1.167047472521     1.007825032230
         H            0.586885915025     3.386848525782    -0.207333472521     1.007825032230
         H           -0.768802084975     2.443670525782     0.113926527479     1.007825032230
         H           -3.407328084975    -2.403913474218    -1.040705472521     1.007825032230
         H           -3.789529084975     1.269687525782     1.175737527479     1.007825032230
         H           -4.865967084975    -0.749561474218     0.172165527479     1.007825032230

  Basis Set: AUG-CC-PVTZ
    Blend: AUG-CC-PVTZ
  Basis Set: (AUG-CC-PVTZ AUX)
    Blend: AUG-CC-PVTZ-JKFIT
	 Reference Energy          =    -570.4984101474092313 [Eh]
	 Singles Energy            =      -0.0000000000000000 [Eh]
	 Same-Spin Energy          =      -0.6413491557135135 [Eh]
	 Opposite-Spin Energy      =      -1.9782161158029279 [Eh]
	 Correlation Energy        =      -2.6195652715164415 [Eh]
	 Total Energy              =    -573.1179754189256528 [Eh]

	 ================> DF-SCS-MP2 Energies <==================
	-----------------------------------------------------------
	 SCS Same-Spin Scale       =       0.3333333333333333 [-]
	 SCS Opposite-Spin Scale   =       1.2000000000000000 [-]
	 SCS Same-Spin Energy      =      -0.2137830519045045 [Eh]
	 SCS Opposite-Spin Energy  =      -2.3738593389635132 [Eh]
	 SCS Correlation Energy    =      -2.5876423908680177 [Eh]
	 SCS Total Energy          =    -573.0860525382772721 [Eh]
	-----------------------------------------------------------

  Dipole Moment: [D]
     X:    -1.1098      Y:    -0.9522      Z:     0.0749     Total:     1.4642

*** Psi4 exiting successfully. Buy a developer a beer!
