                               Psi4 1.4a3.dev225

  ==> Input File <==

--------------------------------------------------------------------------
#psi4
#
memory 32 gb

molecule  {
0 1
  N        0.0801310     2.5312230    -0.3913130
  N       -1.9006720     0.7782080     0.6229160
  C        0.3499640     0.1224320    -0.0065570
  C        0.8960730     1.4188800    -0.1658420
  C        2.6063130    -0.8406050     0.1180930
  C        1.1974368    -0.9710683     0.1596410
  C       -1.1077440    -0.1233710    -0.0042630
  C        2.2932590     1.5435480    -0.2281840
  C        3.1306880     0.4434260    -0.0762550
  C        3.5085210    -2.0251140     0.3469700
  C       -1.6410700    -1.2638430    -0.6279320
  C       -3.0109220    -1.5027310    -0.5649580
  C       -3.2228950     0.5407920     0.6622730
  C       -3.8232840    -0.5849970     0.1005040
  H        0.7834850    -1.9532010     0.3364590
  H        2.7242150     2.5332940    -0.3759070
  H        4.2098530     0.5856070    -0.1209690
  H        3.8288200    -2.0891060     1.3929170
  H        2.9990460    -2.9607700     0.0984840
  H        4.4097140    -1.9577250    -0.2701360
  H       -0.9841790    -1.9393540    -1.1680850
  H        0.5549050     3.4095210    -0.2083710
  H       -0.8007830     2.4663430     0.1128890
  H       -3.4393090    -2.3812410    -1.0417430
  H       -3.8215100     1.2923600     1.1747000
  H       -4.8979480    -0.7268890     0.1711280
units angstrom
no_reorient  #important for SAPT in psi4, default
symmetry c1  #important for SAPT in psi4, default
}

set PROPERTIES_ORIGIN ["COM"]
properties('MP2/aug-cc-pvtz', properties = ['dipole'])
--------------------------------------------------------------------------

    Molecular point group: c1
  Charge       = 0
  Multiplicity = 1
  Basis Set: AUG-CC-PVTZ
    Blend: AUG-CC-PVTZ
  Basis Set: (AUG-CC-PVTZ AUX)
    Blend: AUG-CC-PVTZ-JKFIT

    Orbital Energies [Eh]
    ---------------------

    Doubly Occupied:

       1A    -15.567603     2A    -15.547704     3A    -11.288548
       4A    -11.280290     5A    -11.275369     6A    -11.262512
       7A    -11.241720     8A    -11.240939     9A    -11.233800
      10A    -11.232370    11A    -11.231935    12A    -11.228408
      13A    -11.222165    14A    -11.219523    15A     -1.261163
      16A     -1.210591    17A     -1.130440    18A     -1.087944
      19A     -1.063609    20A     -1.015010    21A     -0.993447
      22A     -0.914719    23A     -0.870230    24A     -0.862158
      25A     -0.815029    26A     -0.783165    27A     -0.709047
      28A     -0.689680    29A     -0.682077    30A     -0.660570
      31A     -0.649765    32A     -0.613698    33A     -0.600199
      34A     -0.589226    35A     -0.583195    36A     -0.573558
      37A     -0.569755    38A     -0.548527    39A     -0.532741
      40A     -0.529240    41A     -0.513048    42A     -0.493945
      43A     -0.484476    44A     -0.434322    45A     -0.418719
      46A     -0.387728    47A     -0.367064    48A     -0.316496
      49A     -0.277507

  @DF-RHF Final Energy:  -570.50103543592229

   => Energetics <=

    Nuclear Repulsion Energy =            811.9954998966378525
    One-Electron Energy =               -2384.3831267098094031
    Two-Electron Energy =                1001.8865913772493741
    Total Energy =                       -570.5010354359222902
  Basis Set: (AUG-CC-PVTZ AUX)
    Blend: AUG-CC-PVTZ-RI
    Molecular point group: c1

    Geometry (in Angstrom), charge = 0, multiplicity = 1:

       Center              X                  Y                   Z               Mass
    ------------   -----------------  -----------------  -----------------  -----------------
         N            0.111457592546     2.511233258374    -0.390808889002    14.003074004430
         N           -1.869345407454     0.758218258374     0.623420110998    14.003074004430
         C            0.381290592546     0.102442258374    -0.006052889002    12.000000000000
         C            0.927399592546     1.398890258374    -0.165337889002    12.000000000000
         C            2.637639592546    -0.860594741626     0.118597110998    12.000000000000
         C            1.228763392546    -0.991058041626     0.160145110998    12.000000000000
         C           -1.076417407454    -0.143360741626    -0.003758889002    12.000000000000
         C            2.324585592546     1.523558258374    -0.227679889002    12.000000000000
         C            3.162014592546     0.423436258374    -0.075750889002    12.000000000000
         C            3.539847592546    -2.045103741626     0.347474110998    12.000000000000
         C           -1.609743407454    -1.283832741626    -0.627427889002    12.000000000000
         C           -2.979595407454    -1.522720741626    -0.564453889002    12.000000000000
         C           -3.191568407454     0.520802258374     0.662777110998    12.000000000000
         C           -3.791957407454    -0.604986741626     0.101008110998    12.000000000000
         H            0.814811592546    -1.973190741626     0.336963110998     1.007825032230
         H            2.755541592546     2.513304258374    -0.375402889002     1.007825032230
         H            4.241179592546     0.565617258374    -0.120464889002     1.007825032230
         H            3.860146592546    -2.109095741626     1.393421110998     1.007825032230
         H            3.030372592546    -2.980759741626     0.098988110998     1.007825032230
         H            4.441040592546    -1.977714741626    -0.269631889002     1.007825032230
         H           -0.952852407454    -1.959343741626    -1.167580889002     1.007825032230
         H            0.586231592546     3.389531258374    -0.207866889002     1.007825032230
         H           -0.769456407454     2.446353258374     0.113393110998     1.007825032230
         H           -3.407982407454    -2.401230741626    -1.041238889002     1.007825032230
         H           -3.790183407454     1.272370258374     1.175204110998     1.007825032230
         H           -4.866621407454    -0.746878741626     0.171632110998     1.007825032230

  Basis Set: AUG-CC-PVTZ
    Blend: AUG-CC-PVTZ
  Basis Set: (AUG-CC-PVTZ AUX)
    Blend: AUG-CC-PVTZ-JKFIT
	 Reference Energy          =    -570.5010354359222902 [Eh]
	 Singles Energy            =      -0.0000000000000000 [Eh]
	 Same-Spin Energy          =      -0.6408623980678524 [Eh]
	 Opposite-Spin Energy      =      -1.9777820004077689 [Eh]
	 Correlation Energy        =      -2.6186443984756211 [Eh]
	 Total Energy              =    -573.1196798343978571 [Eh]

	 ================> DF-SCS-MP2 Energies <==================
	-----------------------------------------------------------
	 SCS Same-Spin Scale       =       0.3333333333333333 [-]
	 SCS Opposite-Spin Scale   =       1.2000000000000000 [-]
	 SCS Same-Spin Energy      =      -0.2136207993559508 [Eh]
	 SCS Opposite-Spin Energy  =      -2.3733384004893225 [Eh]
	 SCS Correlation Energy    =      -2.5869591998452734 [Eh]
	 SCS Total Energy          =    -573.0879946357675863 [Eh]
	-----------------------------------------------------------

  Dipole Moment: [D]
     X:    -1.1019      Y:    -0.9737      Z:     0.0810     Total:     1.4727

*** Psi4 exiting successfully. Buy a developer a beer!
