                               Psi4 1.4a3.dev225

  ==> Input File <==

--------------------------------------------------------------------------
#psi4
#
memory 32 gb

molecule  {
0 1
  N        0.0801310     2.5312230    -0.3913130
  N       -1.9006720     0.7782080     0.6229160
  C        0.3499640     0.1224320    -0.0065570
  C        0.8960730     1.4188800    -0.1658420
  C        2.6063130    -0.8406050     0.1180930
  C        1.2173430    -0.9692250     0.1590540
  C       -1.1077440    -0.1233710    -0.0042630
  C        2.2932590     1.5435480    -0.2281840
  C        3.1306880     0.4434260    -0.0762550
  C        3.5085210    -2.0251140     0.3469700
  C       -1.6410700    -1.2638430    -0.6279320
  C       -3.0109220    -1.5027310    -0.5649580
  C       -3.2228950     0.5407920     0.6622730
  C       -3.8232840    -0.5849970     0.1005040
  H        0.7834850    -1.9532010     0.3364590
  H        2.7242150     2.5332940    -0.3759070
  H        4.2098530     0.5856070    -0.1209690
  H        3.8288200    -2.0891060     1.3929170
  H        2.9990460    -2.9607700     0.0984840
  H        4.4097140    -1.9577250    -0.2701360
  H       -0.9841790    -1.9393540    -1.1680850
  H        0.5549050     3.4095210    -0.2083710
  H       -0.8007830     2.4663430     0.1128890
  H       -3.4393090    -2.3812410    -1.0417430
  H       -3.8215100     1.2923600     1.1747000
  H       -4.7990182    -0.7138269     0.1646266
units angstrom
no_reorient  #important for SAPT in psi4, default
symmetry c1  #important for SAPT in psi4, default
}

set PROPERTIES_ORIGIN ["COM"]
properties('MP2/aug-cc-pvtz', properties = ['dipole'])
--------------------------------------------------------------------------

    Molecular point group: c1
  Charge       = 0
  Multiplicity = 1
  Basis Set: AUG-CC-PVTZ
    Blend: AUG-CC-PVTZ
  Basis Set: (AUG-CC-PVTZ AUX)
    Blend: AUG-CC-PVTZ-JKFIT

    Orbital Energies [Eh]
    ---------------------

    Doubly Occupied:

       1A    -15.566898     2A    -15.547548     3A    -11.288395
       4A    -11.279535     5A    -11.275224     6A    -11.261638
       7A    -11.240248     8A    -11.233301     9A    -11.232414
      10A    -11.232113    11A    -11.229780    12A    -11.226486
      13A    -11.222569    14A    -11.219398    15A     -1.260555
      16A     -1.210467    17A     -1.131523    18A     -1.089292
      19A     -1.063664    20A     -1.016063    21A     -0.994170
      22A     -0.915630    23A     -0.874788    24A     -0.861684
      25A     -0.815887    26A     -0.783410    27A     -0.714477
      28A     -0.689869    29A     -0.683604    30A     -0.668025
      31A     -0.651037    32A     -0.613437    33A     -0.600389
      34A     -0.592898    35A     -0.582309    36A     -0.573394
      37A     -0.569774    38A     -0.548038    39A     -0.535161
      40A     -0.530123    41A     -0.512970    42A     -0.492917
      43A     -0.485556    44A     -0.434919    45A     -0.418682
      46A     -0.387108    47A     -0.366275    48A     -0.316290
      49A     -0.278367

  @DF-RHF Final Energy:  -570.49584138518424

   => Energetics <=

    Nuclear Repulsion Energy =            812.5820627079649512
    One-Electron Energy =               -2385.5192045197049993
    Two-Electron Energy =                1002.4413004265558129
    Total Energy =                       -570.4958413851842352
  Basis Set: (AUG-CC-PVTZ AUX)
    Blend: AUG-CC-PVTZ-RI
    Molecular point group: c1

    Geometry (in Angstrom), charge = 0, multiplicity = 1:

       Center              X                  Y                   Z               Mass
    ------------   -----------------  -----------------  -----------------  -----------------
         N            0.109618492927     2.511041602197    -0.390735036367    14.003074004430
         N           -1.871184507073     0.758026602197     0.623493963633    14.003074004430
         C            0.379451492927     0.102250602197    -0.005979036367    12.000000000000
         C            0.925560492927     1.398698602197    -0.165264036367    12.000000000000
         C            2.635800492927    -0.860786397803     0.118670963633    12.000000000000
         C            1.246830492927    -0.989406397803     0.159631963633    12.000000000000
         C           -1.078256507073    -0.143552397803    -0.003685036367    12.000000000000
         C            2.322746492927     1.523366602197    -0.227606036367    12.000000000000
         C            3.160175492927     0.423244602197    -0.075677036367    12.000000000000
         C            3.538008492927    -2.045295397803     0.347547963633    12.000000000000
         C           -1.611582507073    -1.284024397803    -0.627354036367    12.000000000000
         C           -2.981434507073    -1.522912397803    -0.564380036367    12.000000000000
         C           -3.193407507073     0.520610602197     0.662850963633    12.000000000000
         C           -3.793796507073    -0.605178397803     0.101081963633    12.000000000000
         H            0.812972492927    -1.973382397803     0.337036963633     1.007825032230
         H            2.753702492927     2.513112602197    -0.375329036367     1.007825032230
         H            4.239340492927     0.565425602197    -0.120391036367     1.007825032230
         H            3.858307492927    -2.109287397803     1.393494963633     1.007825032230
         H            3.028533492927    -2.980951397803     0.099061963633     1.007825032230
         H            4.439201492927    -1.977906397803    -0.269558036367     1.007825032230
         H           -0.954691507073    -1.959535397803    -1.167507036367     1.007825032230
         H            0.584392492927     3.389339602197    -0.207793036367     1.007825032230
         H           -0.771295507073     2.446161602197     0.113466963633     1.007825032230
         H           -3.409821507073    -2.401422397803    -1.041165036367     1.007825032230
         H           -3.792022507073     1.272178602197     1.175277963633     1.007825032230
         H           -4.769530707073    -0.734008297803     0.165204563633     1.007825032230

  Basis Set: AUG-CC-PVTZ
    Blend: AUG-CC-PVTZ
  Basis Set: (AUG-CC-PVTZ AUX)
    Blend: AUG-CC-PVTZ-JKFIT
	 Reference Energy          =    -570.4958413851842352 [Eh]
	 Singles Energy            =      -0.0000000000000000 [Eh]
	 Same-Spin Energy          =      -0.6406875692310219 [Eh]
	 Opposite-Spin Energy      =      -1.9771798784817392 [Eh]
	 Correlation Energy        =      -2.6178674477127610 [Eh]
	 Total Energy              =    -573.1137088328970322 [Eh]

	 ================> DF-SCS-MP2 Energies <==================
	-----------------------------------------------------------
	 SCS Same-Spin Scale       =       0.3333333333333333 [-]
	 SCS Opposite-Spin Scale   =       1.2000000000000000 [-]
	 SCS Same-Spin Energy      =      -0.2135625230770073 [Eh]
	 SCS Opposite-Spin Energy  =      -2.3726158541780871 [Eh]
	 SCS Correlation Energy    =      -2.5861783772550941 [Eh]
	 SCS Total Energy          =    -573.0820197624393586 [Eh]
	-----------------------------------------------------------

  Dipole Moment: [D]
     X:    -1.1224      Y:    -0.9651      Z:     0.0806     Total:     1.4824

*** Psi4 exiting successfully. Buy a developer a beer!
