                               Psi4 1.4a3.dev225

  ==> Input File <==

--------------------------------------------------------------------------
#psi4
#
memory 32 gb

molecule  {
0 1
  N        0.0801310     2.5312230    -0.3913130
  N       -1.9006720     0.7782080     0.6229160
  C        0.3499640     0.1224320    -0.0065570
  C        0.8960730     1.4188800    -0.1658420
  C        2.6063130    -0.8406050     0.1180930
  C        1.2173430    -0.9692250     0.1590540
  C       -1.1077440    -0.1233710    -0.0042630
  C        2.2932590     1.5435480    -0.2281840
  C        3.1306880     0.4434260    -0.0762550
  C        3.3887425    -1.8678569     0.3165840
  C       -1.6410700    -1.2638430    -0.6279320
  C       -3.0109220    -1.5027310    -0.5649580
  C       -3.2228950     0.5407920     0.6622730
  C       -3.8232840    -0.5849970     0.1005040
  H        0.7834850    -1.9532010     0.3364590
  H        2.7242150     2.5332940    -0.3759070
  H        4.2098530     0.5856070    -0.1209690
  H        3.8288200    -2.0891060     1.3929170
  H        2.9990460    -2.9607700     0.0984840
  H        4.4097140    -1.9577250    -0.2701360
  H       -0.9841790    -1.9393540    -1.1680850
  H        0.5549050     3.4095210    -0.2083710
  H       -0.8007830     2.4663430     0.1128890
  H       -3.4393090    -2.3812410    -1.0417430
  H       -3.8215100     1.2923600     1.1747000
  H       -4.8979480    -0.7268890     0.1711280
units angstrom
no_reorient  #important for SAPT in psi4, default
symmetry c1  #important for SAPT in psi4, default
}

set PROPERTIES_ORIGIN ["COM"]
properties('MP2/aug-cc-pvtz', properties = ['dipole'])
--------------------------------------------------------------------------

    Molecular point group: c1
  Charge       = 0
  Multiplicity = 1
  Basis Set: AUG-CC-PVTZ
    Blend: AUG-CC-PVTZ
  Basis Set: (AUG-CC-PVTZ AUX)
    Blend: AUG-CC-PVTZ-JKFIT

    Orbital Energies [Eh]
    ---------------------

    Doubly Occupied:

       1A    -15.568398     2A    -15.549541     3A    -11.289549
       4A    -11.280944     5A    -11.277559     6A    -11.263070
       7A    -11.242333     8A    -11.241603     9A    -11.234919
      10A    -11.234117    11A    -11.233674    12A    -11.230013
      13A    -11.224261    14A    -11.214157    15A     -1.261916
      16A     -1.212694    17A     -1.147663    18A     -1.088574
      19A     -1.071174    20A     -1.034618    21A     -0.994618
      22A     -0.907759    23A     -0.872899    24A     -0.862295
      25A     -0.817815    26A     -0.781575    27A     -0.712258
      28A     -0.694107    29A     -0.682999    30A     -0.663676
      31A     -0.655410    32A     -0.631449    33A     -0.603663
      34A     -0.593632    35A     -0.586403    36A     -0.574664
      37A     -0.562455    38A     -0.548150    39A     -0.538647
      40A     -0.516847    41A     -0.507433    42A     -0.502988
      43A     -0.464487    44A     -0.427871    45A     -0.417875
      46A     -0.388070    47A     -0.367083    48A     -0.317290
      49A     -0.274715

  @DF-RHF Final Energy:  -570.44929909656003

   => Energetics <=

    Nuclear Repulsion Energy =            816.0117401689274175
    One-Electron Energy =               -2392.1822592509438437
    Two-Electron Energy =                1005.7212199854564005
    Total Energy =                       -570.4492990965600256
  Basis Set: (AUG-CC-PVTZ AUX)
    Blend: AUG-CC-PVTZ-RI
    Molecular point group: c1

    Geometry (in Angstrom), charge = 0, multiplicity = 1:

       Center              X                  Y                   Z               Mass
    ------------   -----------------  -----------------  -----------------  -----------------
         N            0.117967463730     2.500862784185    -0.388790008490    14.003074004430
         N           -1.862835536270     0.747847784185     0.625438991510    14.003074004430
         C            0.387800463730     0.092071784185    -0.004034008490    12.000000000000
         C            0.933909463730     1.388519784185    -0.163319008490    12.000000000000
         C            2.644149463730    -0.870965215815     0.120615991510    12.000000000000
         C            1.255179463730    -0.999585215815     0.161576991510    12.000000000000
         C           -1.069907536270    -0.153731215815    -0.001740008490    12.000000000000
         C            2.331095463730     1.513187784185    -0.225661008490    12.000000000000
         C            3.168524463730     0.413065784185    -0.073732008490    12.000000000000
         C            3.426578963730    -1.898217115815     0.319106991510    12.000000000000
         C           -1.603233536270    -1.294203215815    -0.625409008490    12.000000000000
         C           -2.973085536270    -1.533091215815    -0.562435008490    12.000000000000
         C           -3.185058536270     0.510431784185     0.664795991510    12.000000000000
         C           -3.785447536270    -0.615357215815     0.103026991510    12.000000000000
         H            0.821321463730    -1.983561215815     0.338981991510     1.007825032230
         H            2.762051463730     2.502933784185    -0.373384008490     1.007825032230
         H            4.247689463730     0.555246784185    -0.118446008490     1.007825032230
         H            3.866656463730    -2.119466215815     1.395439991510     1.007825032230
         H            3.036882463730    -2.991130215815     0.101006991510     1.007825032230
         H            4.447550463730    -1.988085215815    -0.267613008490     1.007825032230
         H           -0.946342536270    -1.969714215815    -1.165562008490     1.007825032230
         H            0.592741463730     3.379160784185    -0.205848008490     1.007825032230
         H           -0.762946536270     2.435982784185     0.115411991510     1.007825032230
         H           -3.401472536270    -2.411601215815    -1.039220008490     1.007825032230
         H           -3.783673536270     1.261999784185     1.177222991510     1.007825032230
         H           -4.860111536270    -0.757249215815     0.173650991510     1.007825032230

  Basis Set: AUG-CC-PVTZ
    Blend: AUG-CC-PVTZ
  Basis Set: (AUG-CC-PVTZ AUX)
    Blend: AUG-CC-PVTZ-JKFIT
	 Reference Energy          =    -570.4492990965600256 [Eh]
	 Singles Energy            =      -0.0000000000000000 [Eh]
	 Same-Spin Energy          =      -0.6443116093035597 [Eh]
	 Opposite-Spin Energy      =      -1.9822181637147462 [Eh]
	 Correlation Energy        =      -2.6265297730183059 [Eh]
	 Total Energy              =    -573.0758288695783449 [Eh]

	 ================> DF-SCS-MP2 Energies <==================
	-----------------------------------------------------------
	 SCS Same-Spin Scale       =       0.3333333333333333 [-]
	 SCS Opposite-Spin Scale   =       1.2000000000000000 [-]
	 SCS Same-Spin Energy      =      -0.2147705364345199 [Eh]
	 SCS Opposite-Spin Energy  =      -2.3786617964576955 [Eh]
	 SCS Correlation Energy    =      -2.5934323328922155 [Eh]
	 SCS Total Energy          =    -573.0427314294522603 [Eh]
	-----------------------------------------------------------

  Dipole Moment: [D]
     X:    -1.2097      Y:    -0.8553      Z:     0.0552     Total:     1.4825

*** Psi4 exiting successfully. Buy a developer a beer!
