                               Psi4 1.4a3.dev225

  ==> Input File <==

--------------------------------------------------------------------------
#psi4
#
memory 32 gb

molecule  {
0 1
  N        0.0801310     2.5312230    -0.3913130
  N       -1.9006720     0.7782080     0.6229160
  C        0.3499640     0.1224320    -0.0065570
  C        0.8960730     1.4188800    -0.1658420
  C        2.6063130    -0.8406050     0.1180930
  C        1.2173430    -0.9692250     0.1590540
  C       -1.1077440    -0.1233710    -0.0042630
  C        2.2932590     1.5435480    -0.2281840
  C        3.1306880     0.4434260    -0.0762550
  C        3.5085210    -2.0251140     0.3469700
  C       -1.6410700    -1.2638430    -0.6279320
  C       -3.0109220    -1.5027310    -0.5649580
  C       -3.2228950     0.5407920     0.6622730
  C       -3.8232840    -0.5849970     0.1005040
  H        0.7834850    -1.9532010     0.3364590
  H        2.7242150     2.5332940    -0.3759070
  H        4.2098530     0.5856070    -0.1209690
  H        3.8288200    -2.0891060     1.3929170
  H        2.9990460    -2.9607700     0.0984840
  H        4.3932434    -1.9589566    -0.2588575
  H       -0.9841790    -1.9393540    -1.1680850
  H        0.5549050     3.4095210    -0.2083710
  H       -0.8007830     2.4663430     0.1128890
  H       -3.4393090    -2.3812410    -1.0417430
  H       -3.8215100     1.2923600     1.1747000
  H       -4.8979480    -0.7268890     0.1711280
units angstrom
no_reorient  #important for SAPT in psi4, default
symmetry c1  #important for SAPT in psi4, default
}

set PROPERTIES_ORIGIN ["COM"]
properties('MP2/aug-cc-pvtz', properties = ['dipole'])
--------------------------------------------------------------------------

    Molecular point group: c1
  Charge       = 0
  Multiplicity = 1
  Basis Set: AUG-CC-PVTZ
    Blend: AUG-CC-PVTZ
  Basis Set: (AUG-CC-PVTZ AUX)
    Blend: AUG-CC-PVTZ-JKFIT

    Orbital Energies [Eh]
    ---------------------

    Doubly Occupied:

       1A    -15.567491     2A    -15.547658     3A    -11.288626
       4A    -11.280190     5A    -11.275302     6A    -11.262364
       7A    -11.241576     8A    -11.240792     9A    -11.233358
      10A    -11.232504    11A    -11.232185    12A    -11.226461
      13A    -11.222662    14A    -11.217048    15A     -1.260961
      16A     -1.210580    17A     -1.131649    18A     -1.087799
      19A     -1.063040    20A     -1.016557    21A     -0.992372
      22A     -0.916785    23A     -0.870489    24A     -0.862104
      25A     -0.814655    26A     -0.783632    27A     -0.709001
      28A     -0.689736    29A     -0.681374    30A     -0.660439
      31A     -0.650201    32A     -0.613516    33A     -0.600882
      34A     -0.589037    35A     -0.582140    36A     -0.574121
      37A     -0.570730    38A     -0.548169    39A     -0.532775
      40A     -0.530451    41A     -0.513180    42A     -0.492833
      43A     -0.485733    44A     -0.435100    45A     -0.418780
      46A     -0.387522    47A     -0.366560    48A     -0.316408
      49A     -0.278487

  @DF-RHF Final Energy:  -570.50176423926086

   => Energetics <=

    Nuclear Repulsion Energy =            812.1054067545201178
    One-Electron Energy =               -2384.6023097725092157
    Two-Electron Energy =                1001.9951387787282329
    Total Energy =                       -570.5017642392608650
  Basis Set: (AUG-CC-PVTZ AUX)
    Blend: AUG-CC-PVTZ-RI
    Molecular point group: c1

    Geometry (in Angstrom), charge = 0, multiplicity = 1:

       Center              X                  Y                   Z               Mass
    ------------   -----------------  -----------------  -----------------  -----------------
         N            0.110250233184     2.511119850676    -0.390832369466    14.003074004430
         N           -1.870552766816     0.758104850676     0.623396630534    14.003074004430
         C            0.380083233184     0.102328850676    -0.006076369466    12.000000000000
         C            0.926192233184     1.398776850676    -0.165361369466    12.000000000000
         C            2.636432233184    -0.860708149324     0.118573630534    12.000000000000
         C            1.247462233184    -0.989328149324     0.159534630534    12.000000000000
         C           -1.077624766816    -0.143474149324    -0.003782369466    12.000000000000
         C            2.323378233184     1.523444850676    -0.227703369466    12.000000000000
         C            3.160807233184     0.423322850676    -0.075774369466    12.000000000000
         C            3.538640233184    -2.045217149324     0.347450630534    12.000000000000
         C           -1.610950766816    -1.283946149324    -0.627451369466    12.000000000000
         C           -2.980802766816    -1.522834149324    -0.564477369466    12.000000000000
         C           -3.192775766816     0.520688850676     0.662753630534    12.000000000000
         C           -3.793164766816    -0.605100149324     0.100984630534    12.000000000000
         H            0.813604233184    -1.973304149324     0.336939630534     1.007825032230
         H            2.754334233184     2.513190850676    -0.375426369466     1.007825032230
         H            4.239972233184     0.565503850676    -0.120488369466     1.007825032230
         H            3.858939233184    -2.109209149324     1.393397630534     1.007825032230
         H            3.029165233184    -2.980873149324     0.098964630534     1.007825032230
         H            4.423362633184    -1.979059749324    -0.258376869466     1.007825032230
         H           -0.954059766816    -1.959457149324    -1.167604369466     1.007825032230
         H            0.585024233184     3.389417850676    -0.207890369466     1.007825032230
         H           -0.770663766816     2.446239850676     0.113369630534     1.007825032230
         H           -3.409189766816    -2.401344149324    -1.041262369466     1.007825032230
         H           -3.791390766816     1.272256850676     1.175180630534     1.007825032230
         H           -4.867828766816    -0.746992149324     0.171608630534     1.007825032230

  Basis Set: AUG-CC-PVTZ
    Blend: AUG-CC-PVTZ
  Basis Set: (AUG-CC-PVTZ AUX)
    Blend: AUG-CC-PVTZ-JKFIT
	 Reference Energy          =    -570.5017642392608650 [Eh]
	 Singles Energy            =      -0.0000000000000000 [Eh]
	 Same-Spin Energy          =      -0.6408366302449998 [Eh]
	 Opposite-Spin Energy      =      -1.9775683042338523 [Eh]
	 Correlation Energy        =      -2.6184049344788520 [Eh]
	 Total Energy              =    -573.1201691737396686 [Eh]

	 ================> DF-SCS-MP2 Energies <==================
	-----------------------------------------------------------
	 SCS Same-Spin Scale       =       0.3333333333333333 [-]
	 SCS Opposite-Spin Scale   =       1.2000000000000000 [-]
	 SCS Same-Spin Energy      =      -0.2136122100816666 [Eh]
	 SCS Opposite-Spin Energy  =      -2.3730819650806225 [Eh]
	 SCS Correlation Energy    =      -2.5866941751622892 [Eh]
	 SCS Total Energy          =    -573.0884584144231439 [Eh]
	-----------------------------------------------------------

  Dipole Moment: [D]
     X:    -1.0848      Y:    -0.9682      Z:     0.0738     Total:     1.4559

*** Psi4 exiting successfully. Buy a developer a beer!
