                               Psi4 1.4a3.dev225

  ==> Input File <==

--------------------------------------------------------------------------
#psi4
#
memory 32 gb

molecule  {
0 1
  N        0.0801310     2.5312230    -0.3913130
  N       -1.9006720     0.7782080     0.6229160
  C        0.3499640     0.1224320    -0.0065570
  C        0.8960730     1.4188800    -0.1658420
  C        2.6063130    -0.8406050     0.1180930
  C        1.2173430    -0.9692250     0.1590540
  C       -1.1077440    -0.1233710    -0.0042630
  C        2.3927651     1.5524267    -0.2326239
  C        3.1306880     0.4434260    -0.0762550
  C        3.5085210    -2.0251140     0.3469700
  C       -1.6410700    -1.2638430    -0.6279320
  C       -3.0109220    -1.5027310    -0.5649580
  C       -3.2228950     0.5407920     0.6622730
  C       -3.8232840    -0.5849970     0.1005040
  H        0.7834850    -1.9532010     0.3364590
  H        2.7242150     2.5332940    -0.3759070
  H        4.2098530     0.5856070    -0.1209690
  H        3.8288200    -2.0891060     1.3929170
  H        2.9990460    -2.9607700     0.0984840
  H        4.4097140    -1.9577250    -0.2701360
  H       -0.9841790    -1.9393540    -1.1680850
  H        0.5549050     3.4095210    -0.2083710
  H       -0.8007830     2.4663430     0.1128890
  H       -3.4393090    -2.3812410    -1.0417430
  H       -3.8215100     1.2923600     1.1747000
  H       -4.8979480    -0.7268890     0.1711280
units angstrom
no_reorient  #important for SAPT in psi4, default
symmetry c1  #important for SAPT in psi4, default
}

set PROPERTIES_ORIGIN ["COM"]
properties('MP2/aug-cc-pvtz', properties = ['dipole'])
--------------------------------------------------------------------------

    Molecular point group: c1
  Charge       = 0
  Multiplicity = 1
  Basis Set: AUG-CC-PVTZ
    Blend: AUG-CC-PVTZ
  Basis Set: (AUG-CC-PVTZ AUX)
    Blend: AUG-CC-PVTZ-JKFIT

    Orbital Energies [Eh]
    ---------------------

    Doubly Occupied:

       1A    -15.566657     2A    -15.553011     3A    -11.287962
       4A    -11.286827     5A    -11.279704     6A    -11.261857
       7A    -11.240694     8A    -11.239895     9A    -11.232711
      10A    -11.228646    11A    -11.228165    12A    -11.225579
      13A    -11.224555    14A    -11.218622    15A     -1.260179
      16A     -1.209282    17A     -1.132113    18A     -1.087132
      19A     -1.064067    20A     -1.014236    21A     -0.994765
      22A     -0.910944    23A     -0.865507    24A     -0.861907
      25A     -0.817105    26A     -0.783783    27A     -0.708741
      28A     -0.690905    29A     -0.680795    30A     -0.661090
      31A     -0.650453    32A     -0.627671    33A     -0.600595
      34A     -0.590730    35A     -0.577400    36A     -0.570680
      37A     -0.569109    38A     -0.547257    39A     -0.530923
      40A     -0.527339    41A     -0.509586    42A     -0.498797
      43A     -0.477039    44A     -0.437147    45A     -0.417817
      46A     -0.387650    47A     -0.369042    48A     -0.320681
      49A     -0.271015

  @DF-RHF Final Energy:  -570.49063378575067

   => Energetics <=

    Nuclear Repulsion Energy =            810.5967147902132410
    One-Electron Energy =               -2381.5779587533193080
    Two-Electron Energy =                1000.4906101773552791
    Total Energy =                       -570.4906337857506742
  Basis Set: (AUG-CC-PVTZ AUX)
    Blend: AUG-CC-PVTZ-RI
    Molecular point group: c1

    Geometry (in Angstrom), charge = 0, multiplicity = 1:

       Center              X                  Y                   Z               Mass
    ------------   -----------------  -----------------  -----------------  -----------------
         N            0.103674066075     2.510534377515    -0.390481225862    14.003074004430
         N           -1.877128933925     0.757519377515     0.623747774138    14.003074004430
         C            0.373507066075     0.101743377515    -0.005725225862    12.000000000000
         C            0.919616066075     1.398191377515    -0.165010225862    12.000000000000
         C            2.629856066075    -0.861293622485     0.118924774138    12.000000000000
         C            1.240886066075    -0.989913622485     0.159885774138    12.000000000000
         C           -1.084200933925    -0.144059622485    -0.003431225862    12.000000000000
         C            2.416308166075     1.531738077515    -0.231792125862    12.000000000000
         C            3.154231066075     0.422737377515    -0.075423225862    12.000000000000
         C            3.532064066075    -2.045802622485     0.347801774138    12.000000000000
         C           -1.617526933925    -1.284531622485    -0.627100225862    12.000000000000
         C           -2.987378933925    -1.523419622485    -0.564126225862    12.000000000000
         C           -3.199351933925     0.520103377515     0.663104774138    12.000000000000
         C           -3.799740933925    -0.605685622485     0.101335774138    12.000000000000
         H            0.807028066075    -1.973889622485     0.337290774138     1.007825032230
         H            2.747758066075     2.512605377515    -0.375075225862     1.007825032230
         H            4.233396066075     0.564918377515    -0.120137225862     1.007825032230
         H            3.852363066075    -2.109794622485     1.393748774138     1.007825032230
         H            3.022589066075    -2.981458622485     0.099315774138     1.007825032230
         H            4.433257066075    -1.978413622485    -0.269304225862     1.007825032230
         H           -0.960635933925    -1.960042622485    -1.167253225862     1.007825032230
         H            0.578448066075     3.388832377515    -0.207539225862     1.007825032230
         H           -0.777239933925     2.445654377515     0.113720774138     1.007825032230
         H           -3.415765933925    -2.401929622485    -1.040911225862     1.007825032230
         H           -3.797966933925     1.271671377515     1.175531774138     1.007825032230
         H           -4.874404933925    -0.747577622485     0.171959774138     1.007825032230

  Basis Set: AUG-CC-PVTZ
    Blend: AUG-CC-PVTZ
  Basis Set: (AUG-CC-PVTZ AUX)
    Blend: AUG-CC-PVTZ-JKFIT
	 Reference Energy          =    -570.4906337857506742 [Eh]
	 Singles Energy            =      -0.0000000000000000 [Eh]
	 Same-Spin Energy          =      -0.6403699183626727 [Eh]
	 Opposite-Spin Energy      =      -1.9779491368727029 [Eh]
	 Correlation Energy        =      -2.6183190552353754 [Eh]
	 Total Energy              =    -573.1089528409860350 [Eh]

	 ================> DF-SCS-MP2 Energies <==================
	-----------------------------------------------------------
	 SCS Same-Spin Scale       =       0.3333333333333333 [-]
	 SCS Opposite-Spin Scale   =       1.2000000000000000 [-]
	 SCS Same-Spin Energy      =      -0.2134566394542242 [Eh]
	 SCS Opposite-Spin Energy  =      -2.3735389642472433 [Eh]
	 SCS Correlation Energy    =      -2.5869956037014674 [Eh]
	 SCS Total Energy          =    -573.0776293894521132 [Eh]
	-----------------------------------------------------------

  Dipole Moment: [D]
     X:    -1.1186      Y:    -0.7998      Z:     0.0439     Total:     1.3759

*** Psi4 exiting successfully. Buy a developer a beer!
