                               Psi4 1.4a3.dev225

  ==> Input File <==

--------------------------------------------------------------------------
#psi4
#
memory 32 gb

molecule  {
0 1
  N        0.0801310     2.5312230    -0.3913130
  N       -1.9006720     0.7782080     0.6229160
  C        0.3499640     0.1224320    -0.0065570
  C        0.8960730     1.4188800    -0.1658420
  C        2.6063130    -0.8406050     0.1180930
  C        1.2173430    -0.9692250     0.1590540
  C       -1.1077440    -0.1233710    -0.0042630
  C        2.2932590     1.5435480    -0.2281840
  C        3.1306880     0.4434260    -0.0762550
  C        3.5085210    -2.0251140     0.3469700
  C       -1.6410700    -1.2638430    -0.6279320
  C       -3.0109220    -1.5027310    -0.5649580
  C       -3.2228950     0.5407920     0.6622730
  C       -3.8232840    -0.5849970     0.1005040
  H        0.7834850    -1.9532010     0.3364590
  H        2.7242150     2.5332940    -0.3759070
  H        4.2593828     0.5921326    -0.1230212
  H        3.8288200    -2.0891060     1.3929170
  H        2.9990460    -2.9607700     0.0984840
  H        4.4097140    -1.9577250    -0.2701360
  H       -0.9841790    -1.9393540    -1.1680850
  H        0.5549050     3.4095210    -0.2083710
  H       -0.8007830     2.4663430     0.1128890
  H       -3.4393090    -2.3812410    -1.0417430
  H       -3.8215100     1.2923600     1.1747000
  H       -4.8979480    -0.7268890     0.1711280
units angstrom
no_reorient  #important for SAPT in psi4, default
symmetry c1  #important for SAPT in psi4, default
}

set PROPERTIES_ORIGIN ["COM"]
properties('MP2/aug-cc-pvtz', properties = ['dipole'])
--------------------------------------------------------------------------

    Molecular point group: c1
  Charge       = 0
  Multiplicity = 1
  Basis Set: AUG-CC-PVTZ
    Blend: AUG-CC-PVTZ
  Basis Set: (AUG-CC-PVTZ AUX)
    Blend: AUG-CC-PVTZ-JKFIT

    Orbital Energies [Eh]
    ---------------------

    Doubly Occupied:

       1A    -15.567668     2A    -15.547955     3A    -11.288820
       4A    -11.280346     5A    -11.275759     6A    -11.262519
       7A    -11.241730     8A    -11.240966     9A    -11.238322
      10A    -11.233811    11A    -11.232588    12A    -11.227203
      13A    -11.223228    14A    -11.219478    15A     -1.261146
      16A     -1.210885    17A     -1.131661    18A     -1.087960
      19A     -1.062814    20A     -1.016325    21A     -0.991711
      22A     -0.915414    23A     -0.869247    24A     -0.862201
      25A     -0.814385    26A     -0.782600    27A     -0.709061
      28A     -0.689727    29A     -0.678266    30A     -0.660590
      31A     -0.649016    32A     -0.613736    33A     -0.600657
      34A     -0.586994    35A     -0.581847    36A     -0.573210
      37A     -0.569655    38A     -0.548356    39A     -0.530306
      40A     -0.529488    41A     -0.513167    42A     -0.492783
      43A     -0.484390    44A     -0.435306    45A     -0.418950
      46A     -0.387697    47A     -0.366794    48A     -0.316737
      49A     -0.278802

  @DF-RHF Final Energy:  -570.49925354861807

   => Energetics <=

    Nuclear Repulsion Energy =            811.7475221811473602
    One-Electron Energy =               -2383.8889888522048750
    Two-Electron Energy =                1001.6422131224394434
    Total Energy =                       -570.4992535486180714
  Basis Set: (AUG-CC-PVTZ AUX)
    Blend: AUG-CC-PVTZ-RI
    Molecular point group: c1

    Geometry (in Angstrom), charge = 0, multiplicity = 1:

       Center              X                  Y                   Z               Mass
    ------------   -----------------  -----------------  -----------------  -----------------
         N            0.109888924994     2.511077385177    -0.390759392771    14.003074004430
         N           -1.870914075006     0.758062385177     0.623469607229    14.003074004430
         C            0.379721924994     0.102286385177    -0.006003392771    12.000000000000
         C            0.925830924994     1.398734385177    -0.165288392771    12.000000000000
         C            2.636070924994    -0.860750614823     0.118646607229    12.000000000000
         C            1.247100924994    -0.989370614823     0.159607607229    12.000000000000
         C           -1.077986075006    -0.143516614823    -0.003709392771    12.000000000000
         C            2.323016924994     1.523402385177    -0.227630392771    12.000000000000
         C            3.160445924994     0.423280385177    -0.075701392771    12.000000000000
         C            3.538278924994    -2.045259614823     0.347523607229    12.000000000000
         C           -1.611312075006    -1.283988614823    -0.627378392771    12.000000000000
         C           -2.981164075006    -1.522876614823    -0.564404392771    12.000000000000
         C           -3.193137075006     0.520646385177     0.662826607229    12.000000000000
         C           -3.793526075006    -0.605142614823     0.101057607229    12.000000000000
         H            0.813242924994    -1.973346614823     0.337012607229     1.007825032230
         H            2.753972924994     2.513148385177    -0.375353392771     1.007825032230
         H            4.289140724994     0.571986985177    -0.122467592771     1.007825032230
         H            3.858577924994    -2.109251614823     1.393470607229     1.007825032230
         H            3.028803924994    -2.980915614823     0.099037607229     1.007825032230
         H            4.439471924994    -1.977870614823    -0.269582392771     1.007825032230
         H           -0.954421075006    -1.959499614823    -1.167531392771     1.007825032230
         H            0.584662924994     3.389375385177    -0.207817392771     1.007825032230
         H           -0.771025075006     2.446197385177     0.113442607229     1.007825032230
         H           -3.409551075006    -2.401386614823    -1.041189392771     1.007825032230
         H           -3.791752075006     1.272214385177     1.175253607229     1.007825032230
         H           -4.868190075006    -0.747034614823     0.171681607229     1.007825032230

  Basis Set: AUG-CC-PVTZ
    Blend: AUG-CC-PVTZ
  Basis Set: (AUG-CC-PVTZ AUX)
    Blend: AUG-CC-PVTZ-JKFIT
	 Reference Energy          =    -570.4992535486180714 [Eh]
	 Singles Energy            =      -0.0000000000000000 [Eh]
	 Same-Spin Energy          =      -0.6409537853116727 [Eh]
	 Opposite-Spin Energy      =      -1.9781304947215250 [Eh]
	 Correlation Energy        =      -2.6190842800331975 [Eh]
	 Total Energy              =    -573.1183378286513062 [Eh]

	 ================> DF-SCS-MP2 Energies <==================
	-----------------------------------------------------------
	 SCS Same-Spin Scale       =       0.3333333333333333 [-]
	 SCS Opposite-Spin Scale   =       1.2000000000000000 [-]
	 SCS Same-Spin Energy      =      -0.2136512617705575 [Eh]
	 SCS Opposite-Spin Energy  =      -2.3737565936658300 [Eh]
	 SCS Correlation Energy    =      -2.5874078554363877 [Eh]
	 SCS Total Energy          =    -573.0866614040544391 [Eh]
	-----------------------------------------------------------

  Dipole Moment: [D]
     X:    -1.1268      Y:    -0.9654      Z:     0.0782     Total:     1.4858

*** Psi4 exiting successfully. Buy a developer a beer!
