                               Psi4 1.4a3.dev225

  ==> Input File <==

--------------------------------------------------------------------------
#psi4
#
memory 32 gb

molecule  {
0 1
  N        0.0801310     2.5312230    -0.3913130
  N       -1.9006720     0.7782080     0.6229160
  C        0.3499640     0.1224320    -0.0065570
  C        0.8960730     1.4188800    -0.1658420
  C        2.6063130    -0.8406050     0.1180930
  C        1.2173430    -0.9692250     0.1590540
  C       -1.1077440    -0.1233710    -0.0042630
  C        2.2932590     1.5435480    -0.2281840
  C        3.1306880     0.4434260    -0.0762550
  C        3.5085210    -2.0251140     0.3469700
  C       -1.6410700    -1.2638430    -0.6279320
  C       -3.0109220    -1.5027310    -0.5649580
  C       -3.2228950     0.5407920     0.6622730
  C       -3.8232840    -0.5849970     0.1005040
  H        0.7834850    -1.9532010     0.3364590
  H        2.7242150     2.5332940    -0.3759070
  H        4.2098530     0.5856070    -0.1209690
  H        3.8288200    -2.0891060     1.3929170
  H        2.9990460    -2.9607700     0.0984840
  H        4.4097140    -1.9577250    -0.2701360
  H       -0.9841790    -1.9393540    -1.1680850
  H        0.5549050     3.4095210    -0.2083710
  H       -0.8007830     2.4663430     0.1128890
  H       -3.5180941    -2.5428086    -1.1294290
  H       -3.8215100     1.2923600     1.1747000
  H       -4.8979480    -0.7268890     0.1711280
units angstrom
no_reorient  #important for SAPT in psi4, default
symmetry c1  #important for SAPT in psi4, default
}

set PROPERTIES_ORIGIN ["COM"]
properties('MP2/aug-cc-pvtz', properties = ['dipole'])
--------------------------------------------------------------------------

    Molecular point group: c1
  Charge       = 0
  Multiplicity = 1
  Basis Set: AUG-CC-PVTZ
    Blend: AUG-CC-PVTZ
  Basis Set: (AUG-CC-PVTZ AUX)
    Blend: AUG-CC-PVTZ-JKFIT

    Orbital Energies [Eh]
    ---------------------

    Doubly Occupied:

       1A    -15.568427     2A    -15.548231     3A    -11.290216
       4A    -11.283479     5A    -11.281807     6A    -11.276000
       7A    -11.243753     8A    -11.242900     9A    -11.234097
      10A    -11.233060    11A    -11.232921    12A    -11.227063
      13A    -11.223177    14A    -11.219783    15A     -1.262165
      16A     -1.211221    17A     -1.132197    18A     -1.084899
      19A     -1.064092    20A     -1.016577    21A     -0.993294
      22A     -0.915974    23A     -0.871102    24A     -0.854547
      25A     -0.814731    26A     -0.778813    27A     -0.702162
      28A     -0.689106    29A     -0.680581    30A     -0.660485
      31A     -0.650628    32A     -0.612131    33A     -0.601034
      34A     -0.587437    35A     -0.582489    36A     -0.571927
      37A     -0.551179    38A     -0.540758    39A     -0.533199
      40A     -0.530290    41A     -0.513476    42A     -0.493534
      43A     -0.486291    44A     -0.435418    45A     -0.418081
      46A     -0.388796    47A     -0.367690    48A     -0.317234
      49A     -0.279113

  @DF-RHF Final Energy:  -570.47953639069374

   => Energetics <=

    Nuclear Repulsion Energy =            811.0539777293665793
    One-Electron Energy =               -2382.4718988664180870
    Two-Electron Energy =                1000.9383847463577695
    Total Energy =                       -570.4795363906937382
  Basis Set: (AUG-CC-PVTZ AUX)
    Blend: AUG-CC-PVTZ-RI
    Molecular point group: c1

    Geometry (in Angstrom), charge = 0, multiplicity = 1:

       Center              X                  Y                   Z               Mass
    ------------   -----------------  -----------------  -----------------  -----------------
         N            0.110591363528     2.511997583386    -0.390290604805    14.003074004430
         N           -1.870211636472     0.758982583386     0.623938395195    14.003074004430
         C            0.380424363528     0.103206583386    -0.005534604805    12.000000000000
         C            0.926533363528     1.399654583386    -0.164819604805    12.000000000000
         C            2.636773363528    -0.859830416614     0.119115395195    12.000000000000
         C            1.247803363528    -0.988450416614     0.160076395195    12.000000000000
         C           -1.077283636472    -0.142596416614    -0.003240604805    12.000000000000
         C            2.323719363528     1.524322583386    -0.227161604805    12.000000000000
         C            3.161148363528     0.424200583386    -0.075232604805    12.000000000000
         C            3.538981363528    -2.044339416614     0.347992395195    12.000000000000
         C           -1.610609636472    -1.283068416614    -0.626909604805    12.000000000000
         C           -2.980461636472    -1.521956416614    -0.563935604805    12.000000000000
         C           -3.192434636472     0.521566583386     0.663295395195    12.000000000000
         C           -3.792823636472    -0.604222416614     0.101526395195    12.000000000000
         H            0.813945363528    -1.972426416614     0.337481395195     1.007825032230
         H            2.754675363528     2.514068583386    -0.374884604805     1.007825032230
         H            4.240313363528     0.566381583386    -0.119946604805     1.007825032230
         H            3.859280363528    -2.108331416614     1.393939395195     1.007825032230
         H            3.029506363528    -2.979995416614     0.099506395195     1.007825032230
         H            4.440174363528    -1.976950416614    -0.269113604805     1.007825032230
         H           -0.953718636472    -1.958579416614    -1.167062604805     1.007825032230
         H            0.585365363528     3.390295583386    -0.207348604805     1.007825032230
         H           -0.770322636472     2.447117583386     0.113911395195     1.007825032230
         H           -3.487633736472    -2.562034016614    -1.128406604805     1.007825032230
         H           -3.791049636472     1.273134583386     1.175722395195     1.007825032230
         H           -4.867487636472    -0.746114416614     0.172150395195     1.007825032230

  Basis Set: AUG-CC-PVTZ
    Blend: AUG-CC-PVTZ
  Basis Set: (AUG-CC-PVTZ AUX)
    Blend: AUG-CC-PVTZ-JKFIT
	 Reference Energy          =    -570.4795363906937382 [Eh]
	 Singles Energy            =      -0.0000000000000000 [Eh]
	 Same-Spin Energy          =      -0.6413266028325726 [Eh]
	 Opposite-Spin Energy      =      -1.9798286200590347 [Eh]
	 Correlation Energy        =      -2.6211552228916073 [Eh]
	 Total Energy              =    -573.1006916135853544 [Eh]

	 ================> DF-SCS-MP2 Energies <==================
	-----------------------------------------------------------
	 SCS Same-Spin Scale       =       0.3333333333333333 [-]
	 SCS Opposite-Spin Scale   =       1.2000000000000000 [-]
	 SCS Same-Spin Energy      =      -0.2137755342775242 [Eh]
	 SCS Opposite-Spin Energy  =      -2.3757943440708416 [Eh]
	 SCS Correlation Energy    =      -2.5895698783483656 [Eh]
	 SCS Total Energy          =    -573.0691062690420949 [Eh]
	-----------------------------------------------------------

  Dipole Moment: [D]
     X:    -1.0295      Y:    -0.8835      Z:     0.1170     Total:     1.3616

*** Psi4 exiting successfully. Buy a developer a beer!
