                               Psi4 1.4a3.dev225

  ==> Input File <==

--------------------------------------------------------------------------
#psi4
#
memory 32 gb

molecule  {
0 1
  N        0.0801310     2.5312230    -0.3913130
  N       -1.9006720     0.7782080     0.6229160
  C        0.3499640     0.1224320    -0.0065570
  C        0.8960730     1.4188800    -0.1658420
  C        2.6063130    -0.8406050     0.1180930
  C        1.2173430    -0.9692250     0.1590540
  C       -1.1077440    -0.1233710    -0.0042630
  C        2.3127619     1.5577664    -0.2307881
  C        3.1306880     0.4434260    -0.0762550
  C        3.5085210    -2.0251140     0.3469700
  C       -1.6410700    -1.2638430    -0.6279320
  C       -3.0109220    -1.5027310    -0.5649580
  C       -3.2228950     0.5407920     0.6622730
  C       -3.8232840    -0.5849970     0.1005040
  H        0.7834850    -1.9532010     0.3364590
  H        2.7242150     2.5332940    -0.3759070
  H        4.2098530     0.5856070    -0.1209690
  H        3.8288200    -2.0891060     1.3929170
  H        2.9990460    -2.9607700     0.0984840
  H        4.4097140    -1.9577250    -0.2701360
  H       -0.9841790    -1.9393540    -1.1680850
  H        0.5549050     3.4095210    -0.2083710
  H       -0.8007830     2.4663430     0.1128890
  H       -3.4393090    -2.3812410    -1.0417430
  H       -3.8215100     1.2923600     1.1747000
  H       -4.8979480    -0.7268890     0.1711280
units angstrom
no_reorient  #important for SAPT in psi4, default
symmetry c1  #important for SAPT in psi4, default
}

set PROPERTIES_ORIGIN ["COM"]
properties('MP2/aug-cc-pvtz', properties = ['dipole'])
--------------------------------------------------------------------------

    Molecular point group: c1
  Charge       = 0
  Multiplicity = 1
  Basis Set: AUG-CC-PVTZ
    Blend: AUG-CC-PVTZ
  Basis Set: (AUG-CC-PVTZ AUX)
    Blend: AUG-CC-PVTZ-JKFIT

    Orbital Energies [Eh]
    ---------------------

    Doubly Occupied:

       1A    -15.567383     2A    -15.548415     3A    -11.288666
       4A    -11.280149     5A    -11.278144     6A    -11.262332
       7A    -11.241461     8A    -11.240705     9A    -11.233546
      10A    -11.232792    11A    -11.231909    12A    -11.226296
      13A    -11.223323    14A    -11.219398    15A     -1.260866
      16A     -1.210113    17A     -1.130944    18A     -1.087735
      19A     -1.062942    20A     -1.014742    21A     -0.992687
      22A     -0.914419    23A     -0.869394    24A     -0.862144
      25A     -0.816133    26A     -0.783343    27A     -0.708998
      28A     -0.689562    29A     -0.680877    30A     -0.660750
      31A     -0.650403    32A     -0.617010    33A     -0.600161
      34A     -0.589453    35A     -0.581699    36A     -0.573271
      37A     -0.569849    38A     -0.548045    39A     -0.531257
      40A     -0.529188    41A     -0.511895    42A     -0.493640
      43A     -0.486371    44A     -0.434961    45A     -0.418712
      46A     -0.387493    47A     -0.366662    48A     -0.316567
      49A     -0.277121

  @DF-RHF Final Energy:  -570.50090024114400

   => Energetics <=

    Nuclear Repulsion Energy =            811.5237886687268656
    One-Electron Energy =               -2383.4415321567530555
    Two-Electron Energy =                1001.4168432468821948
    Total Energy =                       -570.5009002411439951
  Basis Set: (AUG-CC-PVTZ AUX)
    Blend: AUG-CC-PVTZ-RI
    Molecular point group: c1

    Geometry (in Angstrom), charge = 0, multiplicity = 1:

       Center              X                  Y                   Z               Mass
    ------------   -----------------  -----------------  -----------------  -----------------
         N            0.108888830592     2.510186325461    -0.390600886884    14.003074004430
         N           -1.871914169408     0.757171325461     0.623628113116    14.003074004430
         C            0.378721830592     0.101395325461    -0.005844886884    12.000000000000
         C            0.924830830592     1.397843325461    -0.165129886884    12.000000000000
         C            2.635070830592    -0.861641674539     0.118805113116    12.000000000000
         C            1.246100830592    -0.990261674539     0.159766113116    12.000000000000
         C           -1.078986169408    -0.144407674539    -0.003550886884    12.000000000000
         C            2.341519730592     1.536729725461    -0.230075986884    12.000000000000
         C            3.159445830592     0.422389325461    -0.075542886884    12.000000000000
         C            3.537278830592    -2.046150674539     0.347682113116    12.000000000000
         C           -1.612312169408    -1.284879674539    -0.627219886884    12.000000000000
         C           -2.982164169408    -1.523767674539    -0.564245886884    12.000000000000
         C           -3.194137169408     0.519755325461     0.662985113116    12.000000000000
         C           -3.794526169408    -0.606033674539     0.101216113116    12.000000000000
         H            0.812242830592    -1.974237674539     0.337171113116     1.007825032230
         H            2.752972830592     2.512257325461    -0.375194886884     1.007825032230
         H            4.238610830592     0.564570325461    -0.120256886884     1.007825032230
         H            3.857577830592    -2.110142674539     1.393629113116     1.007825032230
         H            3.027803830592    -2.981806674539     0.099196113116     1.007825032230
         H            4.438471830592    -1.978761674539    -0.269423886884     1.007825032230
         H           -0.955421169408    -1.960390674539    -1.167372886884     1.007825032230
         H            0.583662830592     3.388484325461    -0.207658886884     1.007825032230
         H           -0.772025169408     2.445306325461     0.113601113116     1.007825032230
         H           -3.410551169408    -2.402277674539    -1.041030886884     1.007825032230
         H           -3.792752169408     1.271323325461     1.175412113116     1.007825032230
         H           -4.869190169408    -0.747925674539     0.171840113116     1.007825032230

  Basis Set: AUG-CC-PVTZ
    Blend: AUG-CC-PVTZ
  Basis Set: (AUG-CC-PVTZ AUX)
    Blend: AUG-CC-PVTZ-JKFIT
	 Reference Energy          =    -570.5009002411439951 [Eh]
	 Singles Energy            =      -0.0000000000000000 [Eh]
	 Same-Spin Energy          =      -0.6407444058579237 [Eh]
	 Opposite-Spin Energy      =      -1.9777212563294284 [Eh]
	 Correlation Energy        =      -2.6184656621873521 [Eh]
	 Total Energy              =    -573.1193659033312997 [Eh]

	 ================> DF-SCS-MP2 Energies <==================
	-----------------------------------------------------------
	 SCS Same-Spin Scale       =       0.3333333333333333 [-]
	 SCS Opposite-Spin Scale   =       1.2000000000000000 [-]
	 SCS Same-Spin Energy      =      -0.2135814686193079 [Eh]
	 SCS Opposite-Spin Energy  =      -2.3732655075953142 [Eh]
	 SCS Correlation Energy    =      -2.5868469762146220 [Eh]
	 SCS Total Energy          =    -573.0877472173585829 [Eh]
	-----------------------------------------------------------

  Dipole Moment: [D]
     X:    -1.1068      Y:    -0.9307      Z:     0.0706     Total:     1.4479

*** Psi4 exiting successfully. Buy a developer a beer!
