                               Psi4 1.4a3.dev225

  ==> Input File <==

--------------------------------------------------------------------------
#psi4
#
memory 32 gb

molecule  {
0 1
  N        0.0801310     2.5312230    -0.3913130
  N       -1.9006720     0.7782080     0.6229160
  C        0.3499640     0.1224320    -0.0065570
  C        0.8960730     1.4188800    -0.1658420
  C        2.6063130    -0.8406050     0.1180930
  C        1.2173430    -0.9692250     0.1590540
  C       -1.1077440    -0.1233710    -0.0042630
  C        2.2932590     1.5435480    -0.2281840
  C        3.1306880     0.4434260    -0.0762550
  C        3.5085210    -2.0251140     0.3469700
  C       -1.6410700    -1.2638430    -0.6279320
  C       -3.0109220    -1.5027310    -0.5649580
  C       -3.2228950     0.5407920     0.6622730
  C       -3.8232840    -0.5849970     0.1005040
  H        0.7834850    -1.9532010     0.3364590
  H        2.7242150     2.5332940    -0.3759070
  H        4.2098530     0.5856070    -0.1209690
  H        3.8288200    -2.0891060     1.3929170
  H        2.9990460    -2.9607700     0.0984840
  H        4.3273612    -1.9638831    -0.2137436
  H       -0.9841790    -1.9393540    -1.1680850
  H        0.5549050     3.4095210    -0.2083710
  H       -0.8007830     2.4663430     0.1128890
  H       -3.4393090    -2.3812410    -1.0417430
  H       -3.8215100     1.2923600     1.1747000
  H       -4.8979480    -0.7268890     0.1711280
units angstrom
no_reorient  #important for SAPT in psi4, default
symmetry c1  #important for SAPT in psi4, default
}

set PROPERTIES_ORIGIN ["COM"]
properties('MP2/aug-cc-pvtz', properties = ['dipole'])
--------------------------------------------------------------------------

    Molecular point group: c1
  Charge       = 0
  Multiplicity = 1
  Basis Set: AUG-CC-PVTZ
    Blend: AUG-CC-PVTZ
  Basis Set: (AUG-CC-PVTZ AUX)
    Blend: AUG-CC-PVTZ-JKFIT

    Orbital Energies [Eh]
    ---------------------

    Doubly Occupied:

       1A    -15.567353     2A    -15.547463     3A    -11.288465
       4A    -11.280062     5A    -11.275050     6A    -11.262238
       7A    -11.241454     8A    -11.240654     9A    -11.232996
      10A    -11.232373    11A    -11.231827    12A    -11.225887
      13A    -11.222503    14A    -11.207048    15A     -1.260816
      16A     -1.210386    17A     -1.131684    18A     -1.087670
      19A     -1.063261    20A     -1.018929    21A     -0.992457
      22A     -0.922602    23A     -0.870319    24A     -0.862099
      25A     -0.814437    26A     -0.784697    27A     -0.709512
      28A     -0.689595    29A     -0.681357    30A     -0.660400
      31A     -0.650628    32A     -0.613461    33A     -0.603124
      34A     -0.589383    35A     -0.583722    36A     -0.576814
      37A     -0.571859    38A     -0.547956    39A     -0.537364
      40A     -0.531092    41A     -0.513566    42A     -0.492541
      43A     -0.485721    44A     -0.435203    45A     -0.418634
      46A     -0.387395    47A     -0.366422    48A     -0.316174
      49A     -0.278376

  @DF-RHF Final Energy:  -570.49574782331865

   => Energetics <=

    Nuclear Repulsion Energy =            812.4973794535964089
    One-Electron Energy =               -2385.3561912622976706
    Two-Electron Energy =                1002.3630639853827233
    Total Energy =                       -570.4957478233186521
  Basis Set: (AUG-CC-PVTZ AUX)
    Blend: AUG-CC-PVTZ-RI
    Molecular point group: c1

    Geometry (in Angstrom), charge = 0, multiplicity = 1:

       Center              X                  Y                   Z               Mass
    ------------   -----------------  -----------------  -----------------  -----------------
         N            0.110610894307     2.511146819979    -0.391079337993    14.003074004430
         N           -1.870192105693     0.758131819979     0.623149662007    14.003074004430
         C            0.380443894307     0.102355819979    -0.006323337993    12.000000000000
         C            0.926552894307     1.398803819979    -0.165608337993    12.000000000000
         C            2.636792894307    -0.860681180021     0.118326662007    12.000000000000
         C            1.247822894307    -0.989301180021     0.159287662007    12.000000000000
         C           -1.077264105693    -0.143447180021    -0.004029337993    12.000000000000
         C            2.323738894307     1.523471819979    -0.227950337993    12.000000000000
         C            3.161167894307     0.423349819979    -0.076021337993    12.000000000000
         C            3.539000894307    -2.045190180021     0.347203662007    12.000000000000
         C           -1.610590105693    -1.283919180021    -0.627698337993    12.000000000000
         C           -2.980442105693    -1.522807180021    -0.564724337993    12.000000000000
         C           -3.192415105693     0.520715819979     0.662506662007    12.000000000000
         C           -3.792804105693    -0.605073180021     0.100737662007    12.000000000000
         H            0.813964894307    -1.973277180021     0.336692662007     1.007825032230
         H            2.754694894307     2.513217819979    -0.375673337993     1.007825032230
         H            4.240332894307     0.565530819979    -0.120735337993     1.007825032230
         H            3.859299894307    -2.109182180021     1.393150662007     1.007825032230
         H            3.029525894307    -2.980846180021     0.098717662007     1.007825032230
         H            4.357841094307    -1.983959280021    -0.213509937993     1.007825032230
         H           -0.953699105693    -1.959430180021    -1.167851337993     1.007825032230
         H            0.585384894307     3.389444819979    -0.208137337993     1.007825032230
         H           -0.770303105693     2.446266819979     0.113122662007     1.007825032230
         H           -3.408829105693    -2.401317180021    -1.041509337993     1.007825032230
         H           -3.791030105693     1.272283819979     1.174933662007     1.007825032230
         H           -4.867468105693    -0.746965180021     0.171361662007     1.007825032230

  Basis Set: AUG-CC-PVTZ
    Blend: AUG-CC-PVTZ
  Basis Set: (AUG-CC-PVTZ AUX)
    Blend: AUG-CC-PVTZ-JKFIT
	 Reference Energy          =    -570.4957478233186521 [Eh]
	 Singles Energy            =      -0.0000000000000000 [Eh]
	 Same-Spin Energy          =      -0.6408560810989842 [Eh]
	 Opposite-Spin Energy      =      -1.9771970322529053 [Eh]
	 Correlation Energy        =      -2.6180531133518894 [Eh]
	 Total Energy              =    -573.1138009366704864 [Eh]

	 ================> DF-SCS-MP2 Energies <==================
	-----------------------------------------------------------
	 SCS Same-Spin Scale       =       0.3333333333333333 [-]
	 SCS Opposite-Spin Scale   =       1.2000000000000000 [-]
	 SCS Same-Spin Energy      =      -0.2136186936996614 [Eh]
	 SCS Opposite-Spin Energy  =      -2.3726364387034864 [Eh]
	 SCS Correlation Energy    =      -2.5862551324031480 [Eh]
	 SCS Total Energy          =    -573.0820029557218049 [Eh]
	-----------------------------------------------------------

  Dipole Moment: [D]
     X:    -1.0434      Y:    -0.9840      Z:     0.0620     Total:     1.4355

*** Psi4 exiting successfully. Buy a developer a beer!
