                               Psi4 1.4a3.dev225

  ==> Input File <==

--------------------------------------------------------------------------
#psi4
#
memory 32 gb

molecule  {
0 1
  N        0.0801310     2.5312230    -0.3913130
  N       -1.9006720     0.7782080     0.6229160
  C        0.3499640     0.1224320    -0.0065570
  C        0.8960730     1.4188800    -0.1658420
  C        2.6063130    -0.8406050     0.1180930
  C        1.2173430    -0.9692250     0.1590540
  C       -1.1077440    -0.1233710    -0.0042630
  C        2.2932590     1.5435480    -0.2281840
  C        3.1306880     0.4434260    -0.0762550
  C        3.5085210    -2.0251140     0.3469700
  C       -1.6410700    -1.2638430    -0.6279320
  C       -3.1324985    -1.5786216    -0.5927009
  C       -3.2228950     0.5407920     0.6622730
  C       -3.8232840    -0.5849970     0.1005040
  H        0.7834850    -1.9532010     0.3364590
  H        2.7242150     2.5332940    -0.3759070
  H        4.2098530     0.5856070    -0.1209690
  H        3.8288200    -2.0891060     1.3929170
  H        2.9990460    -2.9607700     0.0984840
  H        4.4097140    -1.9577250    -0.2701360
  H       -0.9841790    -1.9393540    -1.1680850
  H        0.5549050     3.4095210    -0.2083710
  H       -0.8007830     2.4663430     0.1128890
  H       -3.4393090    -2.3812410    -1.0417430
  H       -3.8215100     1.2923600     1.1747000
  H       -4.8979480    -0.7268890     0.1711280
units angstrom
no_reorient  #important for SAPT in psi4, default
symmetry c1  #important for SAPT in psi4, default
}

set PROPERTIES_ORIGIN ["COM"]
properties('MP2/aug-cc-pvtz', properties = ['dipole'])
--------------------------------------------------------------------------

    Molecular point group: c1
  Charge       = 0
  Multiplicity = 1
  Basis Set: AUG-CC-PVTZ
    Blend: AUG-CC-PVTZ
  Basis Set: (AUG-CC-PVTZ AUX)
    Blend: AUG-CC-PVTZ-JKFIT

    Orbital Energies [Eh]
    ---------------------

    Doubly Occupied:

       1A    -15.571036     2A    -15.547000     3A    -11.285747
       4A    -11.284511     5A    -11.273826     6A    -11.269482
       7A    -11.253223     8A    -11.247460     9A    -11.232224
      10A    -11.230962    11A    -11.230770    12A    -11.225287
      13A    -11.221545    14A    -11.218529    15A     -1.259195
      16A     -1.209595    17A     -1.130331    18A     -1.079836
      19A     -1.059776    20A     -1.014835    21A     -0.986965
      22A     -0.914194    23A     -0.878273    24A     -0.864135
      25A     -0.812937    26A     -0.787838    27A     -0.714665
      28A     -0.687933    29A     -0.680980    30A     -0.663163
      31A     -0.646063    32A     -0.622138    33A     -0.599264
      34A     -0.597916    35A     -0.582391    36A     -0.578950
      37A     -0.570270    38A     -0.544899    39A     -0.529850
      40A     -0.514544    41A     -0.507617    42A     -0.489122
      43A     -0.483114    44A     -0.434729    45A     -0.422443
      46A     -0.384122    47A     -0.360324    48A     -0.314962
      49A     -0.277224

  @DF-RHF Final Energy:  -570.47135460033337

   => Energetics <=

    Nuclear Repulsion Energy =            809.2374423025155465
    One-Electron Energy =               -2378.8252063764011837
    Two-Electron Energy =                 999.1164094735522667
    Total Energy =                       -570.4713546003333704
  Basis Set: (AUG-CC-PVTZ AUX)
    Blend: AUG-CC-PVTZ-RI
    Molecular point group: c1

    Geometry (in Angstrom), charge = 0, multiplicity = 1:

       Center              X                  Y                   Z               Mass
    ------------   -----------------  -----------------  -----------------  -----------------
         N            0.118084660874     2.516059805720    -0.388962290900    14.003074004430
         N           -1.862718339126     0.763044805720     0.625266709100    14.003074004430
         C            0.387917660874     0.107268805720    -0.004206290900    12.000000000000
         C            0.934026660874     1.403716805720    -0.163491290900    12.000000000000
         C            2.644266660874    -0.855768194280     0.120443709100    12.000000000000
         C            1.255296660874    -0.984388194280     0.161404709100    12.000000000000
         C           -1.069790339126    -0.138534194280    -0.001912290900    12.000000000000
         C            2.331212660874     1.528384805720    -0.225833290900    12.000000000000
         C            3.168641660874     0.428262805720    -0.073904290900    12.000000000000
         C            3.546474660874    -2.040277194280     0.349320709100    12.000000000000
         C           -1.603116339126    -1.279006194280    -0.625581290900    12.000000000000
         C           -3.094544839126    -1.593784794280    -0.590350190900    12.000000000000
         C           -3.184941339126     0.525628805720     0.664623709100    12.000000000000
         C           -3.785330339126    -0.600160194280     0.102854709100    12.000000000000
         H            0.821438660874    -1.968364194280     0.338809709100     1.007825032230
         H            2.762168660874     2.518130805720    -0.373556290900     1.007825032230
         H            4.247806660874     0.570443805720    -0.118618290900     1.007825032230
         H            3.866773660874    -2.104269194280     1.395267709100     1.007825032230
         H            3.036999660874    -2.975933194280     0.100834709100     1.007825032230
         H            4.447667660874    -1.972888194280    -0.267785290900     1.007825032230
         H           -0.946225339126    -1.954517194280    -1.165734290900     1.007825032230
         H            0.592858660874     3.394357805720    -0.206020290900     1.007825032230
         H           -0.762829339126     2.451179805720     0.115239709100     1.007825032230
         H           -3.401355339126    -2.396404194280    -1.039392290900     1.007825032230
         H           -3.783556339126     1.277196805720     1.177050709100     1.007825032230
         H           -4.859994339126    -0.742052194280     0.173478709100     1.007825032230

  Basis Set: AUG-CC-PVTZ
    Blend: AUG-CC-PVTZ
  Basis Set: (AUG-CC-PVTZ AUX)
    Blend: AUG-CC-PVTZ-JKFIT
	 Reference Energy          =    -570.4713546003333704 [Eh]
	 Singles Energy            =      -0.0000000000000000 [Eh]
	 Same-Spin Energy          =      -0.6414739904711083 [Eh]
	 Opposite-Spin Energy      =      -1.9805621355673548 [Eh]
	 Correlation Energy        =      -2.6220361260384633 [Eh]
	 Total Energy              =    -573.0933907263718083 [Eh]

	 ================> DF-SCS-MP2 Energies <==================
	-----------------------------------------------------------
	 SCS Same-Spin Scale       =       0.3333333333333333 [-]
	 SCS Opposite-Spin Scale   =       1.2000000000000000 [-]
	 SCS Same-Spin Energy      =      -0.2138246634903694 [Eh]
	 SCS Opposite-Spin Energy  =      -2.3766745626808259 [Eh]
	 SCS Correlation Energy    =      -2.5904992261711954 [Eh]
	 SCS Total Energy          =    -573.0618538265046027 [Eh]
	-----------------------------------------------------------

  Dipole Moment: [D]
     X:    -1.1629      Y:    -1.0061      Z:     0.0631     Total:     1.5390

*** Psi4 exiting successfully. Buy a developer a beer!
