                               Psi4 1.4a3.dev225

  ==> Input File <==

--------------------------------------------------------------------------
#psi4
#
memory 32 gb

molecule  {
0 1
  N        0.0801310     2.5312230    -0.3913130
  N       -1.9006720     0.7782080     0.6229160
  C        0.4893935     0.0722367    -0.0060053
  C        0.8960730     1.4188800    -0.1658420
  C        2.6063130    -0.8406050     0.1180930
  C        1.2173430    -0.9692250     0.1590540
  C       -1.1077440    -0.1233710    -0.0042630
  C        2.2932590     1.5435480    -0.2281840
  C        3.1306880     0.4434260    -0.0762550
  C        3.5085210    -2.0251140     0.3469700
  C       -1.6410700    -1.2638430    -0.6279320
  C       -3.0109220    -1.5027310    -0.5649580
  C       -3.2228950     0.5407920     0.6622730
  C       -3.8232840    -0.5849970     0.1005040
  H        0.7834850    -1.9532010     0.3364590
  H        2.7242150     2.5332940    -0.3759070
  H        4.2098530     0.5856070    -0.1209690
  H        3.8288200    -2.0891060     1.3929170
  H        2.9990460    -2.9607700     0.0984840
  H        4.4097140    -1.9577250    -0.2701360
  H       -0.9841790    -1.9393540    -1.1680850
  H        0.5549050     3.4095210    -0.2083710
  H       -0.8007830     2.4663430     0.1128890
  H       -3.4393090    -2.3812410    -1.0417430
  H       -3.8215100     1.2923600     1.1747000
  H       -4.8979480    -0.7268890     0.1711280
units angstrom
no_reorient  #important for SAPT in psi4, default
symmetry c1  #important for SAPT in psi4, default
}

set PROPERTIES_ORIGIN ["COM"]
properties('MP2/aug-cc-pvtz', properties = ['dipole'])
--------------------------------------------------------------------------

    Molecular point group: c1
  Charge       = 0
  Multiplicity = 1
  Basis Set: AUG-CC-PVTZ
    Blend: AUG-CC-PVTZ
  Basis Set: (AUG-CC-PVTZ AUX)
    Blend: AUG-CC-PVTZ-JKFIT

    Orbital Energies [Eh]
    ---------------------

    Doubly Occupied:

       1A    -15.569131     2A    -15.551473     3A    -11.292728
       4A    -11.280726     5A    -11.273899     6A    -11.262101
       7A    -11.241831     8A    -11.239927     9A    -11.232922
      10A    -11.227205    11A    -11.225012    12A    -11.219530
      13A    -11.218190    14A    -11.218115    15A     -1.258193
      16A     -1.212276    17A     -1.144953    18A     -1.087330
      19A     -1.054528    20A     -1.017074    21A     -1.003857
      22A     -0.916767    23A     -0.860808    24A     -0.858481
      25A     -0.813199    26A     -0.788323    27A     -0.710941
      28A     -0.689803    29A     -0.683077    30A     -0.657089
      31A     -0.645725    32A     -0.610718    33A     -0.609955
      34A     -0.591073    35A     -0.585223    36A     -0.572122
      37A     -0.565959    38A     -0.546193    39A     -0.534213
      40A     -0.528693    41A     -0.516692    42A     -0.497241
      43A     -0.468402    44A     -0.441313    45A     -0.411543
      46A     -0.386381    47A     -0.364917    48A     -0.327731
      49A     -0.277507

  @DF-RHF Final Energy:  -570.47671535914185

   => Energetics <=

    Nuclear Repulsion Energy =            812.1314134692289599
    One-Electron Energy =               -2384.6340769704993363
    Two-Electron Energy =                1002.0259481421286409
    Total Energy =                       -570.4767153591418491
  Basis Set: (AUG-CC-PVTZ AUX)
    Blend: AUG-CC-PVTZ-RI
    Molecular point group: c1

    Geometry (in Angstrom), charge = 0, multiplicity = 1:

       Center              X                  Y                   Z               Mass
    ------------   -----------------  -----------------  -----------------  -----------------
         N            0.101071781045     2.514384935981    -0.390806588079    14.003074004430
         N           -1.879731218955     0.761369935981     0.623422411921    14.003074004430
         C            0.510334281045     0.055398635981    -0.005498888079    12.000000000000
         C            0.917013781045     1.402041935981    -0.165335588079    12.000000000000
         C            2.627253781045    -0.857443064019     0.118599411921    12.000000000000
         C            1.238283781045    -0.986063064019     0.159560411921    12.000000000000
         C           -1.086803218955    -0.140209064019    -0.003756588079    12.000000000000
         C            2.314199781045     1.526709935981    -0.227677588079    12.000000000000
         C            3.151628781045     0.426587935981    -0.075748588079    12.000000000000
         C            3.529461781045    -2.041952064019     0.347476411921    12.000000000000
         C           -1.620129218955    -1.280681064019    -0.627425588079    12.000000000000
         C           -2.989981218955    -1.519569064019    -0.564451588079    12.000000000000
         C           -3.201954218955     0.523953935981     0.662779411921    12.000000000000
         C           -3.802343218955    -0.601835064019     0.101010411921    12.000000000000
         H            0.804425781045    -1.970039064019     0.336965411921     1.007825032230
         H            2.745155781045     2.516455935981    -0.375400588079     1.007825032230
         H            4.230793781045     0.568768935981    -0.120462588079     1.007825032230
         H            3.849760781045    -2.105944064019     1.393423411921     1.007825032230
         H            3.019986781045    -2.977608064019     0.098990411921     1.007825032230
         H            4.430654781045    -1.974563064019    -0.269629588079     1.007825032230
         H           -0.963238218955    -1.956192064019    -1.167578588079     1.007825032230
         H            0.575845781045     3.392682935981    -0.207864588079     1.007825032230
         H           -0.779842218955     2.449504935981     0.113395411921     1.007825032230
         H           -3.418368218955    -2.398079064019    -1.041236588079     1.007825032230
         H           -3.800569218955     1.275521935981     1.175206411921     1.007825032230
         H           -4.877007218955    -0.743727064019     0.171634411921     1.007825032230

  Basis Set: AUG-CC-PVTZ
    Blend: AUG-CC-PVTZ
  Basis Set: (AUG-CC-PVTZ AUX)
    Blend: AUG-CC-PVTZ-JKFIT
	 Reference Energy          =    -570.4767153591418491 [Eh]
	 Singles Energy            =      -0.0000000000000000 [Eh]
	 Same-Spin Energy          =      -0.6402763696830172 [Eh]
	 Opposite-Spin Energy      =      -1.9771231156330009 [Eh]
	 Correlation Energy        =      -2.6173994853160183 [Eh]
	 Total Energy              =    -573.0941148444578630 [Eh]

	 ================> DF-SCS-MP2 Energies <==================
	-----------------------------------------------------------
	 SCS Same-Spin Scale       =       0.3333333333333333 [-]
	 SCS Opposite-Spin Scale   =       1.2000000000000000 [-]
	 SCS Same-Spin Energy      =      -0.2134254565610057 [Eh]
	 SCS Opposite-Spin Energy  =      -2.3725477387596010 [Eh]
	 SCS Correlation Energy    =      -2.5859731953206069 [Eh]
	 SCS Total Energy          =    -573.0626885544625111 [Eh]
	-----------------------------------------------------------

  Dipole Moment: [D]
     X:    -1.2165      Y:    -0.9622      Z:     0.0984     Total:     1.5541

*** Psi4 exiting successfully. Buy a developer a beer!
