                               Psi4 1.4a3.dev225

  ==> Input File <==

--------------------------------------------------------------------------
#psi4
#
memory 32 gb

molecule  {
0 1
  N        0.0801310     2.5312230    -0.3913130
  N       -1.9006720     0.7782080     0.6229160
  C        0.3499640     0.1224320    -0.0065570
  C        0.8960730     1.4188800    -0.1658420
  C        2.6085159    -0.8343050     0.1435242
  C        1.2173430    -0.9692250     0.1590540
  C       -1.1077440    -0.1233710    -0.0042630
  C        2.2932590     1.5435480    -0.2281840
  C        3.1306880     0.4434260    -0.0762550
  C        3.5085210    -2.0251140     0.3469700
  C       -1.6410700    -1.2638430    -0.6279320
  C       -3.0109220    -1.5027310    -0.5649580
  C       -3.2228950     0.5407920     0.6622730
  C       -3.8232840    -0.5849970     0.1005040
  H        0.7834850    -1.9532010     0.3364590
  H        2.7242150     2.5332940    -0.3759070
  H        4.2098530     0.5856070    -0.1209690
  H        3.8288200    -2.0891060     1.3929170
  H        2.9990460    -2.9607700     0.0984840
  H        4.4097140    -1.9577250    -0.2701360
  H       -0.9841790    -1.9393540    -1.1680850
  H        0.5549050     3.4095210    -0.2083710
  H       -0.8007830     2.4663430     0.1128890
  H       -3.4393090    -2.3812410    -1.0417430
  H       -3.8215100     1.2923600     1.1747000
  H       -4.8979480    -0.7268890     0.1711280
units angstrom
no_reorient  #important for SAPT in psi4, default
symmetry c1  #important for SAPT in psi4, default
}

set PROPERTIES_ORIGIN ["COM"]
properties('MP2/aug-cc-pvtz', properties = ['dipole'])
--------------------------------------------------------------------------

    Molecular point group: c1
  Charge       = 0
  Multiplicity = 1
  Basis Set: AUG-CC-PVTZ
    Blend: AUG-CC-PVTZ
  Basis Set: (AUG-CC-PVTZ AUX)
    Blend: AUG-CC-PVTZ-JKFIT

    Orbital Energies [Eh]
    ---------------------

    Doubly Occupied:

       1A    -15.567538     2A    -15.547569     3A    -11.288737
       4A    -11.280238     5A    -11.275185     6A    -11.262412
       7A    -11.241589     8A    -11.240835     9A    -11.233691
      10A    -11.232492    11A    -11.232117    12A    -11.226699
      13A    -11.222548    14A    -11.219552    15A     -1.261013
      16A     -1.210533    17A     -1.131701    18A     -1.087839
      19A     -1.063148    20A     -1.015982    21A     -0.992408
      22A     -0.915533    23A     -0.870573    24A     -0.862119
      25A     -0.814816    26A     -0.783329    27A     -0.708854
      28A     -0.689784    29A     -0.681350    30A     -0.660473
      31A     -0.650087    32A     -0.613612    33A     -0.600482
      34A     -0.589088    35A     -0.581773    36A     -0.573583
      37A     -0.570469    38A     -0.548089    39A     -0.532303
      40A     -0.529462    41A     -0.513442    42A     -0.492262
      43A     -0.486025    44A     -0.435220    45A     -0.418757
      46A     -0.387565    47A     -0.366774    48A     -0.316128
      49A     -0.278520

  @DF-RHF Final Energy:  -570.50170275347773

   => Energetics <=

    Nuclear Repulsion Energy =            812.0132629412848928
    One-Electron Energy =               -2384.4213334920814304
    Two-Electron Energy =                1001.9063677973188078
    Total Energy =                       -570.5017027534777299
  Basis Set: (AUG-CC-PVTZ AUX)
    Blend: AUG-CC-PVTZ-RI
    Molecular point group: c1

    Geometry (in Angstrom), charge = 0, multiplicity = 1:

       Center              X                  Y                   Z               Mass
    ------------   -----------------  -----------------  -----------------  -----------------
         N            0.110016478313     2.510702462207    -0.392428282384    14.003074004430
         N           -1.870786521687     0.757687462207     0.621800717616    14.003074004430
         C            0.379849478313     0.101911462207    -0.007672282384    12.000000000000
         C            0.925958478313     1.398359462207    -0.166957282384    12.000000000000
         C            2.638401378313    -0.854825537793     0.142408917616    12.000000000000
         C            1.247228478313    -0.989745537793     0.157938717616    12.000000000000
         C           -1.077858521687    -0.143891537793    -0.005378282384    12.000000000000
         C            2.323144478313     1.523027462207    -0.229299282384    12.000000000000
         C            3.160573478313     0.422905462207    -0.077370282384    12.000000000000
         C            3.538406478313    -2.045634537793     0.345854717616    12.000000000000
         C           -1.611184521687    -1.284363537793    -0.629047282384    12.000000000000
         C           -2.981036521687    -1.523251537793    -0.566073282384    12.000000000000
         C           -3.193009521687     0.520271462207     0.661157717616    12.000000000000
         C           -3.793398521687    -0.605517537793     0.099388717616    12.000000000000
         H            0.813370478313    -1.973721537793     0.335343717616     1.007825032230
         H            2.754100478313     2.512773462207    -0.377022282384     1.007825032230
         H            4.239738478313     0.565086462207    -0.122084282384     1.007825032230
         H            3.858705478313    -2.109626537793     1.391801717616     1.007825032230
         H            3.028931478313    -2.981290537793     0.097368717616     1.007825032230
         H            4.439599478313    -1.978245537793    -0.271251282384     1.007825032230
         H           -0.954293521687    -1.959874537793    -1.169200282384     1.007825032230
         H            0.584790478313     3.389000462207    -0.209486282384     1.007825032230
         H           -0.770897521687     2.445822462207     0.111773717616     1.007825032230
         H           -3.409423521687    -2.401761537793    -1.042858282384     1.007825032230
         H           -3.791624521687     1.271839462207     1.173584717616     1.007825032230
         H           -4.868062521687    -0.747409537793     0.170012717616     1.007825032230

  Basis Set: AUG-CC-PVTZ
    Blend: AUG-CC-PVTZ
  Basis Set: (AUG-CC-PVTZ AUX)
    Blend: AUG-CC-PVTZ-JKFIT
	 Reference Energy          =    -570.5017027534777299 [Eh]
	 Singles Energy            =      -0.0000000000000000 [Eh]
	 Same-Spin Energy          =      -0.6408345655392290 [Eh]
	 Opposite-Spin Energy      =      -1.9776868181852365 [Eh]
	 Correlation Energy        =      -2.6185213837244654 [Eh]
	 Total Energy              =    -573.1202241372021717 [Eh]

	 ================> DF-SCS-MP2 Energies <==================
	-----------------------------------------------------------
	 SCS Same-Spin Scale       =       0.3333333333333333 [-]
	 SCS Opposite-Spin Scale   =       1.2000000000000000 [-]
	 SCS Same-Spin Energy      =      -0.2136115218464097 [Eh]
	 SCS Opposite-Spin Energy  =      -2.3732241818222839 [Eh]
	 SCS Correlation Energy    =      -2.5868357036686938 [Eh]
	 SCS Total Energy          =    -573.0885384571464556 [Eh]
	-----------------------------------------------------------

  Dipole Moment: [D]
     X:    -1.0890      Y:    -0.9748      Z:     0.0662     Total:     1.4631

*** Psi4 exiting successfully. Buy a developer a beer!
