                               Psi4 1.4a3.dev225

  ==> Input File <==

--------------------------------------------------------------------------
#psi4
#
memory 32 gb

molecule  {
0 1
  N        0.0801310     2.5312230    -0.3913130
  N       -1.9006720     0.7782080     0.6229160
  C        0.3499640     0.1224320    -0.0065570
  C        0.8960730     1.4188800    -0.1658420
  C        2.6063130    -0.8406050     0.1180930
  C        1.2173430    -0.9692250     0.1590540
  C       -1.1077440    -0.1233710    -0.0042630
  C        2.2932590     1.5435480    -0.2281840
  C        3.1306880     0.4434260    -0.0762550
  C        3.5085210    -2.0251140     0.3469700
  C       -1.6410700    -1.2638430    -0.6279320
  C       -3.0109220    -1.5027310    -0.5649580
  C       -3.2228950     0.5407920     0.6622730
  C       -3.8232840    -0.5849970     0.1005040
  H        0.7834850    -1.9532010     0.3364590
  H        2.7242150     2.5332940    -0.3759070
  H        4.2098530     0.5856070    -0.1209690
  H        3.8872815    -2.1007859     1.5838249
  H        2.9990460    -2.9607700     0.0984840
  H        4.4097140    -1.9577250    -0.2701360
  H       -0.9841790    -1.9393540    -1.1680850
  H        0.5549050     3.4095210    -0.2083710
  H       -0.8007830     2.4663430     0.1128890
  H       -3.4393090    -2.3812410    -1.0417430
  H       -3.8215100     1.2923600     1.1747000
  H       -4.8979480    -0.7268890     0.1711280
units angstrom
no_reorient  #important for SAPT in psi4, default
symmetry c1  #important for SAPT in psi4, default
}

set PROPERTIES_ORIGIN ["COM"]
properties('MP2/aug-cc-pvtz', properties = ['dipole'])
--------------------------------------------------------------------------

    Molecular point group: c1
  Charge       = 0
  Multiplicity = 1
  Basis Set: AUG-CC-PVTZ
    Blend: AUG-CC-PVTZ
  Basis Set: (AUG-CC-PVTZ AUX)
    Blend: AUG-CC-PVTZ-JKFIT

    Orbital Energies [Eh]
    ---------------------

    Doubly Occupied:

       1A    -15.568125     2A    -15.548941     3A    -11.289338
       4A    -11.280751     5A    -11.276961     6A    -11.262921
       7A    -11.242119     8A    -11.242117     9A    -11.241420
      10A    -11.234935    11A    -11.234027    12A    -11.233482
      13A    -11.228318    14A    -11.223696    15A     -1.261634
      16A     -1.211792    17A     -1.132568    18A     -1.088375
      19A     -1.063465    20A     -1.014051    21A     -0.992970
      22A     -0.907303    23A     -0.871354    24A     -0.862459
      25A     -0.815669    26A     -0.782540    27A     -0.708934
      28A     -0.690811    29A     -0.682325    30A     -0.661034
      31A     -0.650781    32A     -0.614218    33A     -0.601932
      34A     -0.589813    35A     -0.583147    36A     -0.573112
      37A     -0.554807    38A     -0.535815    39A     -0.533767
      40A     -0.530396    41A     -0.511289    42A     -0.489736
      43A     -0.486979    44A     -0.432812    45A     -0.419017
      46A     -0.388047    47A     -0.367167    48A     -0.317240
      49A     -0.278711

  @DF-RHF Final Energy:  -570.48223772752488

   => Energetics <=

    Nuclear Repulsion Energy =            811.2067231008554700
    One-Electron Energy =               -2382.7514792457468502
    Two-Electron Energy =                1001.0625184173665048
    Total Energy =                       -570.4822377275248755
  Basis Set: (AUG-CC-PVTZ AUX)
    Blend: AUG-CC-PVTZ-RI
    Molecular point group: c1

    Geometry (in Angstrom), charge = 0, multiplicity = 1:

       Center              X                  Y                   Z               Mass
    ------------   -----------------  -----------------  -----------------  -----------------
         N            0.109840029891     2.511177048153    -0.391815720679    14.003074004430
         N           -1.870962970109     0.758162048153     0.622413279321    14.003074004430
         C            0.379673029891     0.102386048153    -0.007059720679    12.000000000000
         C            0.925782029891     1.398834048153    -0.166344720679    12.000000000000
         C            2.636022029891    -0.860650951847     0.117590279321    12.000000000000
         C            1.247052029891    -0.989270951847     0.158551279321    12.000000000000
         C           -1.078034970109    -0.143416951847    -0.004765720679    12.000000000000
         C            2.322968029891     1.523502048153    -0.228686720679    12.000000000000
         C            3.160397029891     0.423380048153    -0.076757720679    12.000000000000
         C            3.538230029891    -2.045159951847     0.346467279321    12.000000000000
         C           -1.611360970109    -1.283888951847    -0.628434720679    12.000000000000
         C           -2.981212970109    -1.522776951847    -0.565460720679    12.000000000000
         C           -3.193185970109     0.520746048153     0.661770279321    12.000000000000
         C           -3.793574970109    -0.605042951847     0.100001279321    12.000000000000
         H            0.813194029891    -1.973246951847     0.335956279321     1.007825032230
         H            2.753924029891     2.513248048153    -0.376409720679     1.007825032230
         H            4.239562029891     0.565561048153    -0.121471720679     1.007825032230
         H            3.916990529891    -2.120831851847     1.583322179321     1.007825032230
         H            3.028755029891    -2.980815951847     0.097981279321     1.007825032230
         H            4.439423029891    -1.977770951847    -0.270638720679     1.007825032230
         H           -0.954469970109    -1.959399951847    -1.168587720679     1.007825032230
         H            0.584614029891     3.389475048153    -0.208873720679     1.007825032230
         H           -0.771073970109     2.446297048153     0.112386279321     1.007825032230
         H           -3.409599970109    -2.401286951847    -1.042245720679     1.007825032230
         H           -3.791800970109     1.272314048153     1.174197279321     1.007825032230
         H           -4.868238970109    -0.746934951847     0.170625279321     1.007825032230

  Basis Set: AUG-CC-PVTZ
    Blend: AUG-CC-PVTZ
  Basis Set: (AUG-CC-PVTZ AUX)
    Blend: AUG-CC-PVTZ-JKFIT
	 Reference Energy          =    -570.4822377275248755 [Eh]
	 Singles Energy            =      -0.0000000000000000 [Eh]
	 Same-Spin Energy          =      -0.6407649389334765 [Eh]
	 Opposite-Spin Energy      =      -1.9791043289810117 [Eh]
	 Correlation Energy        =      -2.6198692679144884 [Eh]
	 Total Energy              =    -573.1021069954393852 [Eh]

	 ================> DF-SCS-MP2 Energies <==================
	-----------------------------------------------------------
	 SCS Same-Spin Scale       =       0.3333333333333333 [-]
	 SCS Opposite-Spin Scale   =       1.2000000000000000 [-]
	 SCS Same-Spin Energy      =      -0.2135883129778255 [Eh]
	 SCS Opposite-Spin Energy  =      -2.3749251947772141 [Eh]
	 SCS Correlation Energy    =      -2.5885135077550396 [Eh]
	 SCS Total Energy          =    -573.0707512352798858 [Eh]
	-----------------------------------------------------------

  Dipole Moment: [D]
     X:    -1.2237      Y:    -0.8643      Z:    -0.0476     Total:     1.4989

*** Psi4 exiting successfully. Buy a developer a beer!
