                               Psi4 1.4a3.dev225

  ==> Input File <==

--------------------------------------------------------------------------
#psi4
#
memory 32 gb

molecule  {
0 1
  N        0.0801310     2.5312230    -0.3913130
  N       -1.9006720     0.7782080     0.6229160
  C        0.2602433     0.1638272    -0.0078955
  C        0.8960730     1.4188800    -0.1658420
  C        2.6063130    -0.8406050     0.1180930
  C        1.2173430    -0.9692250     0.1590540
  C       -1.1077440    -0.1233710    -0.0042630
  C        2.2932590     1.5435480    -0.2281840
  C        3.1306880     0.4434260    -0.0762550
  C        3.5085210    -2.0251140     0.3469700
  C       -1.6410700    -1.2638430    -0.6279320
  C       -3.0109220    -1.5027310    -0.5649580
  C       -3.2228950     0.5407920     0.6622730
  C       -3.8232840    -0.5849970     0.1005040
  H        0.7834850    -1.9532010     0.3364590
  H        2.7242150     2.5332940    -0.3759070
  H        4.2098530     0.5856070    -0.1209690
  H        3.8288200    -2.0891060     1.3929170
  H        2.9990460    -2.9607700     0.0984840
  H        4.4097140    -1.9577250    -0.2701360
  H       -0.9841790    -1.9393540    -1.1680850
  H        0.5549050     3.4095210    -0.2083710
  H       -0.8007830     2.4663430     0.1128890
  H       -3.4393090    -2.3812410    -1.0417430
  H       -3.8215100     1.2923600     1.1747000
  H       -4.8979480    -0.7268890     0.1711280
units angstrom
no_reorient  #important for SAPT in psi4, default
symmetry c1  #important for SAPT in psi4, default
}

set PROPERTIES_ORIGIN ["COM"]
properties('MP2/aug-cc-pvtz', properties = ['dipole'])
--------------------------------------------------------------------------

    Molecular point group: c1
  Charge       = 0
  Multiplicity = 1
  Basis Set: AUG-CC-PVTZ
    Blend: AUG-CC-PVTZ
  Basis Set: (AUG-CC-PVTZ AUX)
    Blend: AUG-CC-PVTZ-JKFIT

    Orbital Energies [Eh]
    ---------------------

    Doubly Occupied:

       1A    -15.565119     2A    -15.545674     3A    -11.283176
       4A    -11.279004     5A    -11.278241     6A    -11.261897
       7A    -11.241852     8A    -11.240670     9A    -11.240395
      10A    -11.236979    11A    -11.232859    12A    -11.228677
      13A    -11.225743    14A    -11.220899    15A     -1.262980
      16A     -1.210549    17A     -1.126721    18A     -1.087552
      19A     -1.070200    20A     -1.016559    21A     -0.985025
      22A     -0.915348    23A     -0.878734    24A     -0.862825
      25A     -0.816311    26A     -0.780228    27A     -0.709120
      28A     -0.690775    29A     -0.680510    30A     -0.664360
      31A     -0.650392    32A     -0.615015    33A     -0.599586
      34A     -0.591647    35A     -0.575370    36A     -0.574060
      37A     -0.570993    38A     -0.549730    39A     -0.531202
      40A     -0.529608    41A     -0.511000    42A     -0.496501
      43A     -0.482877    44A     -0.432607    45A     -0.419792
      46A     -0.387876    47A     -0.368008    48A     -0.309987
      49A     -0.277820

  @DF-RHF Final Energy:  -570.48704807009221

   => Energetics <=

    Nuclear Repulsion Energy =            812.1465729801934685
    One-Electron Energy =               -2384.6411370378423271
    Two-Electron Energy =                1002.0075159875566442
    Total Energy =                       -570.4870480700922144
  Basis Set: (AUG-CC-PVTZ AUX)
    Blend: AUG-CC-PVTZ-RI
    Molecular point group: c1

    Geometry (in Angstrom), charge = 0, multiplicity = 1:

       Center              X                  Y                   Z               Mass
    ------------   -----------------  -----------------  -----------------  -----------------
         N            0.116008237737     2.508414888664    -0.390683381159    14.003074004430
         N           -1.864794762263     0.755399888664     0.623545618841    14.003074004430
         C            0.296120537737     0.141019088664    -0.007265881159    12.000000000000
         C            0.931950237737     1.396071888664    -0.165212381159    12.000000000000
         C            2.642190237737    -0.863413111336     0.118722618841    12.000000000000
         C            1.253220237737    -0.992033111336     0.159683618841    12.000000000000
         C           -1.071866762263    -0.146179111336    -0.003633381159    12.000000000000
         C            2.329136237737     1.520739888664    -0.227554381159    12.000000000000
         C            3.166565237737     0.420617888664    -0.075625381159    12.000000000000
         C            3.544398237737    -2.047922111336     0.347599618841    12.000000000000
         C           -1.605192762263    -1.286651111336    -0.627302381159    12.000000000000
         C           -2.975044762263    -1.525539111336    -0.564328381159    12.000000000000
         C           -3.187017762263     0.517983888664     0.662902618841    12.000000000000
         C           -3.787406762263    -0.607805111336     0.101133618841    12.000000000000
         H            0.819362237737    -1.976009111336     0.337088618841     1.007825032230
         H            2.760092237737     2.510485888664    -0.375277381159     1.007825032230
         H            4.245730237737     0.562798888664    -0.120339381159     1.007825032230
         H            3.864697237737    -2.111914111336     1.393546618841     1.007825032230
         H            3.034923237737    -2.983578111336     0.099113618841     1.007825032230
         H            4.445591237737    -1.980533111336    -0.269506381159     1.007825032230
         H           -0.948301762263    -1.962162111336    -1.167455381159     1.007825032230
         H            0.590782237737     3.386712888664    -0.207741381159     1.007825032230
         H           -0.764905762263     2.443534888664     0.113518618841     1.007825032230
         H           -3.403431762263    -2.404049111336    -1.041113381159     1.007825032230
         H           -3.785632762263     1.269551888664     1.175329618841     1.007825032230
         H           -4.862070762263    -0.749697111336     0.171757618841     1.007825032230

  Basis Set: AUG-CC-PVTZ
    Blend: AUG-CC-PVTZ
  Basis Set: (AUG-CC-PVTZ AUX)
    Blend: AUG-CC-PVTZ-JKFIT
	 Reference Energy          =    -570.4870480700922144 [Eh]
	 Singles Energy            =      -0.0000000000000000 [Eh]
	 Same-Spin Energy          =      -0.6421205548234524 [Eh]
	 Opposite-Spin Energy      =      -1.9802110507046109 [Eh]
	 Correlation Energy        =      -2.6223316055280632 [Eh]
	 Total Energy              =    -573.1093796756202892 [Eh]

	 ================> DF-SCS-MP2 Energies <==================
	-----------------------------------------------------------
	 SCS Same-Spin Scale       =       0.3333333333333333 [-]
	 SCS Opposite-Spin Scale   =       1.2000000000000000 [-]
	 SCS Same-Spin Energy      =      -0.2140401849411508 [Eh]
	 SCS Opposite-Spin Energy  =      -2.3762532608455329 [Eh]
	 SCS Correlation Energy    =      -2.5902934457866835 [Eh]
	 SCS Total Energy          =    -573.0773415158788566 [Eh]
	-----------------------------------------------------------

  Dipole Moment: [D]
     X:    -0.9645      Y:    -0.9584      Z:     0.0644     Total:     1.3613

*** Psi4 exiting successfully. Buy a developer a beer!
