                               Psi4 1.4a3.dev225

  ==> Input File <==

--------------------------------------------------------------------------
#psi4
#
memory 32 gb

molecule  {
0 1
  N        0.0801310     2.5312230    -0.3913130
  N       -1.9006720     0.7782080     0.6229160
  C        0.3200990     0.2515844     0.0732600
  C        0.8960730     1.4188800    -0.1658420
  C        2.6063130    -0.8406050     0.1180930
  C        1.2173430    -0.9692250     0.1590540
  C       -1.1077440    -0.1233710    -0.0042630
  C        2.2932590     1.5435480    -0.2281840
  C        3.1306880     0.4434260    -0.0762550
  C        3.5085210    -2.0251140     0.3469700
  C       -1.6410700    -1.2638430    -0.6279320
  C       -3.0109220    -1.5027310    -0.5649580
  C       -3.2228950     0.5407920     0.6622730
  C       -3.8232840    -0.5849970     0.1005040
  H        0.7834850    -1.9532010     0.3364590
  H        2.7242150     2.5332940    -0.3759070
  H        4.2098530     0.5856070    -0.1209690
  H        3.8288200    -2.0891060     1.3929170
  H        2.9990460    -2.9607700     0.0984840
  H        4.4097140    -1.9577250    -0.2701360
  H       -0.9841790    -1.9393540    -1.1680850
  H        0.5549050     3.4095210    -0.2083710
  H       -0.8007830     2.4663430     0.1128890
  H       -3.4393090    -2.3812410    -1.0417430
  H       -3.8215100     1.2923600     1.1747000
  H       -4.8979480    -0.7268890     0.1711280
units angstrom
no_reorient  #important for SAPT in psi4, default
symmetry c1  #important for SAPT in psi4, default
}

set PROPERTIES_ORIGIN ["COM"]
properties('MP2/aug-cc-pvtz', properties = ['dipole'])
--------------------------------------------------------------------------

    Molecular point group: c1
  Charge       = 0
  Multiplicity = 1
  Basis Set: AUG-CC-PVTZ
    Blend: AUG-CC-PVTZ
  Basis Set: (AUG-CC-PVTZ AUX)
    Blend: AUG-CC-PVTZ-JKFIT

    Orbital Energies [Eh]
    ---------------------

    Doubly Occupied:

       1A    -15.564605     2A    -15.541817     3A    -11.289175
       4A    -11.278370     5A    -11.263914     6A    -11.263267
       7A    -11.243190     8A    -11.241187     9A    -11.240247
      10A    -11.235409    11A    -11.229700    12A    -11.229647
      13A    -11.227684    14A    -11.221020    15A     -1.261478
      16A     -1.213551    17A     -1.126230    18A     -1.088287
      19A     -1.060426    20A     -1.020066    21A     -0.987434
      22A     -0.918571    23A     -0.872705    24A     -0.860826
      25A     -0.825471    26A     -0.775984    27A     -0.707094
      28A     -0.687900    29A     -0.681358    30A     -0.663278
      31A     -0.645440    32A     -0.614681    33A     -0.598998
      34A     -0.594013    35A     -0.577434    36A     -0.572064
      37A     -0.570899    38A     -0.548735    39A     -0.533270
      40A     -0.530588    41A     -0.513909    42A     -0.494900
      43A     -0.477727    44A     -0.428884    45A     -0.419573
      46A     -0.387076    47A     -0.363484    48A     -0.309636
      49A     -0.289373

  @DF-RHF Final Energy:  -570.48097895521937

   => Energetics <=

    Nuclear Repulsion Energy =            812.1870627114897161
    One-Electron Energy =               -2384.7549272548621957
    Two-Electron Energy =                1002.0868855881531090
    Total Energy =                       -570.4809789552193706
  Basis Set: (AUG-CC-PVTZ AUX)
    Blend: AUG-CC-PVTZ-RI
    Molecular point group: c1

    Geometry (in Angstrom), charge = 0, multiplicity = 1:

       Center              X                  Y                   Z               Mass
    ------------   -----------------  -----------------  -----------------  -----------------
         N            0.112106726541     2.502694703313    -0.395973254836    14.003074004430
         N           -1.868696273459     0.749679703313     0.618255745164    14.003074004430
         C            0.352074726541     0.223056103313     0.068599745164    12.000000000000
         C            0.928048726541     1.390351703313    -0.170502254836    12.000000000000
         C            2.638288726541    -0.869133296687     0.113432745164    12.000000000000
         C            1.249318726541    -0.997753296687     0.154393745164    12.000000000000
         C           -1.075768273459    -0.151899296687    -0.008923254836    12.000000000000
         C            2.325234726541     1.515019703313    -0.232844254836    12.000000000000
         C            3.162663726541     0.414897703313    -0.080915254836    12.000000000000
         C            3.540496726541    -2.053642296687     0.342309745164    12.000000000000
         C           -1.609094273459    -1.292371296687    -0.632592254836    12.000000000000
         C           -2.978946273459    -1.531259296687    -0.569618254836    12.000000000000
         C           -3.190919273459     0.512263703313     0.657612745164    12.000000000000
         C           -3.791308273459    -0.613525296687     0.095843745164    12.000000000000
         H            0.815460726541    -1.981729296687     0.331798745164     1.007825032230
         H            2.756190726541     2.504765703313    -0.380567254836     1.007825032230
         H            4.241828726541     0.557078703313    -0.125629254836     1.007825032230
         H            3.860795726541    -2.117634296687     1.388256745164     1.007825032230
         H            3.031021726541    -2.989298296687     0.093823745164     1.007825032230
         H            4.441689726541    -1.986253296687    -0.274796254836     1.007825032230
         H           -0.952203273459    -1.967882296687    -1.172745254836     1.007825032230
         H            0.586880726541     3.380992703313    -0.213031254836     1.007825032230
         H           -0.768807273459     2.437814703313     0.108228745164     1.007825032230
         H           -3.407333273459    -2.409769296687    -1.046403254836     1.007825032230
         H           -3.789534273459     1.263831703313     1.170039745164     1.007825032230
         H           -4.865972273459    -0.755417296687     0.166467745164     1.007825032230

  Basis Set: AUG-CC-PVTZ
    Blend: AUG-CC-PVTZ
  Basis Set: (AUG-CC-PVTZ AUX)
    Blend: AUG-CC-PVTZ-JKFIT
	 Reference Energy          =    -570.4809789552193706 [Eh]
	 Singles Energy            =      -0.0000000000000000 [Eh]
	 Same-Spin Energy          =      -0.6405781231521179 [Eh]
	 Opposite-Spin Energy      =      -1.9790229626550069 [Eh]
	 Correlation Energy        =      -2.6196010858071248 [Eh]
	 Total Energy              =    -573.1005800410265465 [Eh]

	 ================> DF-SCS-MP2 Energies <==================
	-----------------------------------------------------------
	 SCS Same-Spin Scale       =       0.3333333333333333 [-]
	 SCS Opposite-Spin Scale   =       1.2000000000000000 [-]
	 SCS Same-Spin Energy      =      -0.2135260410507060 [Eh]
	 SCS Opposite-Spin Energy  =      -2.3748275551860081 [Eh]
	 SCS Correlation Energy    =      -2.5883535962367139 [Eh]
	 SCS Total Energy          =    -573.0693325514561138 [Eh]
	-----------------------------------------------------------

  Dipole Moment: [D]
     X:    -0.9456      Y:    -1.0851      Z:     0.0719     Total:     1.4411

*** Psi4 exiting successfully. Buy a developer a beer!
