                               Psi4 1.4a3.dev225

  ==> Input File <==

--------------------------------------------------------------------------
#psi4
#
memory 32 gb

molecule  {
0 1
  N        0.0801310     2.5312230    -0.3913130
  N       -1.9006720     0.7782080     0.6229160
  C        0.3499640     0.1224320    -0.0065570
  C        0.8960730     1.4188800    -0.1658420
  C        2.6063130    -0.8406050     0.1180930
  C        1.2173430    -0.9692250     0.1590540
  C       -1.1077440    -0.1233710    -0.0042630
  C        2.2932590     1.5435480    -0.2281840
  C        3.1306880     0.4434260    -0.0762550
  C        3.5085210    -2.0251140     0.3469700
  C       -1.6410700    -1.2638430    -0.6279320
  C       -3.0109220    -1.5027310    -0.5649580
  C       -3.2228950     0.5407920     0.6622730
  C       -3.8232840    -0.5849970     0.1005040
  H        0.7834850    -1.9532010     0.3364590
  H        2.7242150     2.5332940    -0.3759070
  H        4.2098530     0.5856070    -0.1209690
  H        3.8288200    -2.0891060     1.3929170
  H        2.9990460    -2.9607700     0.0984840
  H        4.4097140    -1.9577250    -0.2701360
  H       -0.9841790    -1.9393540    -1.1680850
  H        0.5549050     3.4095210    -0.2083710
  H       -0.8007830     2.4663430     0.1128890
  H       -3.4393090    -2.3812410    -1.0417430
  H       -3.8215100     1.2923600     1.1747000
  H       -4.8781620    -0.7242766     0.1698277
units angstrom
no_reorient  #important for SAPT in psi4, default
symmetry c1  #important for SAPT in psi4, default
}

set PROPERTIES_ORIGIN ["COM"]
properties('MP2/aug-cc-pvtz', properties = ['dipole'])
--------------------------------------------------------------------------

    Molecular point group: c1
  Charge       = 0
  Multiplicity = 1
  Basis Set: AUG-CC-PVTZ
    Blend: AUG-CC-PVTZ
  Basis Set: (AUG-CC-PVTZ AUX)
    Blend: AUG-CC-PVTZ-JKFIT

    Orbital Energies [Eh]
    ---------------------

    Doubly Occupied:

       1A    -15.567394     2A    -15.547677     3A    -11.288604
       4A    -11.280067     5A    -11.275341     6A    -11.262226
       7A    -11.240706     8A    -11.239292     9A    -11.233428
      10A    -11.232516    11A    -11.232243    12A    -11.226593
      13A    -11.222676    14A    -11.219477    15A     -1.260899
      16A     -1.210597    17A     -1.131634    18A     -1.088039
      19A     -1.063117    20A     -1.016104    21A     -0.992664
      22A     -0.915540    23A     -0.871254    24A     -0.862015
      25A     -0.814913    26A     -0.783396    27A     -0.709732
      28A     -0.689770    29A     -0.681717    30A     -0.661991
      31A     -0.650460    32A     -0.613541    33A     -0.600526
      34A     -0.589832    35A     -0.582109    36A     -0.573645
      37A     -0.569986    38A     -0.548181    39A     -0.532760
      40A     -0.529728    41A     -0.512988    42A     -0.492915
      43A     -0.485678    44A     -0.435033    45A     -0.418791
      46A     -0.387454    47A     -0.366525    48A     -0.316429
      49A     -0.278487

  @DF-RHF Final Energy:  -570.50186086505573

   => Energetics <=

    Nuclear Repulsion Energy =            812.1215631865940168
    One-Electron Energy =               -2384.6334593365054388
    Two-Electron Energy =                1002.0100352848558032
    Total Energy =                       -570.5018608650557326
  Basis Set: (AUG-CC-PVTZ AUX)
    Blend: AUG-CC-PVTZ-RI
    Molecular point group: c1

    Geometry (in Angstrom), charge = 0, multiplicity = 1:

       Center              X                  Y                   Z               Mass
    ------------   -----------------  -----------------  -----------------  -----------------
         N            0.110051752470     2.511098807338    -0.390763508922    14.003074004430
         N           -1.870751247530     0.758083807338     0.623465491078    14.003074004430
         C            0.379884752470     0.102307807338    -0.006007508922    12.000000000000
         C            0.925993752470     1.398755807338    -0.165292508922    12.000000000000
         C            2.636233752470    -0.860729192662     0.118642491078    12.000000000000
         C            1.247263752470    -0.989349192662     0.159603491078    12.000000000000
         C           -1.077823247530    -0.143495192662    -0.003713508922    12.000000000000
         C            2.323179752470     1.523423807338    -0.227634508922    12.000000000000
         C            3.160608752470     0.423301807338    -0.075705508922    12.000000000000
         C            3.538441752470    -2.045238192662     0.347519491078    12.000000000000
         C           -1.611149247530    -1.283967192662    -0.627382508922    12.000000000000
         C           -2.981001247530    -1.522855192662    -0.564408508922    12.000000000000
         C           -3.192974247530     0.520667807338     0.662822491078    12.000000000000
         C           -3.793363247530    -0.605121192662     0.101053491078    12.000000000000
         H            0.813405752470    -1.973325192662     0.337008491078     1.007825032230
         H            2.754135752470     2.513169807338    -0.375357508922     1.007825032230
         H            4.239773752470     0.565482807338    -0.120419508922     1.007825032230
         H            3.858740752470    -2.109230192662     1.393466491078     1.007825032230
         H            3.028966752470    -2.980894192662     0.099033491078     1.007825032230
         H            4.439634752470    -1.977849192662    -0.269586508922     1.007825032230
         H           -0.954258247530    -1.959478192662    -1.167535508922     1.007825032230
         H            0.584825752470     3.389396807338    -0.207821508922     1.007825032230
         H           -0.770862247530     2.446218807338     0.113438491078     1.007825032230
         H           -3.409388247530    -2.401365192662    -1.041193508922     1.007825032230
         H           -3.791589247530     1.272235807338     1.175249491078     1.007825032230
         H           -4.848241247530    -0.744400792662     0.170377191078     1.007825032230

  Basis Set: AUG-CC-PVTZ
    Blend: AUG-CC-PVTZ
  Basis Set: (AUG-CC-PVTZ AUX)
    Blend: AUG-CC-PVTZ-JKFIT
	 Reference Energy          =    -570.5018608650557326 [Eh]
	 Singles Energy            =      -0.0000000000000000 [Eh]
	 Same-Spin Energy          =      -0.6407989403979032 [Eh]
	 Opposite-Spin Energy      =      -1.9775512141158818 [Eh]
	 Correlation Energy        =      -2.6183501545137848 [Eh]
	 Total Energy              =    -573.1202110195695241 [Eh]

	 ================> DF-SCS-MP2 Energies <==================
	-----------------------------------------------------------
	 SCS Same-Spin Scale       =       0.3333333333333333 [-]
	 SCS Opposite-Spin Scale   =       1.2000000000000000 [-]
	 SCS Same-Spin Energy      =      -0.2135996467993010 [Eh]
	 SCS Opposite-Spin Energy  =      -2.3730614569390580 [Eh]
	 SCS Correlation Energy    =      -2.5866611037383591 [Eh]
	 SCS Total Energy          =    -573.0885219687941117 [Eh]
	-----------------------------------------------------------

  Dipole Moment: [D]
     X:    -1.1036      Y:    -0.9642      Z:     0.0782     Total:     1.4675

*** Psi4 exiting successfully. Buy a developer a beer!
