                               Psi4 1.3.2 release

  ==> Input File <==

--------------------------------------------------------------------------
#psi4
#
memory 32 gb

molecule  {
0 1
  O        0.3935890    -1.1834810     0.6928250
  C       -1.1363630     0.3083220    -0.3952430
  C        0.2489750    -0.1877140    -0.0130640
  C        1.4343240     0.6136100    -0.5100380
  C       -1.6230330     1.2650800     0.7040440
  C       -2.1008890    -0.8571740    -0.5744690
  C        2.7660710     0.0938090     0.0047360
  H       -1.0562100     0.8719860    -1.3362890
  H        1.2791640     1.6640640    -0.2248860
  H        1.4031030     0.6104820    -1.6083150
  H       -0.9521060     2.1204610     0.8293460
  H       -1.6846230     0.7313890     1.6588270
  H       -2.6168740     1.6507050     0.4584890
  H       -1.7562200    -1.5424760    -1.3562160
  H       -2.1750630    -1.4236530     0.3564710
  H       -3.0946750    -0.4900390    -0.8506910
  H        2.7911150     0.1168120     1.0954440
  H        2.9171760    -0.9417660    -0.3044500
  H        3.5913670     0.6986870    -0.3779970
units angstrom
no_reorient  #important for SAPT in psi4, default
symmetry c1  #important for SAPT in psi4, default
}

set PROPERTIES_ORIGIN ["COM"]
properties('MP2/aug-cc-pvtz', properties = ['dipole'])
--------------------------------------------------------------------------

    Molecular point group: c1
  Charge       = 0
  Multiplicity = 1
  Basis Set: AUG-CC-PVTZ
    Blend: AUG-CC-PVTZ
  Basis Set: (AUG-CC-PVTZ AUX)
    Blend: AUG-CC-PVTZ-JKFIT

    Orbital Energies [Eh]
    ---------------------

    Doubly Occupied:

       1A    -20.540645     2A    -11.324771     3A    -11.242000
       4A    -11.239267     5A    -11.228711     6A    -11.215820
       7A    -11.215373     8A     -1.372993     9A     -1.091128
      10A     -1.047305    11A     -0.937732    12A     -0.907406
      13A     -0.822752    14A     -0.720670    15A     -0.672481
      16A     -0.632089    17A     -0.623579    18A     -0.606511
      19A     -0.568221    20A     -0.552357    21A     -0.544436
      22A     -0.519986    23A     -0.512227    24A     -0.505834
      25A     -0.492624    26A     -0.481544    27A     -0.469712
      28A     -0.401975

  @DF-RHF Final Energy:  -309.17664787035784

   => Energetics <=

    Nuclear Repulsion Energy =            315.0424562794946723
    One-Electron Energy =               -1043.4579087126060131
    Two-Electron Energy =                 419.2388045627535007
    Total Energy =                       -309.1766478703578400
  Basis Set: (AUG-CC-PVTZ AUX)
    Blend: AUG-CC-PVTZ-RI
    Molecular point group: c1

    Geometry (in Angstrom), charge = 0, multiplicity = 1:

       Center              X                  Y                   Z               Mass
    ------------   -----------------  -----------------  -----------------  -----------------
         O            0.393588974407    -1.183480921411     0.692824899304    15.994914619570
         C           -1.136363025593     0.308322078589    -0.395243100696    12.000000000000
         C            0.248974974407    -0.187713921411    -0.013064100696    12.000000000000
         C            1.434323974407     0.613610078589    -0.510038100696    12.000000000000
         C           -1.623033025593     1.265080078589     0.704043899304    12.000000000000
         C           -2.100889025593    -0.857173921411    -0.574469100696    12.000000000000
         C            2.766070974407     0.093809078589     0.004735899304    12.000000000000
         H           -1.056210025593     0.871986078589    -1.336289100696     1.007825032230
         H            1.279163974407     1.664064078589    -0.224886100696     1.007825032230
         H            1.403102974407     0.610482078589    -1.608315100696     1.007825032230
         H           -0.952106025593     2.120461078589     0.829345899304     1.007825032230
         H           -1.684623025593     0.731389078589     1.658826899304     1.007825032230
         H           -2.616874025593     1.650705078589     0.458488899304     1.007825032230
         H           -1.756220025593    -1.542475921411    -1.356216100696     1.007825032230
         H           -2.175063025593    -1.423652921411     0.356470899304     1.007825032230
         H           -3.094675025593    -0.490038921411    -0.850691100696     1.007825032230
         H            2.791114974407     0.116812078589     1.095443899304     1.007825032230
         H            2.917175974407    -0.941765921411    -0.304450100696     1.007825032230
         H            3.591366974407     0.698687078589    -0.377997100696     1.007825032230

  Basis Set: AUG-CC-PVTZ
    Blend: AUG-CC-PVTZ
  Basis Set: (AUG-CC-PVTZ AUX)
    Blend: AUG-CC-PVTZ-JKFIT
	 Reference Energy          =    -309.1766478703578400 [Eh]
	 Singles Energy            =      -0.0000000000000000 [Eh]
	 Same-Spin Energy          =      -0.3170603805657845 [Eh]
	 Opposite-Spin Energy      =      -1.1035050738728522 [Eh]
	 Correlation Energy        =      -1.4205654544386368 [Eh]
	 Total Energy              =    -310.5972133247964848 [Eh]

	 ================> DF-SCS-MP2 Energies <==================
	-----------------------------------------------------------
	 SCS Same-Spin Scale       =       0.3333333333333333 [-]
	 SCS Opposite-Spin Scale   =       1.2000000000000000 [-]
	 SCS Same-Spin Energy      =      -0.1056867935219282 [Eh]
	 SCS Opposite-Spin Energy  =      -1.3242060886474227 [Eh]
	 SCS Correlation Energy    =      -1.4298928821693508 [Eh]
	 SCS Total Energy          =    -310.6065407525271667 [Eh]
	-----------------------------------------------------------

  Dipole Moment: [D]
     X:    -0.3681      Y:     2.2209      Z:    -1.4539     Total:     2.6799

*** Psi4 exiting successfully. Buy a developer a beer!
