                               Psi4 1.3.2 release

  ==> Input File <==

--------------------------------------------------------------------------
#psi4
#
memory 32 gb

molecule  {
0 1
  O        0.3935890    -1.1834810     0.6928250
  C       -1.1363630     0.3083220    -0.3952430
  C        0.2489750    -0.1877140    -0.0130640
  C        1.4435518     0.4431457    -0.7567296
  C       -1.6230330     1.2650800     0.7040440
  C       -2.1008890    -0.8571740    -0.5744690
  C        2.7660710     0.0938090     0.0047360
  H       -1.0562100     0.8719860    -1.3362890
  H        1.2791640     1.6640640    -0.2248860
  H        1.4031030     0.6104820    -1.6083150
  H       -0.9521060     2.1204610     0.8293460
  H       -1.6846230     0.7313890     1.6588270
  H       -2.6168740     1.6507050     0.4584890
  H       -1.7562200    -1.5424760    -1.3562160
  H       -2.1750630    -1.4236530     0.3564710
  H       -3.0946750    -0.4900390    -0.8506910
  H        2.7911150     0.1168120     1.0954440
  H        2.9171760    -0.9417660    -0.3044500
  H        3.5913670     0.6986870    -0.3779970
units angstrom
no_reorient  #important for SAPT in psi4, default
symmetry c1  #important for SAPT in psi4, default
}

set PROPERTIES_ORIGIN ["COM"]
properties('MP2/aug-cc-pvtz', properties = ['dipole'])
--------------------------------------------------------------------------

    Molecular point group: c1
  Charge       = 0
  Multiplicity = 1
  Basis Set: AUG-CC-PVTZ
    Blend: AUG-CC-PVTZ
  Basis Set: (AUG-CC-PVTZ AUX)
    Blend: AUG-CC-PVTZ-JKFIT

    Orbital Energies [Eh]
    ---------------------

    Doubly Occupied:

       1A    -20.541878     2A    -11.331958     3A    -11.249157
       4A    -11.242486     5A    -11.226142     6A    -11.223573
       7A    -11.217116     8A     -1.374330     9A     -1.090730
      10A     -1.047558    11A     -0.937098    12A     -0.909697
      13A     -0.837521    14A     -0.740660    15A     -0.684334
      16A     -0.629807    17A     -0.617748    18A     -0.594481
      19A     -0.567556    20A     -0.563242    21A     -0.545901
      22A     -0.538877    23A     -0.521977    24A     -0.503626
      25A     -0.482490    26A     -0.473131    27A     -0.430722
      28A     -0.399682

  @DF-RHF Final Energy:  -309.07844420814365

   => Energetics <=

    Nuclear Repulsion Energy =            314.2758402125299995
    One-Electron Energy =               -1041.6616149164804028
    Two-Electron Energy =                 418.3073304958066956
    Total Energy =                       -309.0784442081436509
  Basis Set: (AUG-CC-PVTZ AUX)
    Blend: AUG-CC-PVTZ-RI
    Molecular point group: c1

    Geometry (in Angstrom), charge = 0, multiplicity = 1:

       Center              X                  Y                   Z               Mass
    ------------   -----------------  -----------------  -----------------  -----------------
         O            0.392482621014    -1.163043357035     0.722401622735    15.994914619570
         C           -1.137469378986     0.328759642965    -0.365666377265    12.000000000000
         C            0.247868621014    -0.167276357035     0.016512622735    12.000000000000
         C            1.442445421014     0.463583342965    -0.727152977265    12.000000000000
         C           -1.624139378986     1.285517642965     0.733620622735    12.000000000000
         C           -2.101995378986    -0.836736357035    -0.544892377265    12.000000000000
         C            2.764964621014     0.114246642965     0.034312622735    12.000000000000
         H           -1.057316378986     0.892423642965    -1.306712377265     1.007825032230
         H            1.278057621014     1.684501642965    -0.195309377265     1.007825032230
         H            1.401996621014     0.630919642965    -1.578738377265     1.007825032230
         H           -0.953212378986     2.140898642965     0.858922622735     1.007825032230
         H           -1.685729378986     0.751826642965     1.688403622735     1.007825032230
         H           -2.617980378986     1.671142642965     0.488065622735     1.007825032230
         H           -1.757326378986    -1.522038357035    -1.326639377265     1.007825032230
         H           -2.176169378986    -1.403215357035     0.386047622735     1.007825032230
         H           -3.095781378986    -0.469601357035    -0.821114377265     1.007825032230
         H            2.790008621014     0.137249642965     1.125020622735     1.007825032230
         H            2.916069621014    -0.921328357035    -0.274873377265     1.007825032230
         H            3.590260621014     0.719124642965    -0.348420377265     1.007825032230

  Basis Set: AUG-CC-PVTZ
    Blend: AUG-CC-PVTZ
  Basis Set: (AUG-CC-PVTZ AUX)
    Blend: AUG-CC-PVTZ-JKFIT
	 Reference Energy          =    -309.0784442081436509 [Eh]
	 Singles Energy            =      -0.0000000000000000 [Eh]
	 Same-Spin Energy          =      -0.3181533378013500 [Eh]
	 Opposite-Spin Energy      =      -1.1080021854011841 [Eh]
	 Correlation Energy        =      -1.4261555232025342 [Eh]
	 Total Energy              =    -310.5045997313461612 [Eh]

	 ================> DF-SCS-MP2 Energies <==================
	-----------------------------------------------------------
	 SCS Same-Spin Scale       =       0.3333333333333333 [-]
	 SCS Opposite-Spin Scale   =       1.2000000000000000 [-]
	 SCS Same-Spin Energy      =      -0.1060511126004500 [Eh]
	 SCS Opposite-Spin Energy  =      -1.3296026224814208 [Eh]
	 SCS Correlation Energy    =      -1.4356537350818708 [Eh]
	 SCS Total Energy          =    -310.5140979432255222 [Eh]
	-----------------------------------------------------------

  Dipole Moment: [D]
     X:    -0.3159      Y:     2.0260      Z:    -1.5166     Total:     2.5504

*** Psi4 exiting successfully. Buy a developer a beer!
