                               Psi4 1.3.2 release

  ==> Input File <==

--------------------------------------------------------------------------
#psi4
#
memory 32 gb

molecule  {
0 1
  O        0.3935890    -1.1834810     0.6928250
  C       -1.1363630     0.3083220    -0.3952430
  C        0.2489750    -0.1877140    -0.0130640
  C        1.4404759     0.4999671    -0.6744991
  C       -1.6230330     1.2650800     0.7040440
  C       -2.1008890    -0.8571740    -0.5744690
  C        2.7660710     0.0938090     0.0047360
  H       -1.0562100     0.8719860    -1.3362890
  H        1.2791640     1.6640640    -0.2248860
  H        1.4031030     0.6104820    -1.6083150
  H       -0.9521060     2.1204610     0.8293460
  H       -1.6846230     0.7313890     1.6588270
  H       -2.6168740     1.6507050     0.4584890
  H       -1.7562200    -1.5424760    -1.3562160
  H       -2.1750630    -1.4236530     0.3564710
  H       -3.0946750    -0.4900390    -0.8506910
  H        2.7911150     0.1168120     1.0954440
  H        2.9171760    -0.9417660    -0.3044500
  H        3.5913670     0.6986870    -0.3779970
units angstrom
no_reorient  #important for SAPT in psi4, default
symmetry c1  #important for SAPT in psi4, default
}

set PROPERTIES_ORIGIN ["COM"]
properties('MP2/aug-cc-pvtz', properties = ['dipole'])
--------------------------------------------------------------------------

    Molecular point group: c1
  Charge       = 0
  Multiplicity = 1
  Basis Set: AUG-CC-PVTZ
    Blend: AUG-CC-PVTZ
  Basis Set: (AUG-CC-PVTZ AUX)
    Blend: AUG-CC-PVTZ-JKFIT

    Orbital Energies [Eh]
    ---------------------

    Doubly Occupied:

       1A    -20.541216     2A    -11.327977     3A    -11.243492
       4A    -11.242193     5A    -11.227064     6A    -11.219273
       7A    -11.216667     8A     -1.373611     9A     -1.090792
      10A     -1.046885    11A     -0.937306    12A     -0.908277
      13A     -0.829068    14A     -0.731340    15A     -0.679547
      16A     -0.631689    17A     -0.620203    18A     -0.598544
      19A     -0.568179    20A     -0.557106    21A     -0.544917
      22A     -0.534647    23A     -0.520521    24A     -0.504080
      25A     -0.482706    26A     -0.475450    27A     -0.451088
      28A     -0.400864

  @DF-RHF Final Energy:  -309.13412086711310

   => Energetics <=

    Nuclear Repulsion Energy =            314.6306417933028570
    One-Electron Energy =               -1042.5201187146933535
    Two-Electron Energy =                 418.7553560542773994
    Total Energy =                       -309.1341208671130971
  Basis Set: (AUG-CC-PVTZ AUX)
    Blend: AUG-CC-PVTZ-RI
    Molecular point group: c1

    Geometry (in Angstrom), charge = 0, multiplicity = 1:

       Center              X                  Y                   Z               Mass
    ------------   -----------------  -----------------  -----------------  -----------------
         O            0.392851401482    -1.169855874497     0.712542718922    15.994914619570
         C           -1.137100598518     0.321947125503    -0.375525281078    12.000000000000
         C            0.248237401482    -0.174088874497     0.006653718922    12.000000000000
         C            1.439738301482     0.513592225503    -0.654781381078    12.000000000000
         C           -1.623770598518     1.278705125503     0.723761718922    12.000000000000
         C           -2.101626598518    -0.843548874497    -0.554751281078    12.000000000000
         C            2.765333401482     0.107434125503     0.024453718922    12.000000000000
         H           -1.056947598518     0.885611125503    -1.316571281078     1.007825032230
         H            1.278426401482     1.677689125503    -0.205168281078     1.007825032230
         H            1.402365401482     0.624107125503    -1.588597281078     1.007825032230
         H           -0.952843598518     2.134086125503     0.849063718922     1.007825032230
         H           -1.685360598518     0.745014125503     1.678544718922     1.007825032230
         H           -2.617611598518     1.664330125503     0.478206718922     1.007825032230
         H           -1.756957598518    -1.528850874497    -1.336498281078     1.007825032230
         H           -2.175800598518    -1.410027874497     0.376188718922     1.007825032230
         H           -3.095412598518    -0.476413874497    -0.830973281078     1.007825032230
         H            2.790377401482     0.130437125503     1.115161718922     1.007825032230
         H            2.916438401482    -0.928140874497    -0.284732281078     1.007825032230
         H            3.590629401482     0.712312125503    -0.358279281078     1.007825032230

  Basis Set: AUG-CC-PVTZ
    Blend: AUG-CC-PVTZ
  Basis Set: (AUG-CC-PVTZ AUX)
    Blend: AUG-CC-PVTZ-JKFIT
	 Reference Energy          =    -309.1341208671130971 [Eh]
	 Singles Energy            =      -0.0000000000000000 [Eh]
	 Same-Spin Energy          =      -0.3175013872509655 [Eh]
	 Opposite-Spin Energy      =      -1.1054703473652601 [Eh]
	 Correlation Energy        =      -1.4229717346162256 [Eh]
	 Total Energy              =    -310.5570926017293232 [Eh]

	 ================> DF-SCS-MP2 Energies <==================
	-----------------------------------------------------------
	 SCS Same-Spin Scale       =       0.3333333333333333 [-]
	 SCS Opposite-Spin Scale   =       1.2000000000000000 [-]
	 SCS Same-Spin Energy      =      -0.1058337957503218 [Eh]
	 SCS Opposite-Spin Energy  =      -1.3265644168383119 [Eh]
	 SCS Correlation Energy    =      -1.4323982125886339 [Eh]
	 SCS Total Energy          =    -310.5665190797017203 [Eh]
	-----------------------------------------------------------

  Dipole Moment: [D]
     X:    -0.3420      Y:     2.1018      Z:    -1.5142     Total:     2.6129

*** Psi4 exiting successfully. Buy a developer a beer!
