                               Psi4 1.3.2 release

  ==> Input File <==

--------------------------------------------------------------------------
#psi4
#
memory 32 gb

molecule  {
0 1
  O        0.3935890    -1.1834810     0.6928250
  C       -1.1363630     0.3083220    -0.3952430
  C        0.2489750    -0.1877140    -0.0130640
  C        1.4389379     0.5283778    -0.6333838
  C       -1.6230330     1.2650800     0.7040440
  C       -2.1008890    -0.8571740    -0.5744690
  C        2.7660710     0.0938090     0.0047360
  H       -1.0562100     0.8719860    -1.3362890
  H        1.2791640     1.6640640    -0.2248860
  H        1.4031030     0.6104820    -1.6083150
  H       -0.9521060     2.1204610     0.8293460
  H       -1.6846230     0.7313890     1.6588270
  H       -2.6168740     1.6507050     0.4584890
  H       -1.7562200    -1.5424760    -1.3562160
  H       -2.1750630    -1.4236530     0.3564710
  H       -3.0946750    -0.4900390    -0.8506910
  H        2.7911150     0.1168120     1.0954440
  H        2.9171760    -0.9417660    -0.3044500
  H        3.5913670     0.6986870    -0.3779970
units angstrom
no_reorient  #important for SAPT in psi4, default
symmetry c1  #important for SAPT in psi4, default
}

set PROPERTIES_ORIGIN ["COM"]
properties('MP2/aug-cc-pvtz', properties = ['dipole'])
--------------------------------------------------------------------------

    Molecular point group: c1
  Charge       = 0
  Multiplicity = 1
  Basis Set: AUG-CC-PVTZ
    Blend: AUG-CC-PVTZ
  Basis Set: (AUG-CC-PVTZ AUX)
    Blend: AUG-CC-PVTZ-JKFIT

    Orbital Energies [Eh]
    ---------------------

    Doubly Occupied:

       1A    -20.540977     2A    -11.326561     3A    -11.242099
       4A    -11.241534     5A    -11.227507     6A    -11.217671
       7A    -11.216448     8A     -1.373349     9A     -1.090856
      10A     -1.046812    11A     -0.937414    12A     -0.907891
      13A     -0.826216    14A     -0.727155    15A     -0.676714
      16A     -0.632762    17A     -0.621331    18A     -0.600729
      19A     -0.568325    20A     -0.554998    21A     -0.544571
      22A     -0.530116    23A     -0.519746    24A     -0.504112
      25A     -0.482789    26A     -0.478018    27A     -0.459859
      28A     -0.401275

  @DF-RHF Final Energy:  -309.15300095860448

   => Energetics <=

    Nuclear Repulsion Energy =            314.7721310567327464
    One-Electron Energy =               -1042.8545938224340262
    Two-Electron Energy =                 418.9294618070967999
    Total Energy =                       -309.1530009586044798
  Basis Set: (AUG-CC-PVTZ AUX)
    Blend: AUG-CC-PVTZ-RI
    Molecular point group: c1

    Geometry (in Angstrom), charge = 0, multiplicity = 1:

       Center              X                  Y                   Z               Mass
    ------------   -----------------  -----------------  -----------------  -----------------
         O            0.393035797710    -1.173262133228     0.707613261020    15.994914619570
         C           -1.136916202290     0.318540866772    -0.380454738980    12.000000000000
         C            0.248421797710    -0.177495133228     0.001724261020    12.000000000000
         C            1.438384697710     0.538596666772    -0.618595538980    12.000000000000
         C           -1.623586202290     1.275298866772     0.718832261020    12.000000000000
         C           -2.101442202290    -0.846955133228    -0.559680738980    12.000000000000
         C            2.765517797710     0.104027866772     0.019524261020    12.000000000000
         H           -1.056763202290     0.882204866772    -1.321500738980     1.007825032230
         H            1.278610797710     1.674282866772    -0.210097738980     1.007825032230
         H            1.402549797710     0.620700866772    -1.593526738980     1.007825032230
         H           -0.952659202290     2.130679866772     0.844134261020     1.007825032230
         H           -1.685176202290     0.741607866772     1.673615261020     1.007825032230
         H           -2.617427202290     1.660923866772     0.473277261020     1.007825032230
         H           -1.756773202290    -1.532257133228    -1.341427738980     1.007825032230
         H           -2.175616202290    -1.413434133228     0.371259261020     1.007825032230
         H           -3.095228202290    -0.479820133228    -0.835902738980     1.007825032230
         H            2.790561797710     0.127030866772     1.110232261020     1.007825032230
         H            2.916622797710    -0.931547133228    -0.289661738980     1.007825032230
         H            3.590813797710     0.708905866772    -0.363208738980     1.007825032230

  Basis Set: AUG-CC-PVTZ
    Blend: AUG-CC-PVTZ
  Basis Set: (AUG-CC-PVTZ AUX)
    Blend: AUG-CC-PVTZ-JKFIT
	 Reference Energy          =    -309.1530009586044798 [Eh]
	 Singles Energy            =      -0.0000000000000000 [Eh]
	 Same-Spin Energy          =      -0.3172873568785032 [Eh]
	 Opposite-Spin Energy      =      -1.1045990186982011 [Eh]
	 Correlation Energy        =      -1.4218863755767044 [Eh]
	 Total Energy              =    -310.5748873341811986 [Eh]

	 ================> DF-SCS-MP2 Energies <==================
	-----------------------------------------------------------
	 SCS Same-Spin Scale       =       0.3333333333333333 [-]
	 SCS Opposite-Spin Scale   =       1.2000000000000000 [-]
	 SCS Same-Spin Energy      =      -0.1057624522928344 [Eh]
	 SCS Opposite-Spin Energy  =      -1.3255188224378414 [Eh]
	 SCS Correlation Energy    =      -1.4312812747306758 [Eh]
	 SCS Total Energy          =    -310.5842822333351592 [Eh]
	-----------------------------------------------------------

  Dipole Moment: [D]
     X:    -0.3527      Y:     2.1374      Z:    -1.5061     Total:     2.6384

*** Psi4 exiting successfully. Buy a developer a beer!
