                               Psi4 1.3.2 release

  ==> Input File <==

--------------------------------------------------------------------------
#psi4
#
memory 32 gb

molecule  {
0 1
  O        0.3935890    -1.1834810     0.6928250
  C       -1.1363630     0.3083220    -0.3952430
  C        0.2489750    -0.1877140    -0.0130640
  C        1.4358620     0.5851993    -0.5511533
  C       -1.6230330     1.2650800     0.7040440
  C       -2.1008890    -0.8571740    -0.5744690
  C        2.7660710     0.0938090     0.0047360
  H       -1.0562100     0.8719860    -1.3362890
  H        1.2791640     1.6640640    -0.2248860
  H        1.4031030     0.6104820    -1.6083150
  H       -0.9521060     2.1204610     0.8293460
  H       -1.6846230     0.7313890     1.6588270
  H       -2.6168740     1.6507050     0.4584890
  H       -1.7562200    -1.5424760    -1.3562160
  H       -2.1750630    -1.4236530     0.3564710
  H       -3.0946750    -0.4900390    -0.8506910
  H        2.7911150     0.1168120     1.0954440
  H        2.9171760    -0.9417660    -0.3044500
  H        3.5913670     0.6986870    -0.3779970
units angstrom
no_reorient  #important for SAPT in psi4, default
symmetry c1  #important for SAPT in psi4, default
}

set PROPERTIES_ORIGIN ["COM"]
properties('MP2/aug-cc-pvtz', properties = ['dipole'])
--------------------------------------------------------------------------

    Molecular point group: c1
  Charge       = 0
  Multiplicity = 1
  Basis Set: AUG-CC-PVTZ
    Blend: AUG-CC-PVTZ
  Basis Set: (AUG-CC-PVTZ AUX)
    Blend: AUG-CC-PVTZ-JKFIT

    Orbital Energies [Eh]
    ---------------------

    Doubly Occupied:

       1A    -20.540692     2A    -11.324951     3A    -11.242004
       4A    -11.239416     5A    -11.228332     6A    -11.216024
       7A    -11.215703     8A     -1.373039     9A     -1.091027
      10A     -1.047045    11A     -0.937627    12A     -0.907486
      13A     -0.823128    14A     -0.721669    15A     -0.672529
      16A     -0.633477    17A     -0.623037    18A     -0.604756
      19A     -0.568295    20A     -0.552839    21A     -0.544364
      22A     -0.520844    23A     -0.515903    24A     -0.503678
      25A     -0.489831    26A     -0.482283    27A     -0.468615
      28A     -0.401824

  @DF-RHF Final Energy:  -309.17404575777192

   => Energetics <=

    Nuclear Repulsion Energy =            314.9788502529684138
    One-Electron Energy =               -1043.3249528772626036
    Two-Electron Energy =                 419.1720568665222686
    Total Energy =                       -309.1740457577719212
  Basis Set: (AUG-CC-PVTZ AUX)
    Blend: AUG-CC-PVTZ-RI
    Molecular point group: c1

    Geometry (in Angstrom), charge = 0, multiplicity = 1:

       Center              X                  Y                   Z               Mass
    ------------   -----------------  -----------------  -----------------  -----------------
         O            0.393404578178    -1.180074662680     0.697754357206    15.994914619570
         C           -1.136547421822     0.311728337320    -0.390313642794    12.000000000000
         C            0.248790578178    -0.184307662680    -0.008134642794    12.000000000000
         C            1.435677578178     0.588605637320    -0.546223942794    12.000000000000
         C           -1.623217421822     1.268486337320     0.708973357206    12.000000000000
         C           -2.101073421822    -0.853767662680    -0.569539642794    12.000000000000
         C            2.765886578178     0.097215337320     0.009665357206    12.000000000000
         H           -1.056394421822     0.875392337320    -1.331359642794     1.007825032230
         H            1.278979578178     1.667470337320    -0.219956642794     1.007825032230
         H            1.402918578178     0.613888337320    -1.603385642794     1.007825032230
         H           -0.952290421822     2.123867337320     0.834275357206     1.007825032230
         H           -1.684807421822     0.734795337320     1.663756357206     1.007825032230
         H           -2.617058421822     1.654111337320     0.463418357206     1.007825032230
         H           -1.756404421822    -1.539069662680    -1.351286642794     1.007825032230
         H           -2.175247421822    -1.420246662680     0.361400357206     1.007825032230
         H           -3.094859421822    -0.486632662680    -0.845761642794     1.007825032230
         H            2.790930578178     0.120218337320     1.100373357206     1.007825032230
         H            2.916991578178    -0.938359662680    -0.299520642794     1.007825032230
         H            3.591182578178     0.702093337320    -0.373067642794     1.007825032230

  Basis Set: AUG-CC-PVTZ
    Blend: AUG-CC-PVTZ
  Basis Set: (AUG-CC-PVTZ AUX)
    Blend: AUG-CC-PVTZ-JKFIT
	 Reference Energy          =    -309.1740457577719212 [Eh]
	 Singles Energy            =      -0.0000000000000000 [Eh]
	 Same-Spin Energy          =      -0.3170689211131227 [Eh]
	 Opposite-Spin Energy      =      -1.1036209402446469 [Eh]
	 Correlation Energy        =      -1.4206898613577694 [Eh]
	 Total Energy              =    -310.5947356191296649 [Eh]

	 ================> DF-SCS-MP2 Energies <==================
	-----------------------------------------------------------
	 SCS Same-Spin Scale       =       0.3333333333333333 [-]
	 SCS Opposite-Spin Scale   =       1.2000000000000000 [-]
	 SCS Same-Spin Energy      =      -0.1056896403710409 [Eh]
	 SCS Opposite-Spin Energy  =      -1.3243451282935761 [Eh]
	 SCS Correlation Energy    =      -1.4300347686646169 [Eh]
	 SCS Total Energy          =    -310.6040805264365190 [Eh]
	-----------------------------------------------------------

  Dipole Moment: [D]
     X:    -0.3662      Y:     2.1976      Z:    -1.4759     Total:     2.6724

*** Psi4 exiting successfully. Buy a developer a beer!
