                               Psi4 1.3.2 release

  ==> Input File <==

--------------------------------------------------------------------------
#psi4
#
memory 32 gb

molecule  {
0 1
  O        0.3935890    -1.1834810     0.6928250
  C       -1.1363630     0.3083220    -0.3952430
  C        0.2489750    -0.1877140    -0.0130640
  C        1.4420138     0.4715564    -0.7156144
  C       -1.6230330     1.2650800     0.7040440
  C       -2.1008890    -0.8571740    -0.5744690
  C        2.7660710     0.0938090     0.0047360
  H       -1.0562100     0.8719860    -1.3362890
  H        1.2791640     1.6640640    -0.2248860
  H        1.4031030     0.6104820    -1.6083150
  H       -0.9521060     2.1204610     0.8293460
  H       -1.6846230     0.7313890     1.6588270
  H       -2.6168740     1.6507050     0.4584890
  H       -1.7562200    -1.5424760    -1.3562160
  H       -2.1750630    -1.4236530     0.3564710
  H       -3.0946750    -0.4900390    -0.8506910
  H        2.7911150     0.1168120     1.0954440
  H        2.9171760    -0.9417660    -0.3044500
  H        3.5913670     0.6986870    -0.3779970
units angstrom
no_reorient  #important for SAPT in psi4, default
symmetry c1  #important for SAPT in psi4, default
}

set PROPERTIES_ORIGIN ["COM"]
properties('MP2/aug-cc-pvtz', properties = ['dipole'])
--------------------------------------------------------------------------

    Molecular point group: c1
  Charge       = 0
  Multiplicity = 1
  Basis Set: AUG-CC-PVTZ
    Blend: AUG-CC-PVTZ
  Basis Set: (AUG-CC-PVTZ AUX)
    Blend: AUG-CC-PVTZ-JKFIT

    Orbital Energies [Eh]
    ---------------------

    Doubly Occupied:

       1A    -20.541516     2A    -11.329784     3A    -11.246037
       4A    -11.242321     5A    -11.226608     6A    -11.221252
       7A    -11.216890     8A     -1.373940     9A     -1.090748
      10A     -1.047122    11A     -0.937201    12A     -0.908855
      13A     -0.832856    14A     -0.736012    15A     -0.682154
      16A     -0.630664    17A     -0.618977    18A     -0.596399
      19A     -0.567885    20A     -0.560023    21A     -0.545413
      22A     -0.537491    23A     -0.521255    24A     -0.503901
      25A     -0.482607    26A     -0.474058    27A     -0.441053
      28A     -0.400344

  @DF-RHF Final Energy:  -309.10934254630860

   => Energetics <=

    Nuclear Repulsion Energy =            314.4649233638248802
    One-Electron Energy =               -1042.1218056067255020
    Two-Electron Energy =                 418.5475396965919685
    Total Energy =                       -309.1093425463085964
  Basis Set: (AUG-CC-PVTZ AUX)
    Blend: AUG-CC-PVTZ-RI
    Molecular point group: c1

    Geometry (in Angstrom), charge = 0, multiplicity = 1:

       Center              X                  Y                   Z               Mass
    ------------   -----------------  -----------------  -----------------  -----------------
         O            0.392667017243    -1.166449615766     0.717472176823    15.994914619570
         C           -1.137284982757     0.325353384234    -0.370595823177    12.000000000000
         C            0.248053017243    -0.170682615766     0.011583176823    12.000000000000
         C            1.441091817243     0.488587784234    -0.690967223177    12.000000000000
         C           -1.623954982757     1.282111384234     0.728691176823    12.000000000000
         C           -2.101810982757    -0.840142615766    -0.549821823177    12.000000000000
         C            2.765149017243     0.110840384234     0.029383176823    12.000000000000
         H           -1.057131982757     0.889017384234    -1.311641823177     1.007825032230
         H            1.278242017243     1.681095384234    -0.200238823177     1.007825032230
         H            1.402181017243     0.627513384234    -1.583667823177     1.007825032230
         H           -0.953027982757     2.137492384234     0.853993176823     1.007825032230
         H           -1.685544982757     0.748420384234     1.683474176823     1.007825032230
         H           -2.617795982757     1.667736384234     0.483136176823     1.007825032230
         H           -1.757141982757    -1.525444615766    -1.331568823177     1.007825032230
         H           -2.175984982757    -1.406621615766     0.381118176823     1.007825032230
         H           -3.095596982757    -0.473007615766    -0.826043823177     1.007825032230
         H            2.790193017243     0.133843384234     1.120091176823     1.007825032230
         H            2.916254017243    -0.924734615766    -0.279802823177     1.007825032230
         H            3.590445017243     0.715718384234    -0.353349823177     1.007825032230

  Basis Set: AUG-CC-PVTZ
    Blend: AUG-CC-PVTZ
  Basis Set: (AUG-CC-PVTZ AUX)
    Blend: AUG-CC-PVTZ-JKFIT
	 Reference Energy          =    -309.1093425463085964 [Eh]
	 Singles Energy            =      -0.0000000000000000 [Eh]
	 Same-Spin Energy          =      -0.3177888736683466 [Eh]
	 Opposite-Spin Energy      =      -1.1066035349036119 [Eh]
	 Correlation Energy        =      -1.4243924085719586 [Eh]
	 Total Energy              =    -310.5337349548805719 [Eh]

	 ================> DF-SCS-MP2 Energies <==================
	-----------------------------------------------------------
	 SCS Same-Spin Scale       =       0.3333333333333333 [-]
	 SCS Opposite-Spin Scale   =       1.2000000000000000 [-]
	 SCS Same-Spin Energy      =      -0.1059296245561155 [Eh]
	 SCS Opposite-Spin Energy  =      -1.3279242418843342 [Eh]
	 SCS Correlation Energy    =      -1.4338538664404497 [Eh]
	 SCS Total Energy          =    -310.5431964127490687 [Eh]
	-----------------------------------------------------------

  Dipole Moment: [D]
     X:    -0.3294      Y:     2.0641      Z:    -1.5178     Total:     2.5832

*** Psi4 exiting successfully. Buy a developer a beer!
