                               Psi4 1.3.2 release

  ==> Input File <==

--------------------------------------------------------------------------
#psi4
#
memory 32 gb

molecule  {
0 1
  O        0.3935890    -1.1834810     0.6928250
  C       -1.1363630     0.3083220    -0.3952430
  C        0.2489750    -0.1877140    -0.0130640
  C        1.4373999     0.5567886    -0.5922685
  C       -1.6230330     1.2650800     0.7040440
  C       -2.1008890    -0.8571740    -0.5744690
  C        2.7660710     0.0938090     0.0047360
  H       -1.0562100     0.8719860    -1.3362890
  H        1.2791640     1.6640640    -0.2248860
  H        1.4031030     0.6104820    -1.6083150
  H       -0.9521060     2.1204610     0.8293460
  H       -1.6846230     0.7313890     1.6588270
  H       -2.6168740     1.6507050     0.4584890
  H       -1.7562200    -1.5424760    -1.3562160
  H       -2.1750630    -1.4236530     0.3564710
  H       -3.0946750    -0.4900390    -0.8506910
  H        2.7911150     0.1168120     1.0954440
  H        2.9171760    -0.9417660    -0.3044500
  H        3.5913670     0.6986870    -0.3779970
units angstrom
no_reorient  #important for SAPT in psi4, default
symmetry c1  #important for SAPT in psi4, default
}

set PROPERTIES_ORIGIN ["COM"]
properties('MP2/aug-cc-pvtz', properties = ['dipole'])
--------------------------------------------------------------------------

    Molecular point group: c1
  Charge       = 0
  Multiplicity = 1
  Basis Set: AUG-CC-PVTZ
    Blend: AUG-CC-PVTZ
  Basis Set: (AUG-CC-PVTZ AUX)
    Blend: AUG-CC-PVTZ-JKFIT

    Orbital Energies [Eh]
    ---------------------

    Doubly Occupied:

       1A    -20.540803     2A    -11.325549     3A    -11.242036
       4A    -11.240174     5A    -11.227930     6A    -11.216474
       7A    -11.216233     8A     -1.373158     9A     -1.090936
      10A     -1.046874    11A     -0.937521    12A     -0.907641
      13A     -0.824260    14A     -0.723857    15A     -0.674136
      16A     -0.633544    17A     -0.622286    18A     -0.602823
      19A     -0.568348    20A     -0.553656    21A     -0.544399
      22A     -0.524628    23A     -0.518682    24A     -0.503923
      25A     -0.483687    26A     -0.482088    27A     -0.465777
      28A     -0.401592

  @DF-RHF Final Energy:  -309.16623054440680

   => Energetics <=

    Nuclear Repulsion Energy =            314.8884875854386109
    One-Electron Energy =               -1043.1234068636183565
    Two-Electron Energy =                 419.0686887337729445
    Total Energy =                       -309.1662305444068011
  Basis Set: (AUG-CC-PVTZ AUX)
    Blend: AUG-CC-PVTZ-RI
    Molecular point group: c1

    Geometry (in Angstrom), charge = 0, multiplicity = 1:

       Center              X                  Y                   Z               Mass
    ------------   -----------------  -----------------  -----------------  -----------------
         O            0.393220193939    -1.176668403948     0.702683803118    15.994914619570
         C           -1.136731806061     0.315134596052    -0.385384196882    12.000000000000
         C            0.248606193939    -0.180901403948    -0.003205196882    12.000000000000
         C            1.437031093939     0.563601196052    -0.582409696882    12.000000000000
         C           -1.623401806061     1.271892596052     0.713902803118    12.000000000000
         C           -2.101257806061    -0.850361403948    -0.564610196882    12.000000000000
         C            2.765702193939     0.100621596052     0.014594803118    12.000000000000
         H           -1.056578806061     0.878798596052    -1.326430196882     1.007825032230
         H            1.278795193939     1.670876596052    -0.215027196882     1.007825032230
         H            1.402734193939     0.617294596052    -1.598456196882     1.007825032230
         H           -0.952474806061     2.127273596052     0.839204803118     1.007825032230
         H           -1.684991806061     0.738201596052     1.668685803118     1.007825032230
         H           -2.617242806061     1.657517596052     0.468347803118     1.007825032230
         H           -1.756588806061    -1.535663403948    -1.346357196882     1.007825032230
         H           -2.175431806061    -1.416840403948     0.366329803118     1.007825032230
         H           -3.095043806061    -0.483226403948    -0.840832196882     1.007825032230
         H            2.790746193939     0.123624596052     1.105302803118     1.007825032230
         H            2.916807193939    -0.934953403948    -0.294591196882     1.007825032230
         H            3.590998193939     0.705499596052    -0.368138196882     1.007825032230

  Basis Set: AUG-CC-PVTZ
    Blend: AUG-CC-PVTZ
  Basis Set: (AUG-CC-PVTZ AUX)
    Blend: AUG-CC-PVTZ-JKFIT
	 Reference Energy          =    -309.1662305444068011 [Eh]
	 Singles Energy            =      -0.0000000000000000 [Eh]
	 Same-Spin Energy          =      -0.3171439700426978 [Eh]
	 Opposite-Spin Energy      =      -1.1039842235075099 [Eh]
	 Correlation Energy        =      -1.4211281935502078 [Eh]
	 Total Energy              =    -310.5873587379570040 [Eh]

	 ================> DF-SCS-MP2 Energies <==================
	-----------------------------------------------------------
	 SCS Same-Spin Scale       =       0.3333333333333333 [-]
	 SCS Opposite-Spin Scale   =       1.2000000000000000 [-]
	 SCS Same-Spin Energy      =      -0.1057146566808993 [Eh]
	 SCS Opposite-Spin Energy  =      -1.3247810682090118 [Eh]
	 SCS Correlation Energy    =      -1.4304957248899111 [Eh]
	 SCS Total Energy          =    -310.5967262692967097 [Eh]
	-----------------------------------------------------------

  Dipole Moment: [D]
     X:    -0.3609      Y:     2.1696      Z:    -1.4933     Total:     2.6585

*** Psi4 exiting successfully. Buy a developer a beer!
