                               Psi4 1.3.2 release

  ==> Input File <==

--------------------------------------------------------------------------
#psi4
#
memory 32 gb

molecule  {
0 1
  O        0.4332560    -0.5778250     0.1734540
  O       -0.8408100     1.0912640    -0.7084360
  C        1.6346250     0.1623570    -0.1778450
  C        1.8980320     1.2173290     0.8789650
  C        2.7308080    -0.8763490    -0.2789480
  C       -1.9015140    -0.8789960     0.2349040
  C       -0.6582554    -0.0368498    -0.1341445
  C       -3.2456700    -0.1986960     0.0285890
  H        1.4602790     0.6397420    -1.1462310
  H        2.8221420     1.7571320     0.6526510
  H        1.0777360     1.9358120     0.9100720
  H        2.0019030     0.7445150     1.8590670
  H        3.6747750    -0.4011320    -0.5598750
  H        2.4805410    -1.6278800    -1.0306640
  H        2.8646540    -1.3764140     0.6835210
  H       -1.8254340    -1.7987290    -0.3567280
  H       -1.7546250    -1.1827800     1.2758720
  H       -3.3759370     0.0860600    -1.0167370
  H       -4.0604800    -0.8690500     0.3134070
  H       -3.3166340     0.7089420     0.6308410
units angstrom
no_reorient  #important for SAPT in psi4, default
symmetry c1  #important for SAPT in psi4, default
}

set PROPERTIES_ORIGIN ["COM"]
properties('MP2/aug-cc-pvtz', properties = ['dipole'])
--------------------------------------------------------------------------

    Molecular point group: c1
  Charge       = 0
  Multiplicity = 1
  Basis Set: AUG-CC-PVTZ
    Blend: AUG-CC-PVTZ
  Basis Set: (AUG-CC-PVTZ AUX)
    Blend: AUG-CC-PVTZ-JKFIT

    Orbital Energies [Eh]
    ---------------------

    Doubly Occupied:

       1A    -20.619536     2A    -20.520781     3A    -11.375800
       4A    -11.301435     5A    -11.239116     6A    -11.228600
       7A    -11.223051     8A    -11.213633     9A     -1.491407
      10A     -1.315764    11A     -1.091761    12A     -1.038891
      13A     -0.952858    14A     -0.906332    15A     -0.830710
      16A     -0.778348    17A     -0.686129    18A     -0.680177
      19A     -0.664168    20A     -0.621420    21A     -0.600294
      22A     -0.573120    23A     -0.563044    24A     -0.556815
      25A     -0.543234    26A     -0.515604    27A     -0.507082
      28A     -0.499958    29A     -0.495252    30A     -0.483893
      31A     -0.441303    32A     -0.423885

  @DF-RHF Final Energy:  -384.07699540535270

   => Energetics <=

    Nuclear Repulsion Energy =            396.9532824283670038
    One-Electron Energy =               -1310.0937570749424594
    Two-Electron Energy =                 529.0634792412228080
    Total Energy =                       -384.0769954053527044
  Basis Set: (AUG-CC-PVTZ AUX)
    Blend: AUG-CC-PVTZ-RI
    Molecular point group: c1

    Geometry (in Angstrom), charge = 0, multiplicity = 1:

       Center              X                  Y                   Z               Mass
    ------------   -----------------  -----------------  -----------------  -----------------
         O            0.424275683503    -0.573374292110     0.170923201170    15.994914619570
         O           -0.849790316497     1.095714707890    -0.710966798830    15.994914619570
         C            1.625644683503     0.166807707890    -0.180375798830    12.000000000000
         C            1.889051683503     1.221779707890     0.876434201170    12.000000000000
         C            2.721827683503    -0.871898292110    -0.281478798830    12.000000000000
         C           -1.910494316497    -0.874545292110     0.232373201170    12.000000000000
         C           -0.667235716497    -0.032399092110    -0.136675298830    12.000000000000
         C           -3.254650316497    -0.194245292110     0.026058201170    12.000000000000
         H            1.451298683503     0.644192707890    -1.148761798830     1.007825032230
         H            2.813161683503     1.761582707890     0.650120201170     1.007825032230
         H            1.068755683503     1.940262707890     0.907541201170     1.007825032230
         H            1.992922683503     0.748965707890     1.856536201170     1.007825032230
         H            3.665794683503    -0.396681292110    -0.562405798830     1.007825032230
         H            2.471560683503    -1.623429292110    -1.033194798830     1.007825032230
         H            2.855673683503    -1.371963292110     0.680990201170     1.007825032230
         H           -1.834414316497    -1.794278292110    -0.359258798830     1.007825032230
         H           -1.763605316497    -1.178329292110     1.273341201170     1.007825032230
         H           -3.384917316497     0.090510707890    -1.019267798830     1.007825032230
         H           -4.069460316497    -0.864599292110     0.310876201170     1.007825032230
         H           -3.325614316497     0.713392707890     0.628310201170     1.007825032230

  Basis Set: AUG-CC-PVTZ
    Blend: AUG-CC-PVTZ
  Basis Set: (AUG-CC-PVTZ AUX)
    Blend: AUG-CC-PVTZ-JKFIT
	 Reference Energy          =    -384.0769954053527044 [Eh]
	 Singles Energy            =      -0.0000000000000000 [Eh]
	 Same-Spin Energy          =      -0.3843106997609054 [Eh]
	 Opposite-Spin Energy      =      -1.2864437599531215 [Eh]
	 Correlation Energy        =      -1.6707544597140269 [Eh]
	 Total Energy              =    -385.7477498650667371 [Eh]

	 ================> DF-SCS-MP2 Energies <==================
	-----------------------------------------------------------
	 SCS Same-Spin Scale       =       0.3333333333333333 [-]
	 SCS Opposite-Spin Scale   =       1.2000000000000000 [-]
	 SCS Same-Spin Energy      =      -0.1281035665869685 [Eh]
	 SCS Opposite-Spin Energy  =      -1.5437325119437457 [Eh]
	 SCS Correlation Energy    =      -1.6718360785307143 [Eh]
	 SCS Total Energy          =    -385.7488314838834071 [Eh]
	-----------------------------------------------------------

  Dipole Moment: [D]
     X:     1.7243      Y:    -1.5837      Z:     0.8921     Total:     2.5054

*** Psi4 exiting successfully. Buy a developer a beer!
