                               Psi4 1.4a3.dev225

  ==> Input File <==

--------------------------------------------------------------------------
#psi4
#
memory 32 gb

molecule  {
0 1
  O        0.3891610    -0.5692390     0.2103150
  O       -0.8187590     1.0859660    -0.7901910
  C        1.6201550     0.0566620    -0.2576010
  C        1.9966600     1.1837410     0.6861130
  C        2.6439510    -1.0589150    -0.3056920
  C       -1.9560750    -0.6909180     0.4160040
  C       -0.7803917     0.0493380    -0.1237800
  C       -3.2763650    -0.0323590     0.0421060
  H        1.4292650     0.4552490    -1.2581690
  H        2.9411400     1.6393830     0.3731600
  H        1.2237650     1.9545110     0.6843630
  H        2.1165080     0.7943580     1.7011000
  H        3.6013200    -0.6740400    -0.6688000
  H        2.3119000    -1.8571380    -0.9736080
  H        2.7925020    -1.4784670     0.6929400
  H       -1.8998650    -1.7205910     0.0458690
  H       -1.8337900    -0.7582950     1.5029030
  H       -3.3906490     0.0180570    -1.0424220
  H       -4.1145290    -0.5997430     0.4548680
  H       -3.3230440     0.9880080     0.4273560
units angstrom
no_reorient  #important for SAPT in psi4, default
symmetry c1  #important for SAPT in psi4, default
}

set PROPERTIES_ORIGIN ["COM"]
properties('MP2/aug-cc-pvtz', properties = ['dipole'])
--------------------------------------------------------------------------

    Molecular point group: c1
  Charge       = 0
  Multiplicity = 1
  Basis Set: AUG-CC-PVTZ
    Blend: AUG-CC-PVTZ
  Basis Set: (AUG-CC-PVTZ AUX)
    Blend: AUG-CC-PVTZ-JKFIT

    Orbital Energies [Eh]
    ---------------------

    Doubly Occupied:

       1A    -20.593693     2A    -20.540085     3A    -11.379016
       4A    -11.289653     5A    -11.244265     6A    -11.220704
       7A    -11.220029     8A    -11.216235     9A     -1.441555
      10A     -1.341743    11A     -1.081503    12A     -1.046375
      13A     -0.943959    14A     -0.905938    15A     -0.814951
      16A     -0.758322    17A     -0.697991    18A     -0.665677
      19A     -0.653123    20A     -0.621721    21A     -0.601992
      22A     -0.570663    23A     -0.558435    24A     -0.547875
      25A     -0.535164    26A     -0.520689    27A     -0.509892
      28A     -0.506948    29A     -0.493241    30A     -0.479533
      31A     -0.449448    32A     -0.440378

  @DF-RHF Final Energy:  -384.08789336424871

   => Energetics <=

    Nuclear Repulsion Energy =            395.7325310954201427
    One-Electron Energy =               -1307.8592606156178135
    Two-Electron Energy =                 528.0388361559488430
    Total Energy =                       -384.0878933642487709
  Basis Set: (AUG-CC-PVTZ AUX)
    Blend: AUG-CC-PVTZ-RI
    Molecular point group: c1

    Geometry (in Angstrom), charge = 0, multiplicity = 1:

       Center              X                  Y                   Z               Mass
    ------------   -----------------  -----------------  -----------------  -----------------
         O            0.406623714499    -0.578776868228     0.226118506627    15.994914619570
         O           -0.801296285501     1.076428131772    -0.774387493373    15.994914619570
         C            1.637617714499     0.047124131772    -0.241797493373    12.000000000000
         C            2.014122714499     1.174203131772     0.701916506627    12.000000000000
         C            2.661413714499    -1.068452868228    -0.289888493373    12.000000000000
         C           -1.938612285501    -0.700455868228     0.431807506627    12.000000000000
         C           -0.762928985501     0.039800131772    -0.107976493373    12.000000000000
         C           -3.258902285501    -0.041896868228     0.057909506627    12.000000000000
         H            1.446727714499     0.445711131772    -1.242365493373     1.007825032230
         H            2.958602714499     1.629845131772     0.388963506627     1.007825032230
         H            1.241227714499     1.944973131772     0.700166506627     1.007825032230
         H            2.133970714499     0.784820131772     1.716903506627     1.007825032230
         H            3.618782714499    -0.683577868228    -0.652996493373     1.007825032230
         H            2.329362714499    -1.866675868228    -0.957804493373     1.007825032230
         H            2.809964714499    -1.488004868228     0.708743506627     1.007825032230
         H           -1.882402285501    -1.730128868228     0.061672506627     1.007825032230
         H           -1.816327285501    -0.767832868228     1.518706506627     1.007825032230
         H           -3.373186285501     0.008519131772    -1.026618493373     1.007825032230
         H           -4.097066285501    -0.609280868228     0.470671506627     1.007825032230
         H           -3.305581285501     0.978470131772     0.443159506627     1.007825032230

  Basis Set: AUG-CC-PVTZ
    Blend: AUG-CC-PVTZ
  Basis Set: (AUG-CC-PVTZ AUX)
    Blend: AUG-CC-PVTZ-JKFIT
	 Reference Energy          =    -384.0878933642487141 [Eh]
	 Singles Energy            =      -0.0000000000000000 [Eh]
	 Same-Spin Energy          =      -0.3844354837397334 [Eh]
	 Opposite-Spin Energy      =      -1.2871675268987088 [Eh]
	 Correlation Energy        =      -1.6716030106384423 [Eh]
	 Total Energy              =    -385.7594963748871351 [Eh]

	 ================> DF-SCS-MP2 Energies <==================
	-----------------------------------------------------------
	 SCS Same-Spin Scale       =       0.3333333333333333 [-]
	 SCS Opposite-Spin Scale   =       1.2000000000000000 [-]
	 SCS Same-Spin Energy      =      -0.1281451612465778 [Eh]
	 SCS Opposite-Spin Energy  =      -1.5446010322784505 [Eh]
	 SCS Correlation Energy    =      -1.6727461935250283 [Eh]
	 SCS Total Energy          =    -385.7606395577737430 [Eh]
	-----------------------------------------------------------

  Dipole Moment: [D]
     X:     0.6716      Y:    -1.3169      Z:     0.8503     Total:     1.7053

*** Psi4 exiting successfully. Buy a developer a beer!
