                               Psi4 1.3.2 release

  ==> Input File <==

--------------------------------------------------------------------------
#psi4
#
memory 32 gb

molecule  {
0 1
  O        0.4332560    -0.5778250     0.1734540
  O       -0.8408100     1.0912640    -0.7084360
  C        1.6346250     0.1623570    -0.1778450
  C        1.8980320     1.2173290     0.8789650
  C        2.7308080    -0.8763490    -0.2789480
  C       -1.9015140    -0.8789960     0.2349040
  C       -0.7367348    -0.0033647    -0.1552707
  C       -3.2517996    -0.2095752     0.0330776
  H        1.4602790     0.6397420    -1.1462310
  H        2.8221420     1.7571320     0.6526510
  H        1.0777360     1.9358120     0.9100720
  H        2.0019030     0.7445150     1.8590670
  H        3.6747750    -0.4011320    -0.5598750
  H        2.4805410    -1.6278800    -1.0306640
  H        2.8646540    -1.3764140     0.6835210
  H       -1.8254340    -1.7987290    -0.3567280
  H       -1.7546250    -1.1827800     1.2758720
  H       -3.3759370     0.0860600    -1.0167370
  H       -4.0604800    -0.8690500     0.3134070
  H       -3.3166340     0.7089420     0.6308410
units angstrom
no_reorient  #important for SAPT in psi4, default
symmetry c1  #important for SAPT in psi4, default
}

set PROPERTIES_ORIGIN ["COM"]
properties('MP2/aug-cc-pvtz', properties = ['dipole'])
--------------------------------------------------------------------------

    Molecular point group: c1
  Charge       = 0
  Multiplicity = 1
  Basis Set: AUG-CC-PVTZ
    Blend: AUG-CC-PVTZ
  Basis Set: (AUG-CC-PVTZ AUX)
    Blend: AUG-CC-PVTZ-JKFIT

    Orbital Energies [Eh]
    ---------------------

    Doubly Occupied:

       1A    -20.598433     2A    -20.537921     3A    -11.377523
       4A    -11.291173     5A    -11.242358     6A    -11.221726
       7A    -11.218255     8A    -11.217032     9A     -1.450593
      10A     -1.344899    11A     -1.081675    12A     -1.045021
      13A     -0.945742    14A     -0.904326    15A     -0.817885
      16A     -0.762403    17A     -0.696381    18A     -0.667497
      19A     -0.656378    20A     -0.620786    21A     -0.602580
      22A     -0.572987    23A     -0.559705    24A     -0.549918
      25A     -0.537660    26A     -0.518364    27A     -0.511474
      28A     -0.505124    29A     -0.492763    30A     -0.480508
      31A     -0.450353    32A     -0.438794

  @DF-RHF Final Energy:  -384.08938054486441

   => Energetics <=

    Nuclear Repulsion Energy =            396.3178454463027265
    One-Electron Energy =               -1308.9779805819775902
    Two-Electron Energy =                 528.5707545908104521
    Total Energy =                       -384.0893805448644116
  Basis Set: (AUG-CC-PVTZ AUX)
    Blend: AUG-CC-PVTZ-RI
    Molecular point group: c1

    Geometry (in Angstrom), charge = 0, multiplicity = 1:

       Center              X                  Y                   Z               Mass
    ------------   -----------------  -----------------  -----------------  -----------------
         O            0.433022025504    -0.575711146731     0.172643090776    15.994914619570
         O           -0.841043974496     1.093377853269    -0.709246909224    15.994914619570
         C            1.634391025504     0.164470853269    -0.178655909224    12.000000000000
         C            1.897798025504     1.219442853269     0.878154090776    12.000000000000
         C            2.730574025504    -0.874235146731    -0.279758909224    12.000000000000
         C           -1.901747974496    -0.876882146731     0.234093090776    12.000000000000
         C           -0.736968774496    -0.001250846731    -0.156081609224    12.000000000000
         C           -3.252033574496    -0.207461346731     0.032266690776    12.000000000000
         H            1.460045025504     0.641855853269    -1.147041909224     1.007825032230
         H            2.821908025504     1.759245853269     0.651840090776     1.007825032230
         H            1.077502025504     1.937925853269     0.909261090776     1.007825032230
         H            2.001669025504     0.746628853269     1.858256090776     1.007825032230
         H            3.674541025504    -0.399018146731    -0.560685909224     1.007825032230
         H            2.480307025504    -1.625766146731    -1.031474909224     1.007825032230
         H            2.864420025504    -1.374300146731     0.682710090776     1.007825032230
         H           -1.825667974496    -1.796615146731    -0.357538909224     1.007825032230
         H           -1.754858974496    -1.180666146731     1.275061090776     1.007825032230
         H           -3.376170974496     0.088173853269    -1.017547909224     1.007825032230
         H           -4.060713974496    -0.866936146731     0.312596090776     1.007825032230
         H           -3.316867974496     0.711055853269     0.630030090776     1.007825032230

  Basis Set: AUG-CC-PVTZ
    Blend: AUG-CC-PVTZ
  Basis Set: (AUG-CC-PVTZ AUX)
    Blend: AUG-CC-PVTZ-JKFIT
	 Reference Energy          =    -384.0893805448644116 [Eh]
	 Singles Energy            =      -0.0000000000000000 [Eh]
	 Same-Spin Energy          =      -0.3841546443036544 [Eh]
	 Opposite-Spin Energy      =      -1.2864172104645926 [Eh]
	 Correlation Energy        =      -1.6705718547682471 [Eh]
	 Total Energy              =    -385.7599523996326525 [Eh]

	 ================> DF-SCS-MP2 Energies <==================
	-----------------------------------------------------------
	 SCS Same-Spin Scale       =       0.3333333333333333 [-]
	 SCS Opposite-Spin Scale   =       1.2000000000000000 [-]
	 SCS Same-Spin Energy      =      -0.1280515481012181 [Eh]
	 SCS Opposite-Spin Energy  =      -1.5437006525575110 [Eh]
	 SCS Correlation Energy    =      -1.6717522006587291 [Eh]
	 SCS Total Energy          =    -385.7611327455231276 [Eh]
	-----------------------------------------------------------

  Dipole Moment: [D]
     X:     0.9188      Y:    -1.3715      Z:     0.7199     Total:     1.8010

*** Psi4 exiting successfully. Buy a developer a beer!
