                               Psi4 1.3.2 release

  ==> Input File <==

--------------------------------------------------------------------------
#psi4
#
memory 32 gb

molecule  {
0 1
  O        0.4332560    -0.5778250     0.1734540
  O       -0.8408100     1.0912640    -0.7084360
  C        1.6758228     0.1059158    -0.1476289
  C        1.8980320     1.2173290     0.8789650
  C        2.7308080    -0.8763490    -0.2789480
  C       -1.9015140    -0.8789960     0.2349040
  C       -0.7786368    -0.0497728    -0.1305773
  C       -3.2456700    -0.1986960     0.0285890
  H        1.4602790     0.6397420    -1.1462310
  H        2.8221420     1.7571320     0.6526510
  H        1.0777360     1.9358120     0.9100720
  H        2.0019030     0.7445150     1.8590670
  H        3.6747750    -0.4011320    -0.5598750
  H        2.4805410    -1.6278800    -1.0306640
  H        2.8646540    -1.3764140     0.6835210
  H       -1.8254340    -1.7987290    -0.3567280
  H       -1.7546250    -1.1827800     1.2758720
  H       -3.3759370     0.0860600    -1.0167370
  H       -4.0604800    -0.8690500     0.3134070
  H       -3.3166340     0.7089420     0.6308410
units angstrom
no_reorient  #important for SAPT in psi4, default
symmetry c1  #important for SAPT in psi4, default
}

set PROPERTIES_ORIGIN ["COM"]
properties('MP2/aug-cc-pvtz', properties = ['dipole'])
--------------------------------------------------------------------------

    Molecular point group: c1
  Charge       = 0
  Multiplicity = 1
  Basis Set: AUG-CC-PVTZ
    Blend: AUG-CC-PVTZ
  Basis Set: (AUG-CC-PVTZ AUX)
    Blend: AUG-CC-PVTZ-JKFIT

    Orbital Energies [Eh]
    ---------------------

    Doubly Occupied:

       1A    -20.593836     2A    -20.531508     3A    -11.383647
       4A    -11.293326     5A    -11.245762     6A    -11.222353
       7A    -11.220363     8A    -11.215948     9A     -1.436185
      10A     -1.314864    11A     -1.093873    12A     -1.057330
      13A     -0.948936    14A     -0.915953    15A     -0.818517
      16A     -0.748672    17A     -0.698290    18A     -0.664615
      19A     -0.651371    20A     -0.628086    21A     -0.602119
      22A     -0.570951    23A     -0.560736    24A     -0.547121
      25A     -0.537743    26A     -0.521082    27A     -0.517407
      28A     -0.507176    29A     -0.492067    30A     -0.460629
      31A     -0.442031    32A     -0.433035

  @DF-RHF Final Energy:  -384.06868333970334

   => Energetics <=

    Nuclear Repulsion Energy =            395.9197626407243433
    One-Electron Energy =               -1308.2258291625132642
    Two-Electron Energy =                 528.2373831820856367
    Total Energy =                       -384.0686833397032842
  Basis Set: (AUG-CC-PVTZ AUX)
    Blend: AUG-CC-PVTZ-RI
    Molecular point group: c1

    Geometry (in Angstrom), charge = 0, multiplicity = 1:

       Center              X                  Y                   Z               Mass
    ------------   -----------------  -----------------  -----------------  -----------------
         O            0.432461182049    -0.566203860881     0.167430897802    15.994914619570
         O           -0.841604817951     1.102885139119    -0.714459102198    15.994914619570
         C            1.675027982049     0.117536939119    -0.153652002198    12.000000000000
         C            1.897237182049     1.228950139119     0.872941897802    12.000000000000
         C            2.730013182049    -0.864727860881    -0.284971102198    12.000000000000
         C           -1.902308817951    -0.867374860881     0.228880897802    12.000000000000
         C           -0.779431617951    -0.038151660881    -0.136600402198    12.000000000000
         C           -3.246464817951    -0.187074860881     0.022565897802    12.000000000000
         H            1.459484182049     0.651363139119    -1.152254102198     1.007825032230
         H            2.821347182049     1.768753139119     0.646627897802     1.007825032230
         H            1.076941182049     1.947433139119     0.904048897802     1.007825032230
         H            2.001108182049     0.756136139119     1.853043897802     1.007825032230
         H            3.673980182049    -0.389510860881    -0.565898102198     1.007825032230
         H            2.479746182049    -1.616258860881    -1.036687102198     1.007825032230
         H            2.863859182049    -1.364792860881     0.677497897802     1.007825032230
         H           -1.826228817951    -1.787107860881    -0.362751102198     1.007825032230
         H           -1.755419817951    -1.171158860881     1.269848897802     1.007825032230
         H           -3.376731817951     0.097681139119    -1.022760102198     1.007825032230
         H           -4.061274817951    -0.857428860881     0.307383897802     1.007825032230
         H           -3.317428817951     0.720563139119     0.624817897802     1.007825032230

  Basis Set: AUG-CC-PVTZ
    Blend: AUG-CC-PVTZ
  Basis Set: (AUG-CC-PVTZ AUX)
    Blend: AUG-CC-PVTZ-JKFIT
	 Reference Energy          =    -384.0686833397033411 [Eh]
	 Singles Energy            =      -0.0000000000000000 [Eh]
	 Same-Spin Energy          =      -0.3863575482773011 [Eh]
	 Opposite-Spin Energy      =      -1.2899279299039366 [Eh]
	 Correlation Energy        =      -1.6762854781812377 [Eh]
	 Total Energy              =    -385.7449688178845690 [Eh]

	 ================> DF-SCS-MP2 Energies <==================
	-----------------------------------------------------------
	 SCS Same-Spin Scale       =       0.3333333333333333 [-]
	 SCS Opposite-Spin Scale   =       1.2000000000000000 [-]
	 SCS Same-Spin Energy      =      -0.1287858494257670 [Eh]
	 SCS Opposite-Spin Energy  =      -1.5479135158847239 [Eh]
	 SCS Correlation Energy    =      -1.6766993653104909 [Eh]
	 SCS Total Energy          =    -385.7453827050138102 [Eh]
	-----------------------------------------------------------

  Dipole Moment: [D]
     X:     0.7683      Y:    -1.6873      Z:     0.8354     Total:     2.0335

*** Psi4 exiting successfully. Buy a developer a beer!
