                               Psi4 1.3.2 release

  ==> Input File <==

--------------------------------------------------------------------------
#psi4
#
memory 32 gb

molecule  {
0 1
  O        0.4020733    -0.5543146     0.1081027
  O       -0.8408100     1.0912640    -0.7084360
  C        1.6346250     0.1623570    -0.1778450
  C        1.8980320     1.2173290     0.8789650
  C        2.7308080    -0.8763490    -0.2789480
  C       -1.9015140    -0.8789960     0.2349040
  C       -0.7451280     0.0062060    -0.1586260
  C       -3.2456700    -0.1986960     0.0285890
  H        1.4079592     0.6164860    -1.1465833
  H        2.8221420     1.7571320     0.6526510
  H        1.0777360     1.9358120     0.9100720
  H        2.0019030     0.7445150     1.8590670
  H        3.6747750    -0.4011320    -0.5598750
  H        2.4805410    -1.6278800    -1.0306640
  H        2.8646540    -1.3764140     0.6835210
  H       -1.8254340    -1.7987290    -0.3567280
  H       -1.7546250    -1.1827800     1.2758720
  H       -3.3759370     0.0860600    -1.0167370
  H       -4.0604800    -0.8690500     0.3134070
  H       -3.3166340     0.7089420     0.6308410
units angstrom
no_reorient  #important for SAPT in psi4, default
symmetry c1  #important for SAPT in psi4, default
}

set PROPERTIES_ORIGIN ["COM"]
properties('MP2/aug-cc-pvtz', properties = ['dipole'])
--------------------------------------------------------------------------

    Molecular point group: c1
  Charge       = 0
  Multiplicity = 1
  Basis Set: AUG-CC-PVTZ
    Blend: AUG-CC-PVTZ
  Basis Set: (AUG-CC-PVTZ AUX)
    Blend: AUG-CC-PVTZ-JKFIT

    Orbital Energies [Eh]
    ---------------------

    Doubly Occupied:

       1A    -20.594247     2A    -20.529219     3A    -11.368741
       4A    -11.293399     5A    -11.239978     6A    -11.224394
       7A    -11.219708     8A    -11.216418     9A     -1.464577
      10A     -1.344797    11A     -1.084799    12A     -1.045086
      13A     -0.947643    14A     -0.905468    15A     -0.825019
      16A     -0.759742    17A     -0.695712    18A     -0.672163
      19A     -0.658390    20A     -0.623806    21A     -0.603214
      22A     -0.572907    23A     -0.560822    24A     -0.551113
      25A     -0.539746    26A     -0.517859    27A     -0.509174
      28A     -0.506395    29A     -0.491981    30A     -0.478996
      31A     -0.448942    32A     -0.435514

  @DF-RHF Final Energy:  -384.09057017198410

   => Energetics <=

    Nuclear Repulsion Energy =            397.6112986190515244
    One-Electron Energy =               -1311.5437996402642966
    Two-Electron Energy =                 529.8419308492286746
    Total Energy =                       -384.0905701719841545
  Basis Set: (AUG-CC-PVTZ AUX)
    Blend: AUG-CC-PVTZ-RI
    Molecular point group: c1

    Geometry (in Angstrom), charge = 0, multiplicity = 1:

       Center              X                  Y                   Z               Mass
    ------------   -----------------  -----------------  -----------------  -----------------
         O            0.406824150079    -0.557352266790     0.117110309911    15.994914619570
         O           -0.836059149921     1.088226333210    -0.699428390089    15.994914619570
         C            1.639375850079     0.159319333210    -0.168837390089    12.000000000000
         C            1.902782850079     1.214291333210     0.887972609911    12.000000000000
         C            2.735558850079    -0.879386666790    -0.269940390089    12.000000000000
         C           -1.896763149921    -0.882033666790     0.243911609911    12.000000000000
         C           -0.740377149921     0.003168333210    -0.149618390089    12.000000000000
         C           -3.240919149921    -0.201733666790     0.037596609911    12.000000000000
         H            1.412710050079     0.613448333210    -1.137575690089     1.007825032230
         H            2.826892850079     1.754094333210     0.661658609911     1.007825032230
         H            1.082486850079     1.932774333210     0.919079609911     1.007825032230
         H            2.006653850079     0.741477333210     1.868074609911     1.007825032230
         H            3.679525850079    -0.404169666790    -0.550867390089     1.007825032230
         H            2.485291850079    -1.630917666790    -1.021656390089     1.007825032230
         H            2.869404850079    -1.379451666790     0.692528609911     1.007825032230
         H           -1.820683149921    -1.801766666790    -0.347720390089     1.007825032230
         H           -1.749874149921    -1.185817666790     1.284879609911     1.007825032230
         H           -3.371186149921     0.083022333210    -1.007729390089     1.007825032230
         H           -4.055729149921    -0.872087666790     0.322414609911     1.007825032230
         H           -3.311883149921     0.705904333210     0.639848609911     1.007825032230

  Basis Set: AUG-CC-PVTZ
    Blend: AUG-CC-PVTZ
  Basis Set: (AUG-CC-PVTZ AUX)
    Blend: AUG-CC-PVTZ-JKFIT
	 Reference Energy          =    -384.0905701719840977 [Eh]
	 Singles Energy            =      -0.0000000000000000 [Eh]
	 Same-Spin Energy          =      -0.3833014578731913 [Eh]
	 Opposite-Spin Energy      =      -1.2839246164235194 [Eh]
	 Correlation Energy        =      -1.6672260742967107 [Eh]
	 Total Energy              =    -385.7577962462808046 [Eh]

	 ================> DF-SCS-MP2 Energies <==================
	-----------------------------------------------------------
	 SCS Same-Spin Scale       =       0.3333333333333333 [-]
	 SCS Opposite-Spin Scale   =       1.2000000000000000 [-]
	 SCS Same-Spin Energy      =      -0.1277671526243971 [Eh]
	 SCS Opposite-Spin Energy  =      -1.5407095397082233 [Eh]
	 SCS Correlation Energy    =      -1.6684766923326204 [Eh]
	 SCS Total Energy          =    -385.7590468643167014 [Eh]
	-----------------------------------------------------------

  Dipole Moment: [D]
     X:     1.1592      Y:    -1.4378      Z:     0.8425     Total:     2.0300

*** Psi4 exiting successfully. Buy a developer a beer!
