                               Psi4 1.3.2 release

  ==> Input File <==

--------------------------------------------------------------------------
#psi4
#
memory 32 gb

molecule  {
0 1
  O        0.4332560    -0.5778250     0.1734540
  O       -0.9042899     1.0841618    -0.7076940
  C        1.6346250     0.1623570    -0.1778450
  C        1.8980320     1.2173290     0.8789650
  C        2.7308080    -0.8763490    -0.2789480
  C       -1.9505315    -0.8245741     0.2053573
  C       -0.7451280     0.0062060    -0.1586260
  C       -3.2456700    -0.1986960     0.0285890
  H        1.4602790     0.6397420    -1.1462310
  H        2.8221420     1.7571320     0.6526510
  H        1.0777360     1.9358120     0.9100720
  H        2.0019030     0.7445150     1.8590670
  H        3.6747750    -0.4011320    -0.5598750
  H        2.4805410    -1.6278800    -1.0306640
  H        2.8646540    -1.3764140     0.6835210
  H       -1.8254340    -1.7987290    -0.3567280
  H       -1.7546250    -1.1827800     1.2758720
  H       -3.3759370     0.0860600    -1.0167370
  H       -4.0604800    -0.8690500     0.3134070
  H       -3.3166340     0.7089420     0.6308410
units angstrom
no_reorient  #important for SAPT in psi4, default
symmetry c1  #important for SAPT in psi4, default
}

set PROPERTIES_ORIGIN ["COM"]
properties('MP2/aug-cc-pvtz', properties = ['dipole'])
--------------------------------------------------------------------------

    Molecular point group: c1
  Charge       = 0
  Multiplicity = 1
  Basis Set: AUG-CC-PVTZ
    Blend: AUG-CC-PVTZ
  Basis Set: (AUG-CC-PVTZ AUX)
    Blend: AUG-CC-PVTZ-JKFIT

    Orbital Energies [Eh]
    ---------------------

    Doubly Occupied:

       1A    -20.600630     2A    -20.539132     3A    -11.376782
       4A    -11.293082     5A    -11.243733     6A    -11.222760
       7A    -11.218354     8A    -11.213539     9A     -1.447730
      10A     -1.353615    11A     -1.082479    12A     -1.052789
      13A     -0.946959    14A     -0.903436    15A     -0.814430
      16A     -0.761677    17A     -0.696804    18A     -0.665899
      19A     -0.655743    20A     -0.621000    21A     -0.603393
      22A     -0.574769    23A     -0.567456    24A     -0.551863
      25A     -0.541678    26A     -0.523969    27A     -0.512781
      28A     -0.505965    29A     -0.487271    30A     -0.472116
      31A     -0.452403    32A     -0.435073

  @DF-RHF Final Energy:  -384.08120318515904

   => Energetics <=

    Nuclear Repulsion Energy =            396.4400498906734356
    One-Electron Energy =               -1309.1638883831035400
    Two-Electron Energy =                 528.6426353072711208
    Total Energy =                       -384.0812031851589836
  Basis Set: (AUG-CC-PVTZ AUX)
    Blend: AUG-CC-PVTZ-RI
    Molecular point group: c1

    Geometry (in Angstrom), charge = 0, multiplicity = 1:

       Center              X                  Y                   Z               Mass
    ------------   -----------------  -----------------  -----------------  -----------------
         O            0.447069892382    -0.582472322650     0.176406055446    15.994914619570
         O           -0.890476007618     1.079514477350    -0.704741944554    15.994914619570
         C            1.648438892382     0.157709677350    -0.174892944554    12.000000000000
         C            1.911845892382     1.212681677350     0.881917055446    12.000000000000
         C            2.744621892382    -0.880996322650    -0.275995944554    12.000000000000
         C           -1.936717607618    -0.829221422650     0.208309355446    12.000000000000
         C           -0.731314107618     0.001558677350    -0.155673944554    12.000000000000
         C           -3.231856107618    -0.203343322650     0.031541055446    12.000000000000
         H            1.474092892382     0.635094677350    -1.143278944554     1.007825032230
         H            2.835955892382     1.752484677350     0.655603055446     1.007825032230
         H            1.091549892382     1.931164677350     0.913024055446     1.007825032230
         H            2.015716892382     0.739867677350     1.862019055446     1.007825032230
         H            3.688588892382    -0.405779322650    -0.556922944554     1.007825032230
         H            2.494354892382    -1.632527322650    -1.027711944554     1.007825032230
         H            2.878467892382    -1.381061322650     0.686473055446     1.007825032230
         H           -1.811620107618    -1.803376322650    -0.353775944554     1.007825032230
         H           -1.740811107618    -1.187427322650     1.278824055446     1.007825032230
         H           -3.362123107618     0.081412677350    -1.013784944554     1.007825032230
         H           -4.046666107618    -0.873697322650     0.316359055446     1.007825032230
         H           -3.302820107618     0.704294677350     0.633793055446     1.007825032230

  Basis Set: AUG-CC-PVTZ
    Blend: AUG-CC-PVTZ
  Basis Set: (AUG-CC-PVTZ AUX)
    Blend: AUG-CC-PVTZ-JKFIT
	 Reference Energy          =    -384.0812031851590405 [Eh]
	 Singles Energy            =      -0.0000000000000000 [Eh]
	 Same-Spin Energy          =      -0.3846352987679504 [Eh]
	 Opposite-Spin Energy      =      -1.2869701106336018 [Eh]
	 Correlation Energy        =      -1.6716054094015522 [Eh]
	 Total Energy              =    -385.7528085945605767 [Eh]

	 ================> DF-SCS-MP2 Energies <==================
	-----------------------------------------------------------
	 SCS Same-Spin Scale       =       0.3333333333333333 [-]
	 SCS Opposite-Spin Scale   =       1.2000000000000000 [-]
	 SCS Same-Spin Energy      =      -0.1282117662559835 [Eh]
	 SCS Opposite-Spin Energy  =      -1.5443641327603221 [Eh]
	 SCS Correlation Energy    =      -1.6725758990163055 [Eh]
	 SCS Total Energy          =    -385.7537790841753349 [Eh]
	-----------------------------------------------------------

  Dipole Moment: [D]
     X:     1.0013      Y:    -1.2650      Z:     0.6735     Total:     1.7482

*** Psi4 exiting successfully. Buy a developer a beer!
