                               Psi4 1.4a3.dev225

  ==> Input File <==

--------------------------------------------------------------------------
#psi4
#
memory 32 gb

molecule  {
0 1
  O        0.3891610    -0.5692390     0.2103150
  O       -0.8187590     1.0859660    -0.7901910
  C        1.6201550     0.0566620    -0.2576010
  C        1.9966600     1.1837410     0.6861130
  C        2.6439510    -1.0589150    -0.3056920
  C       -1.9560750    -0.6909180     0.4160040
  C       -0.7221188     0.0361210    -0.1184505
  C       -3.2763650    -0.0323590     0.0421060
  H        1.4292650     0.4552490    -1.2581690
  H        2.9411400     1.6393830     0.3731600
  H        1.2237650     1.9545110     0.6843630
  H        2.1165080     0.7943580     1.7011000
  H        3.6013200    -0.6740400    -0.6688000
  H        2.3119000    -1.8571380    -0.9736080
  H        2.7925020    -1.4784670     0.6929400
  H       -1.8998650    -1.7205910     0.0458690
  H       -1.8337900    -0.7582950     1.5029030
  H       -3.3906490     0.0180570    -1.0424220
  H       -4.1145290    -0.5997430     0.4548680
  H       -3.3230440     0.9880080     0.4273560
units angstrom
no_reorient  #important for SAPT in psi4, default
symmetry c1  #important for SAPT in psi4, default
}

set PROPERTIES_ORIGIN ["COM"]
properties('MP2/aug-cc-pvtz', properties = ['dipole'])
--------------------------------------------------------------------------

    Molecular point group: c1
  Charge       = 0
  Multiplicity = 1
  Basis Set: AUG-CC-PVTZ
    Blend: AUG-CC-PVTZ
  Basis Set: (AUG-CC-PVTZ AUX)
    Blend: AUG-CC-PVTZ-JKFIT

    Orbital Energies [Eh]
    ---------------------

    Doubly Occupied:

       1A    -20.607424     2A    -20.531052     3A    -11.376830
       4A    -11.296186     5A    -11.241140     6A    -11.225147
       7A    -11.220415     8A    -11.216135     9A     -1.463926
      10A     -1.334712    11A     -1.084179    12A     -1.041984
      13A     -0.948739    14A     -0.903482    15A     -0.822857
      16A     -0.768631    17A     -0.690353    18A     -0.672928
      19A     -0.657121    20A     -0.621330    21A     -0.600588
      22A     -0.573617    23A     -0.561071    24A     -0.552660
      25A     -0.538669    26A     -0.516502    27A     -0.508556
      28A     -0.505095    29A     -0.493115    30A     -0.482875
      31A     -0.448320    32A     -0.433253

  @DF-RHF Final Energy:  -384.08662754984186

   => Energetics <=

    Nuclear Repulsion Energy =            396.1563636153802008
    One-Electron Energy =               -1308.6082033703771685
    Two-Electron Energy =                 528.3652122051551032
    Total Energy =                       -384.0866275498418645
  Basis Set: (AUG-CC-PVTZ AUX)
    Blend: AUG-CC-PVTZ-RI
    Molecular point group: c1

    Geometry (in Angstrom), charge = 0, multiplicity = 1:

       Center              X                  Y                   Z               Mass
    ------------   -----------------  -----------------  -----------------  -----------------
         O            0.400599831547    -0.577410578564     0.225567576706    15.994914619570
         O           -0.807320168453     1.077794421436    -0.774938423294    15.994914619570
         C            1.631593831547     0.048490421436    -0.242348423294    12.000000000000
         C            2.008098831547     1.175569421436     0.701365576706    12.000000000000
         C            2.655389831547    -1.067086578564    -0.290439423294    12.000000000000
         C           -1.944636168453    -0.699089578564     0.431256576706    12.000000000000
         C           -0.710679968453     0.027949421436    -0.103197923294    12.000000000000
         C           -3.264926168453    -0.040530578564     0.057358576706    12.000000000000
         H            1.440703831547     0.447077421436    -1.242916423294     1.007825032230
         H            2.952578831547     1.631211421436     0.388412576706     1.007825032230
         H            1.235203831547     1.946339421436     0.699615576706     1.007825032230
         H            2.127946831547     0.786186421436     1.716352576706     1.007825032230
         H            3.612758831547    -0.682211578564    -0.653547423294     1.007825032230
         H            2.323338831547    -1.865309578564    -0.958355423294     1.007825032230
         H            2.803940831547    -1.486638578564     0.708192576706     1.007825032230
         H           -1.888426168453    -1.728762578564     0.061121576706     1.007825032230
         H           -1.822351168453    -0.766466578564     1.518155576706     1.007825032230
         H           -3.379210168453     0.009885421436    -1.027169423294     1.007825032230
         H           -4.103090168453    -0.607914578564     0.470120576706     1.007825032230
         H           -3.311605168453     0.979836421436     0.442608576706     1.007825032230

  Basis Set: AUG-CC-PVTZ
    Blend: AUG-CC-PVTZ
  Basis Set: (AUG-CC-PVTZ AUX)
    Blend: AUG-CC-PVTZ-JKFIT
	 Reference Energy          =    -384.0866275498418645 [Eh]
	 Singles Energy            =      -0.0000000000000000 [Eh]
	 Same-Spin Energy          =      -0.3841140987469494 [Eh]
	 Opposite-Spin Energy      =      -1.2864381336412261 [Eh]
	 Correlation Energy        =      -1.6705522323881754 [Eh]
	 Total Energy              =    -385.7571797822300255 [Eh]

	 ================> DF-SCS-MP2 Energies <==================
	-----------------------------------------------------------
	 SCS Same-Spin Scale       =       0.3333333333333333 [-]
	 SCS Opposite-Spin Scale   =       1.2000000000000000 [-]
	 SCS Same-Spin Energy      =      -0.1280380329156498 [Eh]
	 SCS Opposite-Spin Energy  =      -1.5437257603694712 [Eh]
	 SCS Correlation Energy    =      -1.6717637932851210 [Eh]
	 SCS Total Energy          =    -385.7583913431269593 [Eh]
	-----------------------------------------------------------

  Dipole Moment: [D]
     X:     1.2347      Y:    -1.4191      Z:     0.9122     Total:     2.0906

*** Psi4 exiting successfully. Buy a developer a beer!
