                               Psi4 1.4a3.dev225

  ==> Input File <==

--------------------------------------------------------------------------
#psi4
#
memory 32 gb

molecule  {
0 1
  O        0.3891610    -0.5692390     0.2103150
  O       -0.8187590     1.0859660    -0.7901910
  C        1.6201550     0.0566620    -0.2576010
  C        1.9966600     1.1837410     0.6861130
  C        2.6439510    -1.0589150    -0.3056920
  C       -1.9560750    -0.6909180     0.4160040
  C       -0.7637293     0.0424576    -0.1202283
  C       -3.2763650    -0.0323590     0.0421060
  H        1.4292650     0.4552490    -1.2581690
  H        2.9411400     1.6393830     0.3731600
  H        1.2237650     1.9545110     0.6843630
  H        2.1165080     0.7943580     1.7011000
  H        3.6013200    -0.6740400    -0.6688000
  H        2.3119000    -1.8571380    -0.9736080
  H        2.7925020    -1.4784670     0.6929400
  H       -1.8998650    -1.7205910     0.0458690
  H       -1.8337900    -0.7582950     1.5029030
  H       -3.3906490     0.0180570    -1.0424220
  H       -4.1145290    -0.5997430     0.4548680
  H       -3.3230440     0.9880080     0.4273560
units angstrom
no_reorient  #important for SAPT in psi4, default
symmetry c1  #important for SAPT in psi4, default
}

set PROPERTIES_ORIGIN ["COM"]
properties('MP2/aug-cc-pvtz', properties = ['dipole'])
--------------------------------------------------------------------------

    Molecular point group: c1
  Charge       = 0
  Multiplicity = 1
  Basis Set: AUG-CC-PVTZ
    Blend: AUG-CC-PVTZ
  Basis Set: (AUG-CC-PVTZ AUX)
    Blend: AUG-CC-PVTZ-JKFIT

    Orbital Energies [Eh]
    ---------------------

    Doubly Occupied:

       1A    -20.598153     2A    -20.536777     3A    -11.378588
       4A    -11.291754     5A    -11.243473     6A    -11.222110
       7A    -11.218981     8A    -11.217486     9A     -1.447134
      10A     -1.338510    11A     -1.082071    12A     -1.045928
      13A     -0.945415    14A     -0.905563    15A     -0.817804
      16A     -0.761188    17A     -0.695669    18A     -0.667385
      19A     -0.653667    20A     -0.621941    21A     -0.601480
      22A     -0.571377    23A     -0.559307    24A     -0.549325
      25A     -0.535917    26A     -0.519232    27A     -0.509771
      28A     -0.506712    29A     -0.492554    30A     -0.480502
      31A     -0.448835    32A     -0.438953

  @DF-RHF Final Energy:  -384.08794350287121

   => Energetics <=

    Nuclear Repulsion Energy =            395.8356001420295343
    One-Electron Energy =               -1308.0399636719307637
    Two-Electron Energy =                 528.1164200270300171
    Total Energy =                       -384.0879435028712123
  Basis Set: (AUG-CC-PVTZ AUX)
    Blend: AUG-CC-PVTZ-RI
    Molecular point group: c1

    Geometry (in Angstrom), charge = 0, multiplicity = 1:

       Center              X                  Y                   Z               Mass
    ------------   -----------------  -----------------  -----------------  -----------------
         O            0.404901261227    -0.578065616098     0.225751354399    15.994914619570
         O           -0.803018738773     1.077139383902    -0.774754645601    15.994914619570
         C            1.635895261227     0.047835383902    -0.242164645601    12.000000000000
         C            2.012400261227     1.174914383902     0.701549354399    12.000000000000
         C            2.659691261227    -1.067741616098    -0.290255645601    12.000000000000
         C           -1.940334738773    -0.699744616098     0.431440354399    12.000000000000
         C           -0.747989038773     0.033630983902    -0.104791945601    12.000000000000
         C           -3.260624738773    -0.041185616098     0.057542354399    12.000000000000
         H            1.445005261227     0.446422383902    -1.242732645601     1.007825032230
         H            2.956880261227     1.630556383902     0.388596354399     1.007825032230
         H            1.239505261227     1.945684383902     0.699799354399     1.007825032230
         H            2.132248261227     0.785531383902     1.716536354399     1.007825032230
         H            3.617060261227    -0.682866616098    -0.653363645601     1.007825032230
         H            2.327640261227    -1.865964616098    -0.958171645601     1.007825032230
         H            2.808242261227    -1.487293616098     0.708376354399     1.007825032230
         H           -1.884124738773    -1.729417616098     0.061305354399     1.007825032230
         H           -1.818049738773    -0.767121616098     1.518339354399     1.007825032230
         H           -3.374908738773     0.009230383902    -1.026985645601     1.007825032230
         H           -4.098788738773    -0.608569616098     0.470304354399     1.007825032230
         H           -3.307303738773     0.979181383902     0.442792354399     1.007825032230

  Basis Set: AUG-CC-PVTZ
    Blend: AUG-CC-PVTZ
  Basis Set: (AUG-CC-PVTZ AUX)
    Blend: AUG-CC-PVTZ-JKFIT
	 Reference Energy          =    -384.0879435028712123 [Eh]
	 Singles Energy            =      -0.0000000000000000 [Eh]
	 Same-Spin Energy          =      -0.3843815379917845 [Eh]
	 Opposite-Spin Energy      =      -1.2870183060629652 [Eh]
	 Correlation Energy        =      -1.6713998440547497 [Eh]
	 Total Energy              =    -385.7593433469259594 [Eh]

	 ================> DF-SCS-MP2 Energies <==================
	-----------------------------------------------------------
	 SCS Same-Spin Scale       =       0.3333333333333333 [-]
	 SCS Opposite-Spin Scale   =       1.2000000000000000 [-]
	 SCS Same-Spin Energy      =      -0.1281271793305948 [Eh]
	 SCS Opposite-Spin Energy  =      -1.5444219672755581 [Eh]
	 SCS Correlation Energy    =      -1.6725491466061531 [Eh]
	 SCS Total Energy          =    -385.7604926494773849 [Eh]
	-----------------------------------------------------------

  Dipole Moment: [D]
     X:     0.8431      Y:    -1.3632      Z:     0.8791     Total:     1.8281

*** Psi4 exiting successfully. Buy a developer a beer!
