                               Psi4 1.3.2 release

  ==> Input File <==

--------------------------------------------------------------------------
#psi4
#
memory 32 gb

molecule  {
0 1
  O        0.4390606    -0.5684889     0.1690650
  O       -0.8408100     1.0912640    -0.7084360
  C        1.6346250     0.1623570    -0.1778450
  C        1.8980320     1.2173290     0.8789650
  C        2.7308080    -0.8763490    -0.2789480
  C       -1.9099122    -0.8700322     0.2301687
  C       -0.7451280     0.0062060    -0.1586260
  C       -3.2456700    -0.1986960     0.0285890
  H        1.4602790     0.6397420    -1.1462310
  H        2.8221420     1.7571320     0.6526510
  H        1.0777360     1.9358120     0.9100720
  H        2.0019030     0.7445150     1.8590670
  H        3.6747750    -0.4011320    -0.5598750
  H        2.4805410    -1.6278800    -1.0306640
  H        2.8646540    -1.3764140     0.6835210
  H       -1.8254340    -1.7987290    -0.3567280
  H       -1.7546250    -1.1827800     1.2758720
  H       -3.3759370     0.0860600    -1.0167370
  H       -4.0604800    -0.8690500     0.3134070
  H       -3.3166340     0.7089420     0.6308410
units angstrom
no_reorient  #important for SAPT in psi4, default
symmetry c1  #important for SAPT in psi4, default
}

set PROPERTIES_ORIGIN ["COM"]
properties('MP2/aug-cc-pvtz', properties = ['dipole'])
--------------------------------------------------------------------------

    Molecular point group: c1
  Charge       = 0
  Multiplicity = 1
  Basis Set: AUG-CC-PVTZ
    Blend: AUG-CC-PVTZ
  Basis Set: (AUG-CC-PVTZ AUX)
    Blend: AUG-CC-PVTZ-JKFIT

    Orbital Energies [Eh]
    ---------------------

    Doubly Occupied:

       1A    -20.595028     2A    -20.540230     3A    -11.377289
       4A    -11.288648     5A    -11.244143     6A    -11.220409
       7A    -11.218674     8A    -11.215665     9A     -1.449584
      10A     -1.350333    11A     -1.080851    12A     -1.046392
      13A     -0.944570    14A     -0.904446    15A     -0.816864
      16A     -0.760582    17A     -0.698662    18A     -0.666982
      19A     -0.656437    20A     -0.620924    21A     -0.603689
      22A     -0.572548    23A     -0.558996    24A     -0.548626
      25A     -0.537528    26A     -0.520930    27A     -0.512504
      28A     -0.506223    29A     -0.492703    30A     -0.479238
      31A     -0.450157    32A     -0.439330

  @DF-RHF Final Energy:  -384.09028121403065

   => Energetics <=

    Nuclear Repulsion Energy =            396.6294522389636654
    One-Electron Energy =               -1309.6010935556355435
    Two-Electron Energy =                 528.8813601026411106
    Total Energy =                       -384.0902812140307105
  Basis Set: (AUG-CC-PVTZ AUX)
    Blend: AUG-CC-PVTZ-RI
    Molecular point group: c1

    Geometry (in Angstrom), charge = 0, multiplicity = 1:

       Center              X                  Y                   Z               Mass
    ------------   -----------------  -----------------  -----------------  -----------------
         O            0.439128972083    -0.570702048663     0.170159199106    15.994914619570
         O           -0.840741627917     1.089050851337    -0.707341800894    15.994914619570
         C            1.634693372083     0.160143851337    -0.176750800894    12.000000000000
         C            1.898100372083     1.215115851337     0.880059199106    12.000000000000
         C            2.730876372083    -0.878562148663    -0.277853800894    12.000000000000
         C           -1.909843827917    -0.872245348663     0.231262899106    12.000000000000
         C           -0.745059627917     0.003992851337    -0.157531800894    12.000000000000
         C           -3.245601627917    -0.200909148663     0.029683199106    12.000000000000
         H            1.460347372083     0.637528851337    -1.145136800894     1.007825032230
         H            2.822210372083     1.754918851337     0.653745199106     1.007825032230
         H            1.077804372083     1.933598851337     0.911166199106     1.007825032230
         H            2.001971372083     0.742301851337     1.860161199106     1.007825032230
         H            3.674843372083    -0.403345148663    -0.558780800894     1.007825032230
         H            2.480609372083    -1.630093148663    -1.029569800894     1.007825032230
         H            2.864722372083    -1.378627148663     0.684615199106     1.007825032230
         H           -1.825365627917    -1.800942148663    -0.355633800894     1.007825032230
         H           -1.754556627917    -1.184993148663     1.276966199106     1.007825032230
         H           -3.375868627917     0.083846851337    -1.015642800894     1.007825032230
         H           -4.060411627917    -0.871263148663     0.314501199106     1.007825032230
         H           -3.316565627917     0.706728851337     0.631935199106     1.007825032230

  Basis Set: AUG-CC-PVTZ
    Blend: AUG-CC-PVTZ
  Basis Set: (AUG-CC-PVTZ AUX)
    Blend: AUG-CC-PVTZ-JKFIT
	 Reference Energy          =    -384.0902812140306537 [Eh]
	 Singles Energy            =      -0.0000000000000000 [Eh]
	 Same-Spin Energy          =      -0.3840418421879344 [Eh]
	 Opposite-Spin Energy      =      -1.2859927254788603 [Eh]
	 Correlation Energy        =      -1.6700345676667947 [Eh]
	 Total Energy              =    -385.7603157816974431 [Eh]

	 ================> DF-SCS-MP2 Energies <==================
	-----------------------------------------------------------
	 SCS Same-Spin Scale       =       0.3333333333333333 [-]
	 SCS Opposite-Spin Scale   =       1.2000000000000000 [-]
	 SCS Same-Spin Energy      =      -0.1280139473959781 [Eh]
	 SCS Opposite-Spin Energy  =      -1.5431912705746325 [Eh]
	 SCS Correlation Energy    =      -1.6712052179706105 [Eh]
	 SCS Total Energy          =    -385.7614864320012771 [Eh]
	-----------------------------------------------------------

  Dipole Moment: [D]
     X:     0.7643      Y:    -1.3405      Z:     0.6927     Total:     1.6914

*** Psi4 exiting successfully. Buy a developer a beer!
