                               Psi4 1.3.2 release

  ==> Input File <==

--------------------------------------------------------------------------
#psi4
#
memory 32 gb

molecule  {
0 1
  O        0.4332560    -0.5778250     0.1734540
  O       -0.8408100     1.0912640    -0.7084360
  C        1.6346250     0.1623570    -0.1778450
  C        1.8980320     1.2173290     0.8789650
  C        2.7308080    -0.8763490    -0.2789480
  C       -1.9015140    -0.8789960     0.2349040
  C       -0.6961120    -0.0522037    -0.1380540
  C       -3.2808962    -0.2647194     0.0557442
  H        1.4602790     0.6397420    -1.1462310
  H        2.8221420     1.7571320     0.6526510
  H        1.0777360     1.9358120     0.9100720
  H        2.0019030     0.7445150     1.8590670
  H        3.6747750    -0.4011320    -0.5598750
  H        2.4805410    -1.6278800    -1.0306640
  H        2.8646540    -1.3764140     0.6835210
  H       -1.8254340    -1.7987290    -0.3567280
  H       -1.7546250    -1.1827800     1.2758720
  H       -3.3759370     0.0860600    -1.0167370
  H       -4.0604800    -0.8690500     0.3134070
  H       -3.3166340     0.7089420     0.6308410
units angstrom
no_reorient  #important for SAPT in psi4, default
symmetry c1  #important for SAPT in psi4, default
}

set PROPERTIES_ORIGIN ["COM"]
properties('MP2/aug-cc-pvtz', properties = ['dipole'])
--------------------------------------------------------------------------

    Molecular point group: c1
  Charge       = 0
  Multiplicity = 1
  Basis Set: AUG-CC-PVTZ
    Blend: AUG-CC-PVTZ
  Basis Set: (AUG-CC-PVTZ AUX)
    Blend: AUG-CC-PVTZ-JKFIT

    Orbital Energies [Eh]
    ---------------------

    Doubly Occupied:

       1A    -20.613976     2A    -20.523371     3A    -11.380155
       4A    -11.298857     5A    -11.242157     6A    -11.226596
       7A    -11.220734     8A    -11.217760     9A     -1.475379
      10A     -1.312214    11A     -1.089834    12A     -1.045717
      13A     -0.950326    14A     -0.911175    15A     -0.830099
      16A     -0.772023    17A     -0.688603    18A     -0.676001
      19A     -0.659533    20A     -0.621269    21A     -0.599699
      22A     -0.577824    23A     -0.569677    24A     -0.554933
      25A     -0.542160    26A     -0.516454    27A     -0.506721
      28A     -0.500106    29A     -0.490322    30A     -0.475570
      31A     -0.439710    32A     -0.430018

  @DF-RHF Final Energy:  -384.07137648885913

   => Energetics <=

    Nuclear Repulsion Energy =            396.1100379117979173
    One-Electron Energy =               -1308.4448809564423755
    Two-Electron Energy =                 528.2634665557852713
    Total Energy =                       -384.0713764888591868
  Basis Set: (AUG-CC-PVTZ AUX)
    Blend: AUG-CC-PVTZ-RI
    Molecular point group: c1

    Geometry (in Angstrom), charge = 0, multiplicity = 1:

       Center              X                  Y                   Z               Mass
    ------------   -----------------  -----------------  -----------------  -----------------
         O            0.431830520024    -0.564962022766     0.168520208082    15.994914619570
         O           -0.842235479976     1.104126977234    -0.713369791918    15.994914619570
         C            1.633199520024     0.175219977234    -0.182778791918    12.000000000000
         C            1.896606520024     1.230191977234     0.874031208082    12.000000000000
         C            2.729382520024    -0.863486022766    -0.283881791918    12.000000000000
         C           -1.902939479976    -0.866133022766     0.229970208082    12.000000000000
         C           -0.697537479976    -0.039340722766    -0.142987791918    12.000000000000
         C           -3.282321679976    -0.251856422766     0.050810408082    12.000000000000
         H            1.458853520024     0.652604977234    -1.151164791918     1.007825032230
         H            2.820716520024     1.769994977234     0.647717208082     1.007825032230
         H            1.076310520024     1.948674977234     0.905138208082     1.007825032230
         H            2.000477520024     0.757377977234     1.854133208082     1.007825032230
         H            3.673349520024    -0.388269022766    -0.564808791918     1.007825032230
         H            2.479115520024    -1.615017022766    -1.035597791918     1.007825032230
         H            2.863228520024    -1.363551022766     0.678587208082     1.007825032230
         H           -1.826859479976    -1.785866022766    -0.361661791918     1.007825032230
         H           -1.756050479976    -1.169917022766     1.270938208082     1.007825032230
         H           -3.377362479976     0.098922977234    -1.021670791918     1.007825032230
         H           -4.061905479976    -0.856187022766     0.308473208082     1.007825032230
         H           -3.318059479976     0.721804977234     0.625907208082     1.007825032230

  Basis Set: AUG-CC-PVTZ
    Blend: AUG-CC-PVTZ
  Basis Set: (AUG-CC-PVTZ AUX)
    Blend: AUG-CC-PVTZ-JKFIT
	 Reference Energy          =    -384.0713764888591299 [Eh]
	 Singles Energy            =      -0.0000000000000000 [Eh]
	 Same-Spin Energy          =      -0.3848606101383829 [Eh]
	 Opposite-Spin Energy      =      -1.2876235054658061 [Eh]
	 Correlation Energy        =      -1.6724841156041890 [Eh]
	 Total Energy              =    -385.7438606044632934 [Eh]

	 ================> DF-SCS-MP2 Energies <==================
	-----------------------------------------------------------
	 SCS Same-Spin Scale       =       0.3333333333333333 [-]
	 SCS Opposite-Spin Scale   =       1.2000000000000000 [-]
	 SCS Same-Spin Energy      =      -0.1282868700461276 [Eh]
	 SCS Opposite-Spin Energy  =      -1.5451482065589672 [Eh]
	 SCS Correlation Energy    =      -1.6734350766050949 [Eh]
	 SCS Total Energy          =    -385.7448115654642038 [Eh]
	-----------------------------------------------------------

  Dipole Moment: [D]
     X:     1.4190      Y:    -1.6480      Z:     0.8917     Total:     2.3504

*** Psi4 exiting successfully. Buy a developer a beer!
