                               Psi4 1.3.2 release

  ==> Input File <==

--------------------------------------------------------------------------
#psi4
#
memory 32 gb

molecule  {
0 1
  O        0.4447821    -0.5592118     0.1644448
  O       -0.8195750     1.0928641    -0.7085612
  C        1.6346250     0.1623570    -0.1778450
  C        1.8980320     1.2173290     0.8789650
  C        2.7308080    -0.8763490    -0.2789480
  C       -1.9015140    -0.8789960     0.2349040
  C       -0.7451280     0.0062060    -0.1586260
  C       -3.2456700    -0.1986960     0.0285890
  H        1.4602790     0.6397420    -1.1462310
  H        2.8221420     1.7571320     0.6526510
  H        1.0777360     1.9358120     0.9100720
  H        2.0019030     0.7445150     1.8590670
  H        3.6747750    -0.4011320    -0.5598750
  H        2.4805410    -1.6278800    -1.0306640
  H        2.8646540    -1.3764140     0.6835210
  H       -1.8254340    -1.7987290    -0.3567280
  H       -1.7546250    -1.1827800     1.2758720
  H       -3.3759370     0.0860600    -1.0167370
  H       -4.0604800    -0.8690500     0.3134070
  H       -3.3166340     0.7089420     0.6308410
units angstrom
no_reorient  #important for SAPT in psi4, default
symmetry c1  #important for SAPT in psi4, default
}

set PROPERTIES_ORIGIN ["COM"]
properties('MP2/aug-cc-pvtz', properties = ['dipole'])
--------------------------------------------------------------------------

    Molecular point group: c1
  Charge       = 0
  Multiplicity = 1
  Basis Set: AUG-CC-PVTZ
    Blend: AUG-CC-PVTZ
  Basis Set: (AUG-CC-PVTZ AUX)
    Blend: AUG-CC-PVTZ-JKFIT

    Orbital Energies [Eh]
    ---------------------

    Doubly Occupied:

       1A    -20.592959     2A    -20.540209     3A    -11.377813
       4A    -11.286508     5A    -11.245525     6A    -11.220448
       7A    -11.219390     8A    -11.214361     9A     -1.451487
      10A     -1.349650    11A     -1.080828    12A     -1.045521
      13A     -0.943612    14A     -0.905574    15A     -0.818645
      16A     -0.760051    17A     -0.699671    18A     -0.667828
      19A     -0.656847    20A     -0.621301    21A     -0.604270
      22A     -0.571573    23A     -0.557915    24A     -0.547371
      25A     -0.536547    26A     -0.521599    27A     -0.511971
      28A     -0.507009    29A     -0.494720    30A     -0.477832
      31A     -0.449167    32A     -0.439581

  @DF-RHF Final Energy:  -384.09057925242541

   => Energetics <=

    Nuclear Repulsion Energy =            396.8939488656208141
    One-Electron Energy =               -1310.1334886709187231
    Two-Electron Energy =                 529.1489605528724951
    Total Energy =                       -384.0905792524254139
  Basis Set: (AUG-CC-PVTZ AUX)
    Blend: AUG-CC-PVTZ-RI
    Molecular point group: c1

    Geometry (in Angstrom), charge = 0, multiplicity = 1:

       Center              X                  Y                   Z               Mass
    ------------   -----------------  -----------------  -----------------  -----------------
         O            0.440268044230    -0.561997072642     0.165703351750    15.994914619570
         O           -0.824089055770     1.090078827358    -0.707302648250    15.994914619570
         C            1.630110944230     0.159571727358    -0.176586448250    12.000000000000
         C            1.893517944230     1.214543727358     0.880223551750    12.000000000000
         C            2.726293944230    -0.879134272642    -0.277689448250    12.000000000000
         C           -1.906028055770    -0.881781272642     0.236162551750    12.000000000000
         C           -0.749642055770     0.003420727358    -0.157367448250    12.000000000000
         C           -3.250184055770    -0.201481272642     0.029847551750    12.000000000000
         H            1.455764944230     0.636956727358    -1.144972448250     1.007825032230
         H            2.817627944230     1.754346727358     0.653909551750     1.007825032230
         H            1.073221944230     1.933026727358     0.911330551750     1.007825032230
         H            1.997388944230     0.741729727358     1.860325551750     1.007825032230
         H            3.670260944230    -0.403917272642    -0.558616448250     1.007825032230
         H            2.476026944230    -1.630665272642    -1.029405448250     1.007825032230
         H            2.860139944230    -1.379199272642     0.684779551750     1.007825032230
         H           -1.829948055770    -1.801514272642    -0.355469448250     1.007825032230
         H           -1.759139055770    -1.185565272642     1.277130551750     1.007825032230
         H           -3.380451055770     0.083274727358    -1.015478448250     1.007825032230
         H           -4.064994055770    -0.871835272642     0.314665551750     1.007825032230
         H           -3.321148055770     0.706156727358     0.632099551750     1.007825032230

  Basis Set: AUG-CC-PVTZ
    Blend: AUG-CC-PVTZ
  Basis Set: (AUG-CC-PVTZ AUX)
    Blend: AUG-CC-PVTZ-JKFIT
	 Reference Energy          =    -384.0905792524254139 [Eh]
	 Singles Energy            =      -0.0000000000000000 [Eh]
	 Same-Spin Energy          =      -0.3839329312729620 [Eh]
	 Opposite-Spin Energy      =      -1.2856745808927736 [Eh]
	 Correlation Energy        =      -1.6696075121657357 [Eh]
	 Total Energy              =    -385.7601867645911398 [Eh]

	 ================> DF-SCS-MP2 Energies <==================
	-----------------------------------------------------------
	 SCS Same-Spin Scale       =       0.3333333333333333 [-]
	 SCS Opposite-Spin Scale   =       1.2000000000000000 [-]
	 SCS Same-Spin Energy      =      -0.1279776437576540 [Eh]
	 SCS Opposite-Spin Energy  =      -1.5428094970713284 [Eh]
	 SCS Correlation Energy    =      -1.6707871408289825 [Eh]
	 SCS Total Energy          =    -385.7613663932543773 [Eh]
	-----------------------------------------------------------

  Dipole Moment: [D]
     X:     0.6483      Y:    -1.3778      Z:     0.7022     Total:     1.6768

*** Psi4 exiting successfully. Buy a developer a beer!
