                               Psi4 1.3.2 release

  ==> Input File <==

--------------------------------------------------------------------------
#psi4
#
memory 32 gb

molecule  {
0 1
  O        0.4213709    -0.5962603     0.1823620
  O       -0.8620159     1.0893333    -0.7081434
  C        1.6346250     0.1623570    -0.1778450
  C        1.8980320     1.2173290     0.8789650
  C        2.7308080    -0.8763490    -0.2789480
  C       -1.9015140    -0.8789960     0.2349040
  C       -0.7451280     0.0062060    -0.1586260
  C       -3.2456700    -0.1986960     0.0285890
  H        1.4602790     0.6397420    -1.1462310
  H        2.8221420     1.7571320     0.6526510
  H        1.0777360     1.9358120     0.9100720
  H        2.0019030     0.7445150     1.8590670
  H        3.6747750    -0.4011320    -0.5598750
  H        2.4805410    -1.6278800    -1.0306640
  H        2.8646540    -1.3764140     0.6835210
  H       -1.8254340    -1.7987290    -0.3567280
  H       -1.7546250    -1.1827800     1.2758720
  H       -3.3759370     0.0860600    -1.0167370
  H       -4.0604800    -0.8690500     0.3134070
  H       -3.3166340     0.7089420     0.6308410
units angstrom
no_reorient  #important for SAPT in psi4, default
symmetry c1  #important for SAPT in psi4, default
}

set PROPERTIES_ORIGIN ["COM"]
properties('MP2/aug-cc-pvtz', properties = ['dipole'])
--------------------------------------------------------------------------

    Molecular point group: c1
  Charge       = 0
  Multiplicity = 1
  Basis Set: AUG-CC-PVTZ
    Blend: AUG-CC-PVTZ
  Basis Set: (AUG-CC-PVTZ AUX)
    Blend: AUG-CC-PVTZ-JKFIT

    Orbital Energies [Eh]
    ---------------------

    Doubly Occupied:

       1A    -20.597323     2A    -20.541270     3A    -11.376171
       4A    -11.292829     5A    -11.239634     6A    -11.222128
       7A    -11.218241     8A    -11.216666     9A     -1.444486
      10A     -1.349907    11A     -1.080139    12A     -1.043922
      13A     -0.946070    14A     -0.900893    15A     -0.813034
      16A     -0.761086    17A     -0.696458    18A     -0.665457
      19A     -0.656012    20A     -0.620447    21A     -0.602204
      22A     -0.574566    23A     -0.557122    24A     -0.550317
      25A     -0.537972    26A     -0.518372    27A     -0.508909
      28A     -0.504718    29A     -0.494595    30A     -0.482715
      31A     -0.453237    32A     -0.438727

  @DF-RHF Final Energy:  -384.08859293849997

   => Energetics <=

    Nuclear Repulsion Energy =            395.8735217650094000
    One-Electron Energy =               -1308.1129773509578627
    Two-Electron Energy =                 528.1508626474485482
    Total Energy =                       -384.0885929384999145
  Basis Set: (AUG-CC-PVTZ AUX)
    Blend: AUG-CC-PVTZ-RI
    Molecular point group: c1

    Geometry (in Angstrom), charge = 0, multiplicity = 1:

       Center              X                  Y                   Z               Mass
    ------------   -----------------  -----------------  -----------------  -----------------
         O            0.425930456186    -0.593454242652     0.181094213558    15.994914619570
         O           -0.857456343814     1.092139357348    -0.709411186442    15.994914619570
         C            1.639184556186     0.165163057348    -0.179112786442    12.000000000000
         C            1.902591556186     1.220135057348     0.877697213558    12.000000000000
         C            2.735367556186    -0.873542942652    -0.280215786442    12.000000000000
         C           -1.896954443814    -0.876189942652     0.233636213558    12.000000000000
         C           -0.740568443814     0.009012057348    -0.159893786442    12.000000000000
         C           -3.241110443814    -0.195889942652     0.027321213558    12.000000000000
         H            1.464838556186     0.642548057348    -1.147498786442     1.007825032230
         H            2.826701556186     1.759938057348     0.651383213558     1.007825032230
         H            1.082295556186     1.938618057348     0.908804213558     1.007825032230
         H            2.006462556186     0.747321057348     1.857799213558     1.007825032230
         H            3.679334556186    -0.398325942652    -0.561142786442     1.007825032230
         H            2.485100556186    -1.625073942652    -1.031931786442     1.007825032230
         H            2.869213556186    -1.373607942652     0.682253213558     1.007825032230
         H           -1.820874443814    -1.795922942652    -0.357995786442     1.007825032230
         H           -1.750065443814    -1.179973942652     1.274604213558     1.007825032230
         H           -3.371377443814     0.088866057348    -1.018004786442     1.007825032230
         H           -4.055920443814    -0.866243942652     0.312139213558     1.007825032230
         H           -3.312074443814     0.711748057348     0.629573213558     1.007825032230

  Basis Set: AUG-CC-PVTZ
    Blend: AUG-CC-PVTZ
  Basis Set: (AUG-CC-PVTZ AUX)
    Blend: AUG-CC-PVTZ-JKFIT
	 Reference Energy          =    -384.0885929384999713 [Eh]
	 Singles Energy            =      -0.0000000000000000 [Eh]
	 Same-Spin Energy          =      -0.3842270709444905 [Eh]
	 Opposite-Spin Energy      =      -1.2869571878586483 [Eh]
	 Correlation Energy        =      -1.6711842588031389 [Eh]
	 Total Energy              =    -385.7597771973030945 [Eh]

	 ================> DF-SCS-MP2 Energies <==================
	-----------------------------------------------------------
	 SCS Same-Spin Scale       =       0.3333333333333333 [-]
	 SCS Opposite-Spin Scale   =       1.2000000000000000 [-]
	 SCS Same-Spin Energy      =      -0.1280756903148302 [Eh]
	 SCS Opposite-Spin Energy  =      -1.5443486254303780 [Eh]
	 SCS Correlation Energy    =      -1.6724243157452081 [Eh]
	 SCS Total Energy          =    -385.7610172542451892 [Eh]
	-----------------------------------------------------------

  Dipole Moment: [D]
     X:     0.9864      Y:    -1.2544      Z:     0.6696     Total:     1.7306

*** Psi4 exiting successfully. Buy a developer a beer!
