                               Psi4 1.3.2 release

  ==> Input File <==

--------------------------------------------------------------------------
#psi4
#
memory 32 gb

molecule  {
0 1
  O        0.4392728    -0.6057598     0.1315050
  O       -0.8408100     1.0912640    -0.7084360
  C        1.6346250     0.1623570    -0.1778450
  C        1.9409672     1.2323736     0.8519198
  C        2.7308080    -0.8763490    -0.2789480
  C       -1.9015140    -0.8789960     0.2349040
  C       -0.7451280     0.0062060    -0.1586260
  C       -3.2456700    -0.1986960     0.0285890
  H        1.4602790     0.6397420    -1.1462310
  H        2.8221420     1.7571320     0.6526510
  H        1.0777360     1.9358120     0.9100720
  H        2.0019030     0.7445150     1.8590670
  H        3.6747750    -0.4011320    -0.5598750
  H        2.4805410    -1.6278800    -1.0306640
  H        2.8646540    -1.3764140     0.6835210
  H       -1.8254340    -1.7987290    -0.3567280
  H       -1.7546250    -1.1827800     1.2758720
  H       -3.3759370     0.0860600    -1.0167370
  H       -4.0604800    -0.8690500     0.3134070
  H       -3.3166340     0.7089420     0.6308410
units angstrom
no_reorient  #important for SAPT in psi4, default
symmetry c1  #important for SAPT in psi4, default
}

set PROPERTIES_ORIGIN ["COM"]
properties('MP2/aug-cc-pvtz', properties = ['dipole'])
--------------------------------------------------------------------------

    Molecular point group: c1
  Charge       = 0
  Multiplicity = 1
  Basis Set: AUG-CC-PVTZ
    Blend: AUG-CC-PVTZ
  Basis Set: (AUG-CC-PVTZ AUX)
    Blend: AUG-CC-PVTZ-JKFIT

    Orbital Energies [Eh]
    ---------------------

    Doubly Occupied:

       1A    -20.596704     2A    -20.542919     3A    -11.378488
       4A    -11.289076     5A    -11.243304     6A    -11.219070
       7A    -11.218934     8A    -11.217860     9A     -1.446201
      10A     -1.350666    11A     -1.080107    12A     -1.045449
      13A     -0.944497    14A     -0.903635    15A     -0.815144
      16A     -0.759146    17A     -0.698392    18A     -0.667929
      19A     -0.656428    20A     -0.621960    21A     -0.604178
      22A     -0.572483    23A     -0.559404    24A     -0.543808
      25A     -0.541279    26A     -0.520459    27A     -0.513425
      28A     -0.505040    29A     -0.493909    30A     -0.475208
      31A     -0.453590    32A     -0.438672

  @DF-RHF Final Energy:  -384.08553376378370

   => Energetics <=

    Nuclear Repulsion Energy =            395.8450067309009910
    One-Electron Energy =               -1308.0263536564575588
    Two-Electron Energy =                 528.0958131617728668
    Total Energy =                       -384.0855337637837010
  Basis Set: (AUG-CC-PVTZ AUX)
    Blend: AUG-CC-PVTZ-RI
    Molecular point group: c1

    Geometry (in Angstrom), charge = 0, multiplicity = 1:

       Center              X                  Y                   Z               Mass
    ------------   -----------------  -----------------  -----------------  -----------------
         O            0.434005412086    -0.603466070180     0.140080762594    15.994914619570
         O           -0.846077387914     1.093557729820    -0.699860237406    15.994914619570
         C            1.629357612086     0.164650729820    -0.169269237406    12.000000000000
         C            1.935699812086     1.234667329820     0.860495562594    12.000000000000
         C            2.725540612086    -0.874055270180    -0.270372237406    12.000000000000
         C           -1.906781387914    -0.876702270180     0.243479762594    12.000000000000
         C           -0.750395387914     0.008499729820    -0.150050237406    12.000000000000
         C           -3.250937387914    -0.196402270180     0.037164762594    12.000000000000
         H            1.455011612086     0.642035729820    -1.137655237406     1.007825032230
         H            2.816874612086     1.759425729820     0.661226762594     1.007825032230
         H            1.072468612086     1.938105729820     0.918647762594     1.007825032230
         H            1.996635612086     0.746808729820     1.867642762594     1.007825032230
         H            3.669507612086    -0.398838270180    -0.551299237406     1.007825032230
         H            2.475273612086    -1.625586270180    -1.022088237406     1.007825032230
         H            2.859386612086    -1.374120270180     0.692096762594     1.007825032230
         H           -1.830701387914    -1.796435270180    -0.348152237406     1.007825032230
         H           -1.759892387914    -1.180486270180     1.284447762594     1.007825032230
         H           -3.381204387914     0.088353729820    -1.008161237406     1.007825032230
         H           -4.065747387914    -0.866756270180     0.321982762594     1.007825032230
         H           -3.321901387914     0.711235729820     0.639416762594     1.007825032230

  Basis Set: AUG-CC-PVTZ
    Blend: AUG-CC-PVTZ
  Basis Set: (AUG-CC-PVTZ AUX)
    Blend: AUG-CC-PVTZ-JKFIT
	 Reference Energy          =    -384.0855337637837010 [Eh]
	 Singles Energy            =      -0.0000000000000000 [Eh]
	 Same-Spin Energy          =      -0.3842352204362567 [Eh]
	 Opposite-Spin Energy      =      -1.2868112194149410 [Eh]
	 Correlation Energy        =      -1.6710464398511977 [Eh]
	 Total Energy              =    -385.7565802036348828 [Eh]

	 ================> DF-SCS-MP2 Energies <==================
	-----------------------------------------------------------
	 SCS Same-Spin Scale       =       0.3333333333333333 [-]
	 SCS Opposite-Spin Scale   =       1.2000000000000000 [-]
	 SCS Same-Spin Energy      =      -0.1280784068120855 [Eh]
	 SCS Opposite-Spin Energy  =      -1.5441734632979291 [Eh]
	 SCS Correlation Energy    =      -1.6722518701100146 [Eh]
	 SCS Total Energy          =    -385.7577856338937181 [Eh]
	-----------------------------------------------------------

  Dipole Moment: [D]
     X:     0.7382      Y:    -1.2377      Z:     0.7215     Total:     1.6116

*** Psi4 exiting successfully. Buy a developer a beer!
