                               Psi4 1.3.2 release

  ==> Input File <==

--------------------------------------------------------------------------
#psi4
#
memory 32 gb

molecule  {
0 1
  O        0.4332560    -0.5778250     0.1734540
  O       -0.8408100     1.0912640    -0.7084360
  C        1.6346250     0.1623570    -0.1778450
  C        1.8980320     1.2173290     0.8789650
  C        2.7308080    -0.8763490    -0.2789480
  C       -1.9015140    -0.8789960     0.2349040
  C       -0.7220557    -0.0499262    -0.2091663
  C       -3.2456700    -0.1986960     0.0285890
  H        1.4602790     0.6397420    -1.1462310
  H        2.8221420     1.7571320     0.6526510
  H        1.0777360     1.9358120     0.9100720
  H        2.0019030     0.7445150     1.8590670
  H        3.6747750    -0.4011320    -0.5598750
  H        2.4805410    -1.6278800    -1.0306640
  H        2.8646540    -1.3764140     0.6835210
  H       -1.7782160    -1.7772417    -0.3812759
  H       -1.7546250    -1.1827800     1.2758720
  H       -3.3759370     0.0860600    -1.0167370
  H       -4.0604800    -0.8690500     0.3134070
  H       -3.3166340     0.7089420     0.6308410
units angstrom
no_reorient  #important for SAPT in psi4, default
symmetry c1  #important for SAPT in psi4, default
}

set PROPERTIES_ORIGIN ["COM"]
properties('MP2/aug-cc-pvtz', properties = ['dipole'])
--------------------------------------------------------------------------

    Molecular point group: c1
  Charge       = 0
  Multiplicity = 1
  Basis Set: AUG-CC-PVTZ
    Blend: AUG-CC-PVTZ
  Basis Set: (AUG-CC-PVTZ AUX)
    Blend: AUG-CC-PVTZ-JKFIT

    Orbital Energies [Eh]
    ---------------------

    Doubly Occupied:

       1A    -20.602902     2A    -20.532876     3A    -11.377870
       4A    -11.293240     5A    -11.242734     6A    -11.222981
       7A    -11.218435     8A    -11.217511     9A     -1.455568
      10A     -1.333498    11A     -1.084001    12A     -1.045335
      13A     -0.946553    14A     -0.906758    15A     -0.821004
      16A     -0.765616    17A     -0.691390    18A     -0.669983
      19A     -0.654991    20A     -0.620380    21A     -0.603237
      22A     -0.572180    23A     -0.559309    24A     -0.550767
      25A     -0.538014    26A     -0.518582    27A     -0.510444
      28A     -0.503986    29A     -0.494273    30A     -0.481126
      31A     -0.446583    32A     -0.434887

  @DF-RHF Final Energy:  -384.08377816295393

   => Energetics <=

    Nuclear Repulsion Energy =            396.3753327761278342
    One-Electron Energy =               -1309.0841957604202435
    Two-Electron Energy =                 528.6250848213385325
    Total Energy =                       -384.0837781629538767
  Basis Set: (AUG-CC-PVTZ AUX)
    Blend: AUG-CC-PVTZ-RI
    Molecular point group: c1

    Geometry (in Angstrom), charge = 0, multiplicity = 1:

       Center              X                  Y                   Z               Mass
    ------------   -----------------  -----------------  -----------------  -----------------
         O            0.430461013006    -0.572209086946     0.178891601144    15.994914619570
         O           -0.843604986994     1.096879913054    -0.702998398856    15.994914619570
         C            1.631830013006     0.167972913054    -0.172407398856    12.000000000000
         C            1.895237013006     1.222944913054     0.884402601144    12.000000000000
         C            2.728013013006    -0.870733086946    -0.273510398856    12.000000000000
         C           -1.904308986994    -0.873380086946     0.240341601144    12.000000000000
         C           -0.724850686994    -0.044310286946    -0.203728698856    12.000000000000
         C           -3.248464986994    -0.193080086946     0.034026601144    12.000000000000
         H            1.457484013006     0.645357913054    -1.140793398856     1.007825032230
         H            2.819347013006     1.762747913054     0.658088601144     1.007825032230
         H            1.074941013006     1.941427913054     0.915509601144     1.007825032230
         H            1.999108013006     0.750130913054     1.864504601144     1.007825032230
         H            3.671980013006    -0.395516086946    -0.554437398856     1.007825032230
         H            2.477746013006    -1.622264086946    -1.025226398856     1.007825032230
         H            2.861859013006    -1.370798086946     0.688958601144     1.007825032230
         H           -1.781010986994    -1.771625786946    -0.375838298856     1.007825032230
         H           -1.757419986994    -1.177164086946     1.281309601144     1.007825032230
         H           -3.378731986994     0.091675913054    -1.011299398856     1.007825032230
         H           -4.063274986994    -0.863434086946     0.318844601144     1.007825032230
         H           -3.319428986994     0.714557913054     0.636278601144     1.007825032230

  Basis Set: AUG-CC-PVTZ
    Blend: AUG-CC-PVTZ
  Basis Set: (AUG-CC-PVTZ AUX)
    Blend: AUG-CC-PVTZ-JKFIT
	 Reference Energy          =    -384.0837781629539336 [Eh]
	 Singles Energy            =      -0.0000000000000000 [Eh]
	 Same-Spin Energy          =      -0.3845508311229698 [Eh]
	 Opposite-Spin Energy      =      -1.2871629093034609 [Eh]
	 Correlation Energy        =      -1.6717137404264308 [Eh]
	 Total Energy              =    -385.7554919033803458 [Eh]

	 ================> DF-SCS-MP2 Energies <==================
	-----------------------------------------------------------
	 SCS Same-Spin Scale       =       0.3333333333333333 [-]
	 SCS Opposite-Spin Scale   =       1.2000000000000000 [-]
	 SCS Same-Spin Energy      =      -0.1281836103743233 [Eh]
	 SCS Opposite-Spin Energy  =      -1.5445954911641531 [Eh]
	 SCS Correlation Energy    =      -1.6727791015384763 [Eh]
	 SCS Total Energy          =    -385.7565572644924146 [Eh]
	-----------------------------------------------------------

  Dipole Moment: [D]
     X:     1.0585      Y:    -1.4624      Z:     0.7247     Total:     1.9453

*** Psi4 exiting successfully. Buy a developer a beer!
