                               Psi4 1.3.2 release

  ==> Input File <==

--------------------------------------------------------------------------
#psi4
#
memory 32 gb

molecule  {
0 1
  O        0.4273617    -0.5871166     0.1778177
  O       -0.8408100     1.0912640    -0.7084360
  C        1.6346250     0.1623570    -0.1778450
  C        1.8980320     1.2173290     0.8789650
  C        2.7308080    -0.8763490    -0.2789480
  C       -1.8930277    -0.8878923     0.2396093
  C       -0.7451280     0.0062060    -0.1586260
  C       -3.2456700    -0.1986960     0.0285890
  H        1.4602790     0.6397420    -1.1462310
  H        2.8221420     1.7571320     0.6526510
  H        1.0777360     1.9358120     0.9100720
  H        2.0019030     0.7445150     1.8590670
  H        3.6747750    -0.4011320    -0.5598750
  H        2.4805410    -1.6278800    -1.0306640
  H        2.8646540    -1.3764140     0.6835210
  H       -1.8254340    -1.7987290    -0.3567280
  H       -1.7546250    -1.1827800     1.2758720
  H       -3.3759370     0.0860600    -1.0167370
  H       -4.0604800    -0.8690500     0.3134070
  H       -3.3166340     0.7089420     0.6308410
units angstrom
no_reorient  #important for SAPT in psi4, default
symmetry c1  #important for SAPT in psi4, default
}

set PROPERTIES_ORIGIN ["COM"]
properties('MP2/aug-cc-pvtz', properties = ['dipole'])
--------------------------------------------------------------------------

    Molecular point group: c1
  Charge       = 0
  Multiplicity = 1
  Basis Set: AUG-CC-PVTZ
    Blend: AUG-CC-PVTZ
  Basis Set: (AUG-CC-PVTZ AUX)
    Blend: AUG-CC-PVTZ-JKFIT

    Orbital Energies [Eh]
    ---------------------

    Doubly Occupied:

       1A    -20.595416     2A    -20.541295     3A    -11.376664
       4A    -11.290660     5A    -11.241100     6A    -11.221106
       7A    -11.218442     8A    -11.216936     9A     -1.446261
      10A     -1.349234    11A     -1.080007    12A     -1.043233
      13A     -0.945097    14A     -0.902039    15A     -0.814544
      16A     -0.760795    17A     -0.697387    18A     -0.666316
      19A     -0.656515    20A     -0.620658    21A     -0.602787
      22A     -0.573551    23A     -0.556303    24A     -0.549097
      25A     -0.536939    26A     -0.519344    27A     -0.508357
      28A     -0.505082    29A     -0.496262    30A     -0.481687
      31A     -0.451925    32A     -0.439736

  @DF-RHF Final Energy:  -384.08943619501184

   => Energetics <=

    Nuclear Repulsion Energy =            396.1239507812221632
    One-Electron Energy =               -1308.6172299096510869
    Two-Electron Energy =                 528.4038429334169678
    Total Energy =                       -384.0894361950118991
  Basis Set: (AUG-CC-PVTZ AUX)
    Blend: AUG-CC-PVTZ-RI
    Molecular point group: c1

    Geometry (in Angstrom), charge = 0, multiplicity = 1:

       Center              X                  Y                   Z               Mass
    ------------   -----------------  -----------------  -----------------  -----------------
         O            0.427296624498    -0.584916816095     0.176729974990    15.994914619570
         O           -0.840875075502     1.093463783905    -0.709523725010    15.994914619570
         C            1.634559924498     0.164556783905    -0.178932725010    12.000000000000
         C            1.897966924498     1.219528783905     0.877877274990    12.000000000000
         C            2.730742924498    -0.874149216095    -0.280035725010    12.000000000000
         C           -1.893092775502    -0.885692516095     0.238521574990    12.000000000000
         C           -0.745193075502     0.008405783905    -0.159713725010    12.000000000000
         C           -3.245735075502    -0.196496216095     0.027501274990    12.000000000000
         H            1.460213924498     0.641941783905    -1.147318725010     1.007825032230
         H            2.822076924498     1.759331783905     0.651563274990     1.007825032230
         H            1.077670924498     1.938011783905     0.908984274990     1.007825032230
         H            2.001837924498     0.746714783905     1.857979274990     1.007825032230
         H            3.674709924498    -0.398932216095    -0.560962725010     1.007825032230
         H            2.480475924498    -1.625680216095    -1.031751725010     1.007825032230
         H            2.864588924498    -1.374214216095     0.682433274990     1.007825032230
         H           -1.825499075502    -1.796529216095    -0.357815725010     1.007825032230
         H           -1.754690075502    -1.180580216095     1.274784274990     1.007825032230
         H           -3.376002075502     0.088259783905    -1.017824725010     1.007825032230
         H           -4.060545075502    -0.866850216095     0.312319274990     1.007825032230
         H           -3.316699075502     0.711141783905     0.629753274990     1.007825032230

  Basis Set: AUG-CC-PVTZ
    Blend: AUG-CC-PVTZ
  Basis Set: (AUG-CC-PVTZ AUX)
    Blend: AUG-CC-PVTZ-JKFIT
	 Reference Energy          =    -384.0894361950118423 [Eh]
	 Singles Energy            =      -0.0000000000000000 [Eh]
	 Same-Spin Energy          =      -0.3840936882637031 [Eh]
	 Opposite-Spin Energy      =      -1.2865969654084028 [Eh]
	 Correlation Energy        =      -1.6706906536721060 [Eh]
	 Total Energy              =    -385.7601268486839672 [Eh]

	 ================> DF-SCS-MP2 Energies <==================
	-----------------------------------------------------------
	 SCS Same-Spin Scale       =       0.3333333333333333 [-]
	 SCS Opposite-Spin Scale   =       1.2000000000000000 [-]
	 SCS Same-Spin Energy      =      -0.1280312294212343 [Eh]
	 SCS Opposite-Spin Energy  =      -1.5439163584900835 [Eh]
	 SCS Correlation Energy    =      -1.6719475879113177 [Eh]
	 SCS Total Energy          =    -385.7613837829231329 [Eh]
	-----------------------------------------------------------

  Dipole Moment: [D]
     X:     0.8709      Y:    -1.2915      Z:     0.6787     Total:     1.6991

*** Psi4 exiting successfully. Buy a developer a beer!
