                               Psi4 1.3.2 release

  ==> Input File <==

--------------------------------------------------------------------------
#psi4
#
memory 32 gb

molecule  {
0 1
  O        0.4332560    -0.5778250     0.1734540
  O       -0.8408100     1.0912640    -0.7084360
  C        1.6346250     0.1623570    -0.1778450
  C        1.8980320     1.2173290     0.8789650
  C        2.7308080    -0.8763490    -0.2789480
  C       -1.9015140    -0.8789960     0.2349040
  C       -0.8320006     0.0492618    -0.1831075
  C       -3.2456700    -0.1986960     0.0285890
  H        1.4602790     0.6397420    -1.1462310
  H        2.8221420     1.7571320     0.6526510
  H        1.0777360     1.9358120     0.9100720
  H        2.0019030     0.7445150     1.8590670
  H        3.6747750    -0.4011320    -0.5598750
  H        2.4805410    -1.6278800    -1.0306640
  H        2.8646540    -1.3764140     0.6835210
  H       -1.8254340    -1.7987290    -0.3567280
  H       -1.7546250    -1.1827800     1.2758720
  H       -3.3759370     0.0860600    -1.0167370
  H       -4.0604800    -0.8690500     0.3134070
  H       -3.3166340     0.7089420     0.6308410
units angstrom
no_reorient  #important for SAPT in psi4, default
symmetry c1  #important for SAPT in psi4, default
}

set PROPERTIES_ORIGIN ["COM"]
properties('MP2/aug-cc-pvtz', properties = ['dipole'])
--------------------------------------------------------------------------

    Molecular point group: c1
  Charge       = 0
  Multiplicity = 1
  Basis Set: AUG-CC-PVTZ
    Blend: AUG-CC-PVTZ
  Basis Set: (AUG-CC-PVTZ AUX)
    Blend: AUG-CC-PVTZ-JKFIT

    Orbital Energies [Eh]
    ---------------------

    Doubly Occupied:

       1A    -20.569321     2A    -20.559775     3A    -11.378164
       4A    -11.277976     5A    -11.247430     6A    -11.223990
       7A    -11.212949     8A    -11.209703     9A     -1.452764
      10A     -1.345073    11A     -1.081316    12A     -1.041390
      13A     -0.937001    14A     -0.904338    15A     -0.800310
      16A     -0.750360    17A     -0.708342    18A     -0.669150
      19A     -0.658945    20A     -0.616233    21A     -0.603937
      22A     -0.571571    23A     -0.553657    24A     -0.543460
      25A     -0.538121    26A     -0.529089    27A     -0.505704
      28A     -0.504910    29A     -0.503801    30A     -0.477605
      31A     -0.444818    32A     -0.436241

  @DF-RHF Final Energy:  -384.07960146731415

   => Energetics <=

    Nuclear Repulsion Energy =            395.9921222373581600
    One-Electron Energy =               -1308.4285606894829925
    Two-Electron Energy =                 528.3568369848105704
    Total Energy =                       -384.0796014673142054
  Basis Set: (AUG-CC-PVTZ AUX)
    Blend: AUG-CC-PVTZ-RI
    Molecular point group: c1

    Geometry (in Angstrom), charge = 0, multiplicity = 1:

       Center              X                  Y                   Z               Mass
    ------------   -----------------  -----------------  -----------------  -----------------
         O            0.442236360738    -0.582275963372     0.175984685686    15.994914619570
         O           -0.831829639262     1.086813036628    -0.705905314314    15.994914619570
         C            1.643605360738     0.157906036628    -0.175314314314    12.000000000000
         C            1.907012360738     1.212878036628     0.881495685686    12.000000000000
         C            2.739788360738    -0.880799963372    -0.276417314314    12.000000000000
         C           -1.892533639262    -0.883446963372     0.237434685686    12.000000000000
         C           -0.823020239262     0.044810836628    -0.180576814314    12.000000000000
         C           -3.236689639262    -0.203146963372     0.031119685686    12.000000000000
         H            1.469259360738     0.635291036628    -1.143700314314     1.007825032230
         H            2.831122360738     1.752681036628     0.655181685686     1.007825032230
         H            1.086716360738     1.931361036628     0.912602685686     1.007825032230
         H            2.010883360738     0.740064036628     1.861597685686     1.007825032230
         H            3.683755360738    -0.405582963372    -0.557344314314     1.007825032230
         H            2.489521360738    -1.632330963372    -1.028133314314     1.007825032230
         H            2.873634360738    -1.380864963372     0.686051685686     1.007825032230
         H           -1.816453639262    -1.803179963372    -0.354197314314     1.007825032230
         H           -1.745644639262    -1.187230963372     1.278402685686     1.007825032230
         H           -3.366956639262     0.081609036628    -1.014206314314     1.007825032230
         H           -4.051499639262    -0.873500963372     0.315937685686     1.007825032230
         H           -3.307653639262     0.704491036628     0.633371685686     1.007825032230

  Basis Set: AUG-CC-PVTZ
    Blend: AUG-CC-PVTZ
  Basis Set: (AUG-CC-PVTZ AUX)
    Blend: AUG-CC-PVTZ-JKFIT
	 Reference Energy          =    -384.0796014673141485 [Eh]
	 Singles Energy            =      -0.0000000000000000 [Eh]
	 Same-Spin Energy          =      -0.3843111280757586 [Eh]
	 Opposite-Spin Energy      =      -1.2869903415119721 [Eh]
	 Correlation Energy        =      -1.6713014695877306 [Eh]
	 Total Energy              =    -385.7509029369018663 [Eh]

	 ================> DF-SCS-MP2 Energies <==================
	-----------------------------------------------------------
	 SCS Same-Spin Scale       =       0.3333333333333333 [-]
	 SCS Opposite-Spin Scale   =       1.2000000000000000 [-]
	 SCS Same-Spin Energy      =      -0.1281037093585862 [Eh]
	 SCS Opposite-Spin Energy  =      -1.5443884098143665 [Eh]
	 SCS Correlation Energy    =      -1.6724921191729527 [Eh]
	 SCS Total Energy          =    -385.7520935864870921 [Eh]
	-----------------------------------------------------------

  Dipole Moment: [D]
     X:    -0.1312      Y:    -1.0536      Z:     0.4846     Total:     1.1671

*** Psi4 exiting successfully. Buy a developer a beer!
