                               Psi4 1.3.2 release

  ==> Input File <==

--------------------------------------------------------------------------
#psi4
#
memory 32 gb

molecule  {
0 1
  O        0.4213781    -0.5963631     0.1821558
  O       -0.8408100     1.0912640    -0.7084360
  C        1.6346250     0.1623570    -0.1778450
  C        1.8980320     1.2173290     0.8789650
  C        2.7308080    -0.8763490    -0.2789480
  C       -1.8844541    -0.8967206     0.2442843
  C       -0.7451280     0.0062060    -0.1586260
  C       -3.2456700    -0.1986960     0.0285890
  H        1.4602790     0.6397420    -1.1462310
  H        2.8221420     1.7571320     0.6526510
  H        1.0777360     1.9358120     0.9100720
  H        2.0019030     0.7445150     1.8590670
  H        3.6747750    -0.4011320    -0.5598750
  H        2.4805410    -1.6278800    -1.0306640
  H        2.8646540    -1.3764140     0.6835210
  H       -1.8254340    -1.7987290    -0.3567280
  H       -1.7546250    -1.1827800     1.2758720
  H       -3.3759370     0.0860600    -1.0167370
  H       -4.0604800    -0.8690500     0.3134070
  H       -3.3166340     0.7089420     0.6308410
units angstrom
no_reorient  #important for SAPT in psi4, default
symmetry c1  #important for SAPT in psi4, default
}

set PROPERTIES_ORIGIN ["COM"]
properties('MP2/aug-cc-pvtz', properties = ['dipole'])
--------------------------------------------------------------------------

    Molecular point group: c1
  Charge       = 0
  Multiplicity = 1
  Basis Set: AUG-CC-PVTZ
    Blend: AUG-CC-PVTZ
  Basis Set: (AUG-CC-PVTZ AUX)
    Blend: AUG-CC-PVTZ-JKFIT

    Orbital Energies [Eh]
    ---------------------

    Doubly Occupied:

       1A    -20.595579     2A    -20.541831     3A    -11.376402
       4A    -11.291683     5A    -11.239666     6A    -11.221460
       7A    -11.218299     8A    -11.217573     9A     -1.444706
      10A     -1.348722    11A     -1.079715    12A     -1.041648
      13A     -0.945373    14A     -0.900863    15A     -0.813479
      16A     -0.760924    17A     -0.696695    18A     -0.666087
      19A     -0.656608    20A     -0.620593    21A     -0.602416
      22A     -0.574100    23A     -0.555257    24A     -0.549217
      25A     -0.536817    26A     -0.518920    27A     -0.507812
      28A     -0.502805    29A     -0.497253    30A     -0.482818
      31A     -0.452786    32A     -0.439785

  @DF-RHF Final Energy:  -384.08809544993358

   => Energetics <=

    Nuclear Repulsion Energy =            395.8778760213909891
    One-Electron Energy =               -1308.1361608602539945
    Two-Electron Energy =                 528.1701893889294297
    Total Energy =                       -384.0880954499335758
  Basis Set: (AUG-CC-PVTZ AUX)
    Blend: AUG-CC-PVTZ-RI
    Molecular point group: c1

    Geometry (in Angstrom), charge = 0, multiplicity = 1:

       Center              X                  Y                   Z               Mass
    ------------   -----------------  -----------------  -----------------  -----------------
         O            0.421251206801    -0.591976648085     0.179987066139    15.994914619570
         O           -0.840936893199     1.095650451915    -0.710604733861    15.994914619570
         C            1.634498106801     0.166743451915    -0.180013733861    12.000000000000
         C            1.897905106801     1.221715451915     0.876796266139    12.000000000000
         C            2.730681106801    -0.871962548085    -0.281116733861    12.000000000000
         C           -1.884580993199    -0.892334148085     0.242115566139    12.000000000000
         C           -0.745254893199     0.010592451915    -0.160794733861    12.000000000000
         C           -3.245796893199    -0.194309548085     0.026420266139    12.000000000000
         H            1.460152106801     0.644128451915    -1.148399733861     1.007825032230
         H            2.822015106801     1.761518451915     0.650482266139     1.007825032230
         H            1.077609106801     1.940198451915     0.907903266139     1.007825032230
         H            2.001776106801     0.748901451915     1.856898266139     1.007825032230
         H            3.674648106801    -0.396745548085    -0.562043733861     1.007825032230
         H            2.480414106801    -1.623493548085    -1.032832733861     1.007825032230
         H            2.864527106801    -1.372027548085     0.681352266139     1.007825032230
         H           -1.825560893199    -1.794342548085    -0.358896733861     1.007825032230
         H           -1.754751893199    -1.178393548085     1.273703266139     1.007825032230
         H           -3.376063893199     0.090446451915    -1.018905733861     1.007825032230
         H           -4.060606893199    -0.864663548085     0.311238266139     1.007825032230
         H           -3.316760893199     0.713328451915     0.628672266139     1.007825032230

  Basis Set: AUG-CC-PVTZ
    Blend: AUG-CC-PVTZ
  Basis Set: (AUG-CC-PVTZ AUX)
    Blend: AUG-CC-PVTZ-JKFIT
	 Reference Energy          =    -384.0880954499335758 [Eh]
	 Singles Energy            =      -0.0000000000000000 [Eh]
	 Same-Spin Energy          =      -0.3841547233403572 [Eh]
	 Opposite-Spin Energy      =      -1.2869658733518468 [Eh]
	 Correlation Energy        =      -1.6711205966922040 [Eh]
	 Total Energy              =    -385.7592160466257951 [Eh]

	 ================> DF-SCS-MP2 Energies <==================
	-----------------------------------------------------------
	 SCS Same-Spin Scale       =       0.3333333333333333 [-]
	 SCS Opposite-Spin Scale   =       1.2000000000000000 [-]
	 SCS Same-Spin Energy      =      -0.1280515744467857 [Eh]
	 SCS Opposite-Spin Energy  =      -1.5443590480222160 [Eh]
	 SCS Correlation Energy    =      -1.6724106224690019 [Eh]
	 SCS Total Energy          =    -385.7605060724025634 [Eh]
	-----------------------------------------------------------

  Dipole Moment: [D]
     X:     0.9238      Y:    -1.2672      Z:     0.6717     Total:     1.7059

*** Psi4 exiting successfully. Buy a developer a beer!
