                               Psi4 1.3.2 release

  ==> Input File <==

--------------------------------------------------------------------------
#psi4
#
memory 32 gb

molecule  {
0 1
  O        0.4332560    -0.5778250     0.1734540
  O       -0.8408100     1.0912640    -0.7084360
  C        1.6346250     0.1623570    -0.1778450
  C        1.8980320     1.2173290     0.8789650
  C        2.7308080    -0.8763490    -0.2789480
  C       -1.9015140    -0.8789960     0.2349040
  C       -0.7284303    -0.0130021    -0.1518858
  C       -3.2578264    -0.2205055     0.0375815
  H        1.4602790     0.6397420    -1.1462310
  H        2.8221420     1.7571320     0.6526510
  H        1.0777360     1.9358120     0.9100720
  H        2.0019030     0.7445150     1.8590670
  H        3.6747750    -0.4011320    -0.5598750
  H        2.4805410    -1.6278800    -1.0306640
  H        2.8646540    -1.3764140     0.6835210
  H       -1.8254340    -1.7987290    -0.3567280
  H       -1.7546250    -1.1827800     1.2758720
  H       -3.3759370     0.0860600    -1.0167370
  H       -4.0604800    -0.8690500     0.3134070
  H       -3.3166340     0.7089420     0.6308410
units angstrom
no_reorient  #important for SAPT in psi4, default
symmetry c1  #important for SAPT in psi4, default
}

set PROPERTIES_ORIGIN ["COM"]
properties('MP2/aug-cc-pvtz', properties = ['dipole'])
--------------------------------------------------------------------------

    Molecular point group: c1
  Charge       = 0
  Multiplicity = 1
  Basis Set: AUG-CC-PVTZ
    Blend: AUG-CC-PVTZ
  Basis Set: (AUG-CC-PVTZ AUX)
    Blend: AUG-CC-PVTZ-JKFIT

    Orbital Energies [Eh]
    ---------------------

    Doubly Occupied:

       1A    -20.601597     2A    -20.535060     3A    -11.378081
       4A    -11.292700     5A    -11.242191     6A    -11.222696
       7A    -11.218017     8A    -11.217765     9A     -1.454256
      10A     -1.339256    11A     -1.083096    12A     -1.045190
      13A     -0.946654    14A     -0.905513    15A     -0.820169
      16A     -0.764211    17A     -0.694736    18A     -0.668708
      19A     -0.656528    20A     -0.620811    21A     -0.601922
      22A     -0.573022    23A     -0.562185    24A     -0.550924
      25A     -0.538336    26A     -0.516512    27A     -0.512635
      28A     -0.504007    29A     -0.491350    30A     -0.480278
      31A     -0.449145    32A     -0.437639

  @DF-RHF Final Energy:  -384.08767176182982

   => Energetics <=

    Nuclear Repulsion Energy =            396.2661519355170867
    One-Electron Energy =               -1308.8572629021912235
    Two-Electron Energy =                 528.5034392048443124
    Total Energy =                       -384.0876717618298244
  Basis Set: (AUG-CC-PVTZ AUX)
    Blend: AUG-CC-PVTZ-RI
    Molecular point group: c1

    Geometry (in Angstrom), charge = 0, multiplicity = 1:

       Center              X                  Y                   Z               Mass
    ------------   -----------------  -----------------  -----------------  -----------------
         O            0.432786571318    -0.573584988303     0.171827596647    15.994914619570
         O           -0.841279428682     1.095504011697    -0.710062403353    15.994914619570
         C            1.634155571318     0.166597011697    -0.179471403353    12.000000000000
         C            1.897562571318     1.221569011697     0.877338596647    12.000000000000
         C            2.730338571318    -0.872108988303    -0.280574403353    12.000000000000
         C           -1.901983428682    -0.874755988303     0.233277596647    12.000000000000
         C           -0.728899728682    -0.008762088303    -0.153512203353    12.000000000000
         C           -3.258295828682    -0.216265488303     0.035955096647    12.000000000000
         H            1.459809571318     0.643982011697    -1.147857403353     1.007825032230
         H            2.821672571318     1.761372011697     0.651024596647     1.007825032230
         H            1.077266571318     1.940052011697     0.908445596647     1.007825032230
         H            2.001433571318     0.748755011697     1.857440596647     1.007825032230
         H            3.674305571318    -0.396891988303    -0.561501403353     1.007825032230
         H            2.480071571318    -1.623639988303    -1.032290403353     1.007825032230
         H            2.864184571318    -1.372173988303     0.681894596647     1.007825032230
         H           -1.825903428682    -1.794488988303    -0.358354403353     1.007825032230
         H           -1.755094428682    -1.178539988303     1.274245596647     1.007825032230
         H           -3.376406428682     0.090300011697    -1.018363403353     1.007825032230
         H           -4.060949428682    -0.864809988303     0.311780596647     1.007825032230
         H           -3.317103428682     0.713182011697     0.629214596647     1.007825032230

  Basis Set: AUG-CC-PVTZ
    Blend: AUG-CC-PVTZ
  Basis Set: (AUG-CC-PVTZ AUX)
    Blend: AUG-CC-PVTZ-JKFIT
	 Reference Energy          =    -384.0876717618298244 [Eh]
	 Singles Energy            =      -0.0000000000000000 [Eh]
	 Same-Spin Energy          =      -0.3842687636933353 [Eh]
	 Opposite-Spin Energy      =      -1.2865958915219036 [Eh]
	 Correlation Energy        =      -1.6708646552152389 [Eh]
	 Total Energy              =    -385.7585364170450362 [Eh]

	 ================> DF-SCS-MP2 Energies <==================
	-----------------------------------------------------------
	 SCS Same-Spin Scale       =       0.3333333333333333 [-]
	 SCS Opposite-Spin Scale   =       1.2000000000000000 [-]
	 SCS Same-Spin Energy      =      -0.1280895878977784 [Eh]
	 SCS Opposite-Spin Energy  =      -1.5439150698262842 [Eh]
	 SCS Correlation Energy    =      -1.6720046577240626 [Eh]
	 SCS Total Energy          =    -385.7596764195538981 [Eh]
	-----------------------------------------------------------

  Dipole Moment: [D]
     X:     1.0193      Y:    -1.4270      Z:     0.7542     Total:     1.9089

*** Psi4 exiting successfully. Buy a developer a beer!
