                               Psi4 1.3.2 release

  ==> Input File <==

--------------------------------------------------------------------------
#psi4
#
memory 32 gb

molecule  {
0 1
  O        0.4332560    -0.5778250     0.1734540
  O       -0.8408100     1.0912640    -0.7084360
  C        1.6346250     0.1623570    -0.1778450
  C        1.8980320     1.2173290     0.8789650
  C        2.7308080    -0.8763490    -0.2789480
  C       -1.9015140    -0.8789960     0.2349040
  C       -0.7536092     0.0157093    -0.1619513
  C       -3.2394380    -0.1878686     0.0241161
  H        1.4602790     0.6397420    -1.1462310
  H        2.8221420     1.7571320     0.6526510
  H        1.0777360     1.9358120     0.9100720
  H        2.0019030     0.7445150     1.8590670
  H        3.6747750    -0.4011320    -0.5598750
  H        2.4805410    -1.6278800    -1.0306640
  H        2.8646540    -1.3764140     0.6835210
  H       -1.8254340    -1.7987290    -0.3567280
  H       -1.7546250    -1.1827800     1.2758720
  H       -3.3759370     0.0860600    -1.0167370
  H       -4.0604800    -0.8690500     0.3134070
  H       -3.3166340     0.7089420     0.6308410
units angstrom
no_reorient  #important for SAPT in psi4, default
symmetry c1  #important for SAPT in psi4, default
}

set PROPERTIES_ORIGIN ["COM"]
properties('MP2/aug-cc-pvtz', properties = ['dipole'])
--------------------------------------------------------------------------

    Molecular point group: c1
  Charge       = 0
  Multiplicity = 1
  Basis Set: AUG-CC-PVTZ
    Blend: AUG-CC-PVTZ
  Basis Set: (AUG-CC-PVTZ AUX)
    Blend: AUG-CC-PVTZ-JKFIT

    Orbital Energies [Eh]
    ---------------------

    Doubly Occupied:

       1A    -20.591992     2A    -20.543585     3A    -11.376397
       4A    -11.288124     5A    -11.242899     6A    -11.219783
       7A    -11.218954     8A    -11.215569     9A     -1.446331
      10A     -1.353672    11A     -1.079231    12A     -1.044566
      13A     -0.943918    14A     -0.902236    15A     -0.813528
      16A     -0.759060    17A     -0.699714    18A     -0.666107
      19A     -0.656745    20A     -0.620737    21A     -0.603787
      22A     -0.573153    23A     -0.555842    24A     -0.547824
      25A     -0.536866    26A     -0.521252    27A     -0.509393
      28A     -0.506508    29A     -0.496759    30A     -0.480333
      31A     -0.451245    32A     -0.439982

  @DF-RHF Final Energy:  -384.09005092801959

   => Energetics <=

    Nuclear Repulsion Energy =            396.4360150171452801
    One-Electron Energy =               -1309.2399438211778033
    Two-Electron Energy =                 528.7138778760129298
    Total Energy =                       -384.0900509280195365
  Basis Set: (AUG-CC-PVTZ AUX)
    Blend: AUG-CC-PVTZ-RI
    Molecular point group: c1

    Geometry (in Angstrom), charge = 0, multiplicity = 1:

       Center              X                  Y                   Z               Mass
    ------------   -----------------  -----------------  -----------------  -----------------
         O            0.433488530157    -0.579926786610     0.174260071904    15.994914619570
         O           -0.840577469843     1.089162213390    -0.707629928096    15.994914619570
         C            1.634857530157     0.160255213390    -0.177038928096    12.000000000000
         C            1.898264530157     1.215227213390     0.879771071904    12.000000000000
         C            2.731040530157    -0.878450786610    -0.278141928096    12.000000000000
         C           -1.901281469843    -0.881097786610     0.235710071904    12.000000000000
         C           -0.753376669843     0.013607513390    -0.161145228096    12.000000000000
         C           -3.239205469843    -0.189970386610     0.024922171904    12.000000000000
         H            1.460511530157     0.637640213390    -1.145424928096     1.007825032230
         H            2.822374530157     1.755030213390     0.653457071904     1.007825032230
         H            1.077968530157     1.933710213390     0.910878071904     1.007825032230
         H            2.002135530157     0.742413213390     1.859873071904     1.007825032230
         H            3.675007530157    -0.403233786610    -0.559068928096     1.007825032230
         H            2.480773530157    -1.629981786610    -1.029857928096     1.007825032230
         H            2.864886530157    -1.378515786610     0.684327071904     1.007825032230
         H           -1.825201469843    -1.800830786610    -0.355921928096     1.007825032230
         H           -1.754392469843    -1.184881786610     1.276678071904     1.007825032230
         H           -3.375704469843     0.083958213390    -1.015930928096     1.007825032230
         H           -4.060247469843    -0.871151786610     0.314213071904     1.007825032230
         H           -3.316401469843     0.706840213390     0.631647071904     1.007825032230

  Basis Set: AUG-CC-PVTZ
    Blend: AUG-CC-PVTZ
  Basis Set: (AUG-CC-PVTZ AUX)
    Blend: AUG-CC-PVTZ-JKFIT
	 Reference Energy          =    -384.0900509280195934 [Eh]
	 Singles Energy            =      -0.0000000000000000 [Eh]
	 Same-Spin Energy          =      -0.3839738590882285 [Eh]
	 Opposite-Spin Energy      =      -1.2861630679920182 [Eh]
	 Correlation Energy        =      -1.6701369270802466 [Eh]
	 Total Energy              =    -385.7601878550998435 [Eh]

	 ================> DF-SCS-MP2 Energies <==================
	-----------------------------------------------------------
	 SCS Same-Spin Scale       =       0.3333333333333333 [-]
	 SCS Opposite-Spin Scale   =       1.2000000000000000 [-]
	 SCS Same-Spin Energy      =      -0.1279912863627428 [Eh]
	 SCS Opposite-Spin Energy  =      -1.5433956815904217 [Eh]
	 SCS Correlation Energy    =      -1.6713869679531645 [Eh]
	 SCS Total Energy          =    -385.7614378959727333 [Eh]
	-----------------------------------------------------------

  Dipole Moment: [D]
     X:     0.7162      Y:    -1.2601      Z:     0.6514     Total:     1.5890

*** Psi4 exiting successfully. Buy a developer a beer!
