                               Psi4 1.3.2 release

  ==> Input File <==

--------------------------------------------------------------------------
#psi4
#
memory 32 gb

molecule  {
0 1
  O        0.4091305    -0.6145121     0.1911661
  O       -0.8831861     1.0870727    -0.7076833
  C        1.6346250     0.1623570    -0.1778450
  C        1.8980320     1.2173290     0.8789650
  C        2.7308080    -0.8763490    -0.2789480
  C       -1.9015140    -0.8789960     0.2349040
  C       -0.7451280     0.0062060    -0.1586260
  C       -3.2456700    -0.1986960     0.0285890
  H        1.4602790     0.6397420    -1.1462310
  H        2.8221420     1.7571320     0.6526510
  H        1.0777360     1.9358120     0.9100720
  H        2.0019030     0.7445150     1.8590670
  H        3.6747750    -0.4011320    -0.5598750
  H        2.4805410    -1.6278800    -1.0306640
  H        2.8646540    -1.3764140     0.6835210
  H       -1.8254340    -1.7987290    -0.3567280
  H       -1.7546250    -1.1827800     1.2758720
  H       -3.3759370     0.0860600    -1.0167370
  H       -4.0604800    -0.8690500     0.3134070
  H       -3.3166340     0.7089420     0.6308410
units angstrom
no_reorient  #important for SAPT in psi4, default
symmetry c1  #important for SAPT in psi4, default
}

set PROPERTIES_ORIGIN ["COM"]
properties('MP2/aug-cc-pvtz', properties = ['dipole'])
--------------------------------------------------------------------------

    Molecular point group: c1
  Charge       = 0
  Multiplicity = 1
  Basis Set: AUG-CC-PVTZ
    Blend: AUG-CC-PVTZ
  Basis Set: (AUG-CC-PVTZ AUX)
    Blend: AUG-CC-PVTZ-JKFIT

    Orbital Energies [Eh]
    ---------------------

    Doubly Occupied:

       1A    -20.599228     2A    -20.541734     3A    -11.375440
       4A    -11.296043     5A    -11.236646     6A    -11.223510
       7A    -11.220183     8A    -11.214748     9A     -1.441278
      10A     -1.350049    11A     -1.080103    12A     -1.042834
      13A     -0.947332    14A     -0.898556    15A     -0.810781
      16A     -0.761220    17A     -0.694916    18A     -0.664353
      19A     -0.655512    20A     -0.620344    21A     -0.601262
      22A     -0.576130    23A     -0.556713    24A     -0.551579
      25A     -0.538920    26A     -0.516805    27A     -0.508107
      28A     -0.502782    29A     -0.494852    30A     -0.484303
      31A     -0.455490    32A     -0.437277

  @DF-RHF Final Energy:  -384.08591726560223

   => Energetics <=

    Nuclear Repulsion Energy =            395.3911838416274804
    One-Electron Energy =               -1307.1561398758153700
    Two-Electron Energy =                 527.6790387685856558
    Total Energy =                       -384.0859172656022338
  Basis Set: (AUG-CC-PVTZ AUX)
    Blend: AUG-CC-PVTZ-RI
    Molecular point group: c1

    Geometry (in Angstrom), charge = 0, multiplicity = 1:

       Center              X                  Y                   Z               Mass
    ------------   -----------------  -----------------  -----------------  -----------------
         O            0.418293627213    -0.608879685438     0.188621820388    15.994914619570
         O           -0.874022972787     1.092705114562    -0.710227579612    15.994914619570
         C            1.643788127213     0.167989414562    -0.180389279612    12.000000000000
         C            1.907195127213     1.222961414562     0.876420720388    12.000000000000
         C            2.739971127213    -0.870716585438    -0.281492279612    12.000000000000
         C           -1.892350872787    -0.873363585438     0.232359720388    12.000000000000
         C           -0.735964872787     0.011838414562    -0.161170279612    12.000000000000
         C           -3.236506872787    -0.193063585438     0.026044720388    12.000000000000
         H            1.469442127213     0.645374414562    -1.148775279612     1.007825032230
         H            2.831305127213     1.762764414562     0.650106720388     1.007825032230
         H            1.086899127213     1.941444414562     0.907527720388     1.007825032230
         H            2.011066127213     0.750147414562     1.856522720388     1.007825032230
         H            3.683938127213    -0.395499585438    -0.562419279612     1.007825032230
         H            2.489704127213    -1.622247585438    -1.033208279612     1.007825032230
         H            2.873817127213    -1.370781585438     0.680976720388     1.007825032230
         H           -1.816270872787    -1.793096585438    -0.359272279612     1.007825032230
         H           -1.745461872787    -1.177147585438     1.273327720388     1.007825032230
         H           -3.366773872787     0.091692414562    -1.019281279612     1.007825032230
         H           -4.051316872787    -0.863417585438     0.310862720388     1.007825032230
         H           -3.307470872787     0.714574414562     0.628296720388     1.007825032230

  Basis Set: AUG-CC-PVTZ
    Blend: AUG-CC-PVTZ
  Basis Set: (AUG-CC-PVTZ AUX)
    Blend: AUG-CC-PVTZ-JKFIT
	 Reference Energy          =    -384.0859172656022338 [Eh]
	 Singles Energy            =      -0.0000000000000000 [Eh]
	 Same-Spin Energy          =      -0.3844445724484141 [Eh]
	 Opposite-Spin Energy      =      -1.2877251511197663 [Eh]
	 Correlation Energy        =      -1.6721697235681803 [Eh]
	 Total Energy              =    -385.7580869891704083 [Eh]

	 ================> DF-SCS-MP2 Energies <==================
	-----------------------------------------------------------
	 SCS Same-Spin Scale       =       0.3333333333333333 [-]
	 SCS Opposite-Spin Scale   =       1.2000000000000000 [-]
	 SCS Same-Spin Energy      =      -0.1281481908161380 [Eh]
	 SCS Opposite-Spin Energy  =      -1.5452701813437195 [Eh]
	 SCS Correlation Energy    =      -1.6734183721598574 [Eh]
	 SCS Total Energy          =    -385.7593356377620921 [Eh]
	-----------------------------------------------------------

  Dipole Moment: [D]
     X:     1.1542      Y:    -1.1934      Z:     0.6539     Total:     1.7844

*** Psi4 exiting successfully. Buy a developer a beer!
