                               Psi4 1.3.2 release

  ==> Input File <==

--------------------------------------------------------------------------
#psi4
#
memory 32 gb

molecule  {
0 1
  O        0.4332560    -0.5778250     0.1734540
  O       -0.8408100     1.0912640    -0.7084360
  C        1.7172413     0.2132582    -0.2020033
  C        1.8980320     1.2173290     0.8789650
  C        2.7308080    -0.8763490    -0.2789480
  C       -1.9015140    -0.8789960     0.2349040
  C       -0.7451280     0.0062060    -0.1586260
  C       -3.2456700    -0.1986960     0.0285890
  H        1.4602790     0.6397420    -1.1462310
  H        2.8221420     1.7571320     0.6526510
  H        1.0777360     1.9358120     0.9100720
  H        2.0019030     0.7445150     1.8590670
  H        3.6747750    -0.4011320    -0.5598750
  H        2.4805410    -1.6278800    -1.0306640
  H        2.8646540    -1.3764140     0.6835210
  H       -1.8254340    -1.7987290    -0.3567280
  H       -1.7546250    -1.1827800     1.2758720
  H       -3.3759370     0.0860600    -1.0167370
  H       -4.0604800    -0.8690500     0.3134070
  H       -3.3166340     0.7089420     0.6308410
units angstrom
no_reorient  #important for SAPT in psi4, default
symmetry c1  #important for SAPT in psi4, default
}

set PROPERTIES_ORIGIN ["COM"]
properties('MP2/aug-cc-pvtz', properties = ['dipole'])
--------------------------------------------------------------------------

    Molecular point group: c1
  Charge       = 0
  Multiplicity = 1
  Basis Set: AUG-CC-PVTZ
    Blend: AUG-CC-PVTZ
  Basis Set: (AUG-CC-PVTZ AUX)
    Blend: AUG-CC-PVTZ-JKFIT

    Orbital Energies [Eh]
    ---------------------

    Doubly Occupied:

       1A    -20.580899     2A    -20.533408     3A    -11.368844
       4A    -11.295392     5A    -11.237457     6A    -11.224987
       7A    -11.220477     8A    -11.214963     9A     -1.427341
      10A     -1.332941    11A     -1.085876    12A     -1.045587
      13A     -0.953855    14A     -0.894051    15A     -0.811171
      16A     -0.753454    17A     -0.690618    18A     -0.656308
      19A     -0.649672    20A     -0.626365    21A     -0.600225
      22A     -0.571885    23A     -0.559960    24A     -0.550093
      25A     -0.536633    26A     -0.516646    27A     -0.514741
      28A     -0.502338    29A     -0.488309    30A     -0.486277
      31A     -0.449279    32A     -0.432746

  @DF-RHF Final Energy:  -384.08134579153227

   => Energetics <=

    Nuclear Repulsion Energy =            395.1444452720466529
    One-Electron Energy =               -1306.8259891509519548
    Two-Electron Energy =                 527.6001980873730872
    Total Energy =                       -384.0813457915322715
  Basis Set: (AUG-CC-PVTZ AUX)
    Blend: AUG-CC-PVTZ-RI
    Molecular point group: c1

    Geometry (in Angstrom), charge = 0, multiplicity = 1:

       Center              X                  Y                   Z               Mass
    ------------   -----------------  -----------------  -----------------  -----------------
         O            0.424715672812    -0.583086971084     0.175951275319    15.994914619570
         O           -0.849350327188     1.086002028916    -0.705938724681    15.994914619570
         C            1.708700972812     0.207996228916    -0.199506024681    12.000000000000
         C            1.889491672812     1.212067028916     0.881462275319    12.000000000000
         C            2.722267672812    -0.881610971084    -0.276450724681    12.000000000000
         C           -1.910054327188    -0.884257971084     0.237401275319    12.000000000000
         C           -0.753668327188     0.000944028916    -0.156128724681    12.000000000000
         C           -3.254210327188    -0.203957971084     0.031086275319    12.000000000000
         H            1.451738672812     0.634480028916    -1.143733724681     1.007825032230
         H            2.813601672812     1.751870028916     0.655148275319     1.007825032230
         H            1.069195672812     1.930550028916     0.912569275319     1.007825032230
         H            1.993362672812     0.739253028916     1.861564275319     1.007825032230
         H            3.666234672812    -0.406393971084    -0.557377724681     1.007825032230
         H            2.472000672812    -1.633141971084    -1.028166724681     1.007825032230
         H            2.856113672812    -1.381675971084     0.686018275319     1.007825032230
         H           -1.833974327188    -1.803990971084    -0.354230724681     1.007825032230
         H           -1.763165327188    -1.188041971084     1.278369275319     1.007825032230
         H           -3.384477327188     0.080798028916    -1.014239724681     1.007825032230
         H           -4.069020327188    -0.874311971084     0.315904275319     1.007825032230
         H           -3.325174327188     0.703680028916     0.633338275319     1.007825032230

  Basis Set: AUG-CC-PVTZ
    Blend: AUG-CC-PVTZ
  Basis Set: (AUG-CC-PVTZ AUX)
    Blend: AUG-CC-PVTZ-JKFIT
	 Reference Energy          =    -384.0813457915322715 [Eh]
	 Singles Energy            =      -0.0000000000000000 [Eh]
	 Same-Spin Energy          =      -0.3847317531296267 [Eh]
	 Opposite-Spin Energy      =      -1.2878007726801708 [Eh]
	 Correlation Energy        =      -1.6725325258097974 [Eh]
	 Total Energy              =    -385.7538783173420711 [Eh]

	 ================> DF-SCS-MP2 Energies <==================
	-----------------------------------------------------------
	 SCS Same-Spin Scale       =       0.3333333333333333 [-]
	 SCS Opposite-Spin Scale   =       1.2000000000000000 [-]
	 SCS Same-Spin Energy      =      -0.1282439177098755 [Eh]
	 SCS Opposite-Spin Energy  =      -1.5453609272162050 [Eh]
	 SCS Correlation Energy    =      -1.6736048449260805 [Eh]
	 SCS Total Energy          =    -385.7549506364583749 [Eh]
	-----------------------------------------------------------

  Dipole Moment: [D]
     X:     1.2735      Y:    -1.2210      Z:     0.6916     Total:     1.8949

*** Psi4 exiting successfully. Buy a developer a beer!
