                               Psi4 1.3.2 release

  ==> Input File <==

--------------------------------------------------------------------------
#psi4
#
memory 32 gb

molecule  {
0 1
  O        0.4091448    -0.6147177     0.1907539
  O       -0.8408100     1.0912640    -0.7084360
  C        1.6346250     0.1623570    -0.1778450
  C        1.8980320     1.2173290     0.8789650
  C        2.7308080    -0.8763490    -0.2789480
  C       -1.8670471    -0.9141701     0.2535419
  C       -0.7451280     0.0062060    -0.1586260
  C       -3.2456700    -0.1986960     0.0285890
  H        1.4602790     0.6397420    -1.1462310
  H        2.8221420     1.7571320     0.6526510
  H        1.0777360     1.9358120     0.9100720
  H        2.0019030     0.7445150     1.8590670
  H        3.6747750    -0.4011320    -0.5598750
  H        2.4805410    -1.6278800    -1.0306640
  H        2.8646540    -1.3764140     0.6835210
  H       -1.8254340    -1.7987290    -0.3567280
  H       -1.7546250    -1.1827800     1.2758720
  H       -3.3759370     0.0860600    -1.0167370
  H       -4.0604800    -0.8690500     0.3134070
  H       -3.3166340     0.7089420     0.6308410
units angstrom
no_reorient  #important for SAPT in psi4, default
symmetry c1  #important for SAPT in psi4, default
}

set PROPERTIES_ORIGIN ["COM"]
properties('MP2/aug-cc-pvtz', properties = ['dipole'])
--------------------------------------------------------------------------

    Molecular point group: c1
  Charge       = 0
  Multiplicity = 1
  Basis Set: AUG-CC-PVTZ
    Blend: AUG-CC-PVTZ
  Basis Set: (AUG-CC-PVTZ AUX)
    Blend: AUG-CC-PVTZ-JKFIT

    Orbital Energies [Eh]
    ---------------------

    Doubly Occupied:

       1A    -20.595842     2A    -20.542910     3A    -11.375977
       4A    -11.293761     5A    -11.236981     6A    -11.222184
       7A    -11.218851     8A    -11.217950     9A     -1.441810
      10A     -1.347779    11A     -1.079345    12A     -1.038503
      13A     -0.945948    14A     -0.898569    15A     -0.811544
      16A     -0.761225    17A     -0.695207    18A     -0.665845
      19A     -0.656902    20A     -0.620587    21A     -0.601825
      22A     -0.575275    23A     -0.553913    24A     -0.548985
      25A     -0.536737    26A     -0.518305    27A     -0.508388
      28A     -0.502216    29A     -0.492651    30A     -0.484815
      31A     -0.454447    32A     -0.439514

  @DF-RHF Final Energy:  -384.08364695956732

   => Energetics <=

    Nuclear Repulsion Energy =            395.3993250915352178
    One-Electron Energy =               -1307.1963596257355675
    Two-Electron Energy =                 527.7133875746329750
    Total Energy =                       -384.0836469595673179
  Basis Set: (AUG-CC-PVTZ AUX)
    Blend: AUG-CC-PVTZ-RI
    Molecular point group: c1

    Geometry (in Angstrom), charge = 0, multiplicity = 1:

       Center              X                  Y                   Z               Mass
    ------------   -----------------  -----------------  -----------------  -----------------
         O            0.408904080246    -0.605998390574     0.186443461387    15.994914619570
         O           -0.841050719754     1.099983309426    -0.712746438613    15.994914619570
         C            1.634384280246     0.171076309426    -0.182155438613    12.000000000000
         C            1.897791280246     1.226048309426     0.874654561387    12.000000000000
         C            2.730567280246    -0.867629690574    -0.283258438613    12.000000000000
         C           -1.867287819754    -0.905450790574     0.249231461387    12.000000000000
         C           -0.745368719754     0.014925309426    -0.162936438613    12.000000000000
         C           -3.245910719754    -0.189976690574     0.024278561387    12.000000000000
         H            1.460038280246     0.648461309426    -1.150541438613     1.007825032230
         H            2.821901280246     1.765851309426     0.648340561387     1.007825032230
         H            1.077495280246     1.944531309426     0.905761561387     1.007825032230
         H            2.001662280246     0.753234309426     1.854756561387     1.007825032230
         H            3.674534280246    -0.392412690574    -0.564185438613     1.007825032230
         H            2.480300280246    -1.619160690574    -1.034974438613     1.007825032230
         H            2.864413280246    -1.367694690574     0.679210561387     1.007825032230
         H           -1.825674719754    -1.790009690574    -0.361038438613     1.007825032230
         H           -1.754865719754    -1.174060690574     1.271561561387     1.007825032230
         H           -3.376177719754     0.094779309426    -1.021047438613     1.007825032230
         H           -4.060720719754    -0.860330690574     0.309096561387     1.007825032230
         H           -3.316874719754     0.717661309426     0.626530561387     1.007825032230

  Basis Set: AUG-CC-PVTZ
    Blend: AUG-CC-PVTZ
  Basis Set: (AUG-CC-PVTZ AUX)
    Blend: AUG-CC-PVTZ-JKFIT
	 Reference Energy          =    -384.0836469595673179 [Eh]
	 Singles Energy            =      -0.0000000000000000 [Eh]
	 Same-Spin Energy          =      -0.3843471465215633 [Eh]
	 Opposite-Spin Energy      =      -1.2878365954178030 [Eh]
	 Correlation Energy        =      -1.6721837419393664 [Eh]
	 Total Energy              =    -385.7558307015066816 [Eh]

	 ================> DF-SCS-MP2 Energies <==================
	-----------------------------------------------------------
	 SCS Same-Spin Scale       =       0.3333333333333333 [-]
	 SCS Opposite-Spin Scale   =       1.2000000000000000 [-]
	 SCS Same-Spin Energy      =      -0.1281157155071878 [Eh]
	 SCS Opposite-Spin Energy  =      -1.5454039145013636 [Eh]
	 SCS Correlation Energy    =      -1.6735196300085513 [Eh]
	 SCS Total Energy          =    -385.7571665895758883 [Eh]
	-----------------------------------------------------------

  Dipole Moment: [D]
     X:     1.0285      Y:    -1.2191      Z:     0.6580     Total:     1.7254

*** Psi4 exiting successfully. Buy a developer a beer!
