                               Psi4 1.3.2 release

  ==> Input File <==

--------------------------------------------------------------------------
#psi4
#
memory 32 gb

molecule  {
0 1
  O        0.4332560    -0.5778250     0.1734540
  O       -0.8408100     1.0912640    -0.7084360
  C        1.6201548     0.1807274    -0.1877071
  C        1.8980320     1.2173290     0.8789650
  C        2.7308080    -0.8763490    -0.2789480
  C       -1.9015140    -0.8789960     0.2349040
  C       -0.7332359     0.0245173    -0.1677770
  C       -3.2456700    -0.1986960     0.0285890
  H        1.4602790     0.6397420    -1.1462310
  H        2.8221420     1.7571320     0.6526510
  H        1.0777360     1.9358120     0.9100720
  H        2.0019030     0.7445150     1.8590670
  H        3.6747750    -0.4011320    -0.5598750
  H        2.4805410    -1.6278800    -1.0306640
  H        2.8646540    -1.3764140     0.6835210
  H       -1.8254340    -1.7987290    -0.3567280
  H       -1.7546250    -1.1827800     1.2758720
  H       -3.3759370     0.0860600    -1.0167370
  H       -4.0604800    -0.8690500     0.3134070
  H       -3.3166340     0.7089420     0.6308410
units angstrom
no_reorient  #important for SAPT in psi4, default
symmetry c1  #important for SAPT in psi4, default
}

set PROPERTIES_ORIGIN ["COM"]
properties('MP2/aug-cc-pvtz', properties = ['dipole'])
--------------------------------------------------------------------------

    Molecular point group: c1
  Charge       = 0
  Multiplicity = 1
  Basis Set: AUG-CC-PVTZ
    Blend: AUG-CC-PVTZ
  Basis Set: (AUG-CC-PVTZ AUX)
    Blend: AUG-CC-PVTZ-JKFIT

    Orbital Energies [Eh]
    ---------------------

    Doubly Occupied:

       1A    -20.595910     2A    -20.543799     3A    -11.374924
       4A    -11.288853     5A    -11.241176     6A    -11.220869
       7A    -11.217302     8A    -11.216695     9A     -1.453421
      10A     -1.360626    11A     -1.076507    12A     -1.041134
      13A     -0.943319    14A     -0.898986    15A     -0.815350
      16A     -0.764764    17A     -0.699248    18A     -0.668982
      19A     -0.657827    20A     -0.618547    21A     -0.603301
      22A     -0.575038    23A     -0.555757    24A     -0.549541
      25A     -0.537923    26A     -0.519964    27A     -0.509652
      28A     -0.507007    29A     -0.494980    30A     -0.484169
      31A     -0.453445    32A     -0.437674

  @DF-RHF Final Energy:  -384.09027415441591

   => Energetics <=

    Nuclear Repulsion Energy =            396.5571652984706930
    One-Electron Energy =               -1309.4414986731701447
    Two-Electron Energy =                 528.7940592202835433
    Total Energy =                       -384.0902741544159653
  Basis Set: (AUG-CC-PVTZ AUX)
    Blend: AUG-CC-PVTZ-RI
    Molecular point group: c1

    Geometry (in Angstrom), charge = 0, multiplicity = 1:

       Center              X                  Y                   Z               Mass
    ------------   -----------------  -----------------  -----------------  -----------------
         O            0.433522529753    -0.581617049325     0.175419397163    15.994914619570
         O           -0.840543470247     1.087471950675    -0.706470602837    15.994914619570
         C            1.620421329753     0.176935350675    -0.185741702837    12.000000000000
         C            1.898298529753     1.213536950675     0.880930397163    12.000000000000
         C            2.731074529753    -0.880141049325    -0.276982602837    12.000000000000
         C           -1.901247470247    -0.882788049325     0.236869397163    12.000000000000
         C           -0.732969370247     0.020725250675    -0.165811602837    12.000000000000
         C           -3.245403470247    -0.202488049325     0.030554397163    12.000000000000
         H            1.460545529753     0.635949950675    -1.144265602837     1.007825032230
         H            2.822408529753     1.753339950675     0.654616397163     1.007825032230
         H            1.078002529753     1.932019950675     0.912037397163     1.007825032230
         H            2.002169529753     0.740722950675     1.861032397163     1.007825032230
         H            3.675041529753    -0.404924049325    -0.557909602837     1.007825032230
         H            2.480807529753    -1.631672049325    -1.028698602837     1.007825032230
         H            2.864920529753    -1.380206049325     0.685486397163     1.007825032230
         H           -1.825167470247    -1.802521049325    -0.354762602837     1.007825032230
         H           -1.754358470247    -1.186572049325     1.277837397163     1.007825032230
         H           -3.375670470247     0.082267950675    -1.014771602837     1.007825032230
         H           -4.060213470247    -0.872842049325     0.315372397163     1.007825032230
         H           -3.316367470247     0.705149950675     0.632806397163     1.007825032230

  Basis Set: AUG-CC-PVTZ
    Blend: AUG-CC-PVTZ
  Basis Set: (AUG-CC-PVTZ AUX)
    Blend: AUG-CC-PVTZ-JKFIT
	 Reference Energy          =    -384.0902741544159085 [Eh]
	 Singles Energy            =      -0.0000000000000000 [Eh]
	 Same-Spin Energy          =      -0.3835214440020471 [Eh]
	 Opposite-Spin Energy      =      -1.2854930006386609 [Eh]
	 Correlation Energy        =      -1.6690144446407080 [Eh]
	 Total Energy              =    -385.7592885990566174 [Eh]

	 ================> DF-SCS-MP2 Energies <==================
	-----------------------------------------------------------
	 SCS Same-Spin Scale       =       0.3333333333333333 [-]
	 SCS Opposite-Spin Scale   =       1.2000000000000000 [-]
	 SCS Same-Spin Energy      =      -0.1278404813340157 [Eh]
	 SCS Opposite-Spin Energy  =      -1.5425916007663931 [Eh]
	 SCS Correlation Energy    =      -1.6704320821004088 [Eh]
	 SCS Total Energy          =    -385.7607062365163415 [Eh]
	-----------------------------------------------------------

  Dipole Moment: [D]
     X:     0.8417      Y:    -1.1890      Z:     0.6350     Total:     1.5891

*** Psi4 exiting successfully. Buy a developer a beer!
