                               Psi4 1.3.2 release

  ==> Input File <==

--------------------------------------------------------------------------
#psi4
#
memory 32 gb

molecule  {
0 1
  O        0.4278278    -0.5740458     0.1626242
  O       -0.8408100     1.0912640    -0.7084360
  C        1.6346250     0.1623570    -0.1778450
  C        1.8980320     1.2173290     0.8789650
  C        2.7308080    -0.8763490    -0.2789480
  C       -1.9015140    -0.8789960     0.2349040
  C       -0.7451280     0.0062060    -0.1586260
  C       -3.2456700    -0.1986960     0.0285890
  H        1.4515220     0.6359552    -1.1464742
  H        2.8221420     1.7571320     0.6526510
  H        1.0777360     1.9358120     0.9100720
  H        2.0019030     0.7445150     1.8590670
  H        3.6747750    -0.4011320    -0.5598750
  H        2.4805410    -1.6278800    -1.0306640
  H        2.8646540    -1.3764140     0.6835210
  H       -1.8254340    -1.7987290    -0.3567280
  H       -1.7546250    -1.1827800     1.2758720
  H       -3.3759370     0.0860600    -1.0167370
  H       -4.0604800    -0.8690500     0.3134070
  H       -3.3166340     0.7089420     0.6308410
units angstrom
no_reorient  #important for SAPT in psi4, default
symmetry c1  #important for SAPT in psi4, default
}

set PROPERTIES_ORIGIN ["COM"]
properties('MP2/aug-cc-pvtz', properties = ['dipole'])
--------------------------------------------------------------------------

    Molecular point group: c1
  Charge       = 0
  Multiplicity = 1
  Basis Set: AUG-CC-PVTZ
    Blend: AUG-CC-PVTZ
  Basis Set: (AUG-CC-PVTZ AUX)
    Blend: AUG-CC-PVTZ-JKFIT

    Orbital Energies [Eh]
    ---------------------

    Doubly Occupied:

       1A    -20.595127     2A    -20.538850     3A    -11.375587
       4A    -11.290265     5A    -11.242133     6A    -11.221367
       7A    -11.218195     8A    -11.216872     9A     -1.450461
      10A     -1.349081    11A     -1.081061    12A     -1.044898
      13A     -0.945301    14A     -0.903506    15A     -0.817239
      16A     -0.760581    17A     -0.697643    18A     -0.667401
      19A     -0.656808    20A     -0.621286    21A     -0.603216
      22A     -0.572996    23A     -0.558088    24A     -0.549269
      25A     -0.537550    26A     -0.519577    27A     -0.510064
      28A     -0.506025    29A     -0.494162    30A     -0.480493
      31A     -0.450856    32A     -0.439028

  @DF-RHF Final Energy:  -384.09083685953590

   => Energetics <=

    Nuclear Repulsion Energy =            396.5800469759174121
    One-Electron Energy =               -1309.5117946878983730
    Two-Electron Energy =                 528.8409108524450630
    Total Energy =                       -384.0908368595358979
  Basis Set: (AUG-CC-PVTZ AUX)
    Blend: AUG-CC-PVTZ-RI
    Molecular point group: c1

    Geometry (in Angstrom), charge = 0, multiplicity = 1:

       Center              X                  Y                   Z               Mass
    ------------   -----------------  -----------------  -----------------  -----------------
         O            0.428651788749    -0.574533778619     0.164118468515    15.994914619570
         O           -0.839986011251     1.090776021381    -0.706941731485    15.994914619570
         C            1.635448988749     0.161869021381    -0.176350731485    12.000000000000
         C            1.898855988749     1.216841021381     0.880459268515    12.000000000000
         C            2.731631988749    -0.876836978619    -0.277453731485    12.000000000000
         C           -1.900690011251    -0.879483978619     0.236398268515    12.000000000000
         C           -0.744304011251     0.005718021381    -0.157131731485    12.000000000000
         C           -3.244846011251    -0.199183978619     0.030083268515    12.000000000000
         H            1.452345988749     0.635467221381    -1.144979931485     1.007825032230
         H            2.822965988749     1.756644021381     0.654145268515     1.007825032230
         H            1.078559988749     1.935324021381     0.911566268515     1.007825032230
         H            2.002726988749     0.744027021381     1.860561268515     1.007825032230
         H            3.675598988749    -0.401619978619    -0.558380731485     1.007825032230
         H            2.481364988749    -1.628367978619    -1.029169731485     1.007825032230
         H            2.865477988749    -1.376901978619     0.685015268515     1.007825032230
         H           -1.824610011251    -1.799216978619    -0.355233731485     1.007825032230
         H           -1.753801011251    -1.183267978619     1.277366268515     1.007825032230
         H           -3.375113011251     0.085572021381    -1.015242731485     1.007825032230
         H           -4.059656011251    -0.869537978619     0.314901268515     1.007825032230
         H           -3.315810011251     0.708454021381     0.632335268515     1.007825032230

  Basis Set: AUG-CC-PVTZ
    Blend: AUG-CC-PVTZ
  Basis Set: (AUG-CC-PVTZ AUX)
    Blend: AUG-CC-PVTZ-JKFIT
	 Reference Energy          =    -384.0908368595358979 [Eh]
	 Singles Energy            =      -0.0000000000000000 [Eh]
	 Same-Spin Energy          =      -0.3839104714272854 [Eh]
	 Opposite-Spin Energy      =      -1.2858401550100935 [Eh]
	 Correlation Energy        =      -1.6697506264373789 [Eh]
	 Total Energy              =    -385.7605874859733035 [Eh]

	 ================> DF-SCS-MP2 Energies <==================
	-----------------------------------------------------------
	 SCS Same-Spin Scale       =       0.3333333333333333 [-]
	 SCS Opposite-Spin Scale   =       1.2000000000000000 [-]
	 SCS Same-Spin Energy      =      -0.1279701571424285 [Eh]
	 SCS Opposite-Spin Energy  =      -1.5430081860121121 [Eh]
	 SCS Correlation Energy    =      -1.6709783431545406 [Eh]
	 SCS Total Energy          =    -385.7618152026904568 [Eh]
	-----------------------------------------------------------

  Dipole Moment: [D]
     X:     0.8766      Y:    -1.3356      Z:     0.7118     Total:     1.7490

*** Psi4 exiting successfully. Buy a developer a beer!
