                               Psi4 1.3.2 release

  ==> Input File <==

--------------------------------------------------------------------------
#psi4
#
memory 32 gb

molecule  {
0 1
  O        0.4332560    -0.5778250     0.1734540
  O       -0.8408100     1.0912640    -0.7084360
  C        1.6346250     0.1623570    -0.1778450
  C        1.8980320     1.2173290     0.8789650
  C        2.7308080    -0.8763490    -0.2789480
  C       -1.9015140    -0.8789960     0.2349040
  C       -0.7622747     0.0422888    -0.1243246
  C       -3.2456700    -0.1986960     0.0285890
  H        1.4602790     0.6397420    -1.1462310
  H        2.8221420     1.7571320     0.6526510
  H        1.0777360     1.9358120     0.9100720
  H        2.0019030     0.7445150     1.8590670
  H        3.6747750    -0.4011320    -0.5598750
  H        2.4805410    -1.6278800    -1.0306640
  H        2.8646540    -1.3764140     0.6835210
  H       -1.8570365    -1.8116567    -0.3394575
  H       -1.7546250    -1.1827800     1.2758720
  H       -3.3759370     0.0860600    -1.0167370
  H       -4.0604800    -0.8690500     0.3134070
  H       -3.3166340     0.7089420     0.6308410
units angstrom
no_reorient  #important for SAPT in psi4, default
symmetry c1  #important for SAPT in psi4, default
}

set PROPERTIES_ORIGIN ["COM"]
properties('MP2/aug-cc-pvtz', properties = ['dipole'])
--------------------------------------------------------------------------

    Molecular point group: c1
  Charge       = 0
  Multiplicity = 1
  Basis Set: AUG-CC-PVTZ
    Blend: AUG-CC-PVTZ
  Basis Set: (AUG-CC-PVTZ AUX)
    Blend: AUG-CC-PVTZ-JKFIT

    Orbital Energies [Eh]
    ---------------------

    Doubly Occupied:

       1A    -20.589806     2A    -20.546443     3A    -11.377367
       4A    -11.287057     5A    -11.243102     6A    -11.219152
       7A    -11.218858     8A    -11.215397     9A     -1.445632
      10A     -1.355362    11A     -1.078279    12A     -1.044378
      13A     -0.943544    14A     -0.901204    15A     -0.812091
      16A     -0.757617    17A     -0.702082    18A     -0.665624
      19A     -0.657452    20A     -0.620578    21A     -0.603105
      22A     -0.573173    23A     -0.556300    24A     -0.547441
      25A     -0.537064    26A     -0.521800    27A     -0.509480
      28A     -0.506798    29A     -0.494522    30A     -0.480541
      31A     -0.451048    32A     -0.441071

  @DF-RHF Final Energy:  -384.08821561275158

   => Energetics <=

    Nuclear Repulsion Energy =            396.2822714424396509
    One-Electron Energy =               -1308.9342372420471747
    Two-Electron Energy =                 528.5637501868559411
    Total Energy =                       -384.0882156127515827
  Basis Set: (AUG-CC-PVTZ AUX)
    Blend: AUG-CC-PVTZ-RI
    Molecular point group: c1

    Geometry (in Angstrom), charge = 0, multiplicity = 1:

       Center              X                  Y                   Z               Mass
    ------------   -----------------  -----------------  -----------------  -----------------
         O            0.435302908375    -0.581442902098     0.169758141754    15.994914619570
         O           -0.838763091625     1.087646097902    -0.712131858246    15.994914619570
         C            1.636671908375     0.158739097902    -0.181540858246    12.000000000000
         C            1.900078908375     1.213711097902     0.875269141754    12.000000000000
         C            2.732854908375    -0.879966902098    -0.282643858246    12.000000000000
         C           -1.899467091625    -0.882613902098     0.231208141754    12.000000000000
         C           -0.760227791625     0.038670897902    -0.128020458246    12.000000000000
         C           -3.243623091625    -0.202313902098     0.024893141754    12.000000000000
         H            1.462325908375     0.636124097902    -1.149926858246     1.007825032230
         H            2.824188908375     1.753514097902     0.648955141754     1.007825032230
         H            1.079782908375     1.932194097902     0.906376141754     1.007825032230
         H            2.003949908375     0.740897097902     1.855371141754     1.007825032230
         H            3.676821908375    -0.404749902098    -0.563570858246     1.007825032230
         H            2.482587908375    -1.631497902098    -1.034359858246     1.007825032230
         H            2.866700908375    -1.380031902098     0.679825141754     1.007825032230
         H           -1.854989591625    -1.815274602098    -0.343153358246     1.007825032230
         H           -1.752578091625    -1.186397902098     1.272176141754     1.007825032230
         H           -3.373890091625     0.082442097902    -1.020432858246     1.007825032230
         H           -4.058433091625    -0.872667902098     0.309711141754     1.007825032230
         H           -3.314587091625     0.705324097902     0.627145141754     1.007825032230

  Basis Set: AUG-CC-PVTZ
    Blend: AUG-CC-PVTZ
  Basis Set: (AUG-CC-PVTZ AUX)
    Blend: AUG-CC-PVTZ-JKFIT
	 Reference Energy          =    -384.0882156127515827 [Eh]
	 Singles Energy            =      -0.0000000000000000 [Eh]
	 Same-Spin Energy          =      -0.3840362947257623 [Eh]
	 Opposite-Spin Energy      =      -1.2864024417469033 [Eh]
	 Correlation Energy        =      -1.6704387364726656 [Eh]
	 Total Energy              =    -385.7586543492242299 [Eh]

	 ================> DF-SCS-MP2 Energies <==================
	-----------------------------------------------------------
	 SCS Same-Spin Scale       =       0.3333333333333333 [-]
	 SCS Opposite-Spin Scale   =       1.2000000000000000 [-]
	 SCS Same-Spin Energy      =      -0.1280120982419208 [Eh]
	 SCS Opposite-Spin Energy  =      -1.5436829300962840 [Eh]
	 SCS Correlation Energy    =      -1.6716950283382048 [Eh]
	 SCS Total Energy          =    -385.7599106410897889 [Eh]
	-----------------------------------------------------------

  Dipole Moment: [D]
     X:     0.6399      Y:    -1.2132      Z:     0.6655     Total:     1.5245

*** Psi4 exiting successfully. Buy a developer a beer!
