                               Psi4 1.3.2 release

  ==> Input File <==

--------------------------------------------------------------------------
#psi4
#
memory 32 gb

molecule  {
0 1
  O        0.4390642    -0.5685403     0.1689619
  O       -0.8301957     1.0921054    -0.7085195
  C        1.6346250     0.1623570    -0.1778450
  C        1.8980320     1.2173290     0.8789650
  C        2.7308080    -0.8763490    -0.2789480
  C       -1.9015140    -0.8789960     0.2349040
  C       -0.7451280     0.0062060    -0.1586260
  C       -3.2456700    -0.1986960     0.0285890
  H        1.4602790     0.6397420    -1.1462310
  H        2.8221420     1.7571320     0.6526510
  H        1.0777360     1.9358120     0.9100720
  H        2.0019030     0.7445150     1.8590670
  H        3.6747750    -0.4011320    -0.5598750
  H        2.4805410    -1.6278800    -1.0306640
  H        2.8646540    -1.3764140     0.6835210
  H       -1.8254340    -1.7987290    -0.3567280
  H       -1.7546250    -1.1827800     1.2758720
  H       -3.3759370     0.0860600    -1.0167370
  H       -4.0604800    -0.8690500     0.3134070
  H       -3.3166340     0.7089420     0.6308410
units angstrom
no_reorient  #important for SAPT in psi4, default
symmetry c1  #important for SAPT in psi4, default
}

set PROPERTIES_ORIGIN ["COM"]
properties('MP2/aug-cc-pvtz', properties = ['dipole'])
--------------------------------------------------------------------------

    Molecular point group: c1
  Charge       = 0
  Multiplicity = 1
  Basis Set: AUG-CC-PVTZ
    Blend: AUG-CC-PVTZ
  Basis Set: (AUG-CC-PVTZ AUX)
    Blend: AUG-CC-PVTZ-JKFIT

    Orbital Energies [Eh]
    ---------------------

    Doubly Occupied:

       1A    -20.594119     2A    -20.540491     3A    -11.377378
       4A    -11.288072     5A    -11.244063     6A    -11.220072
       7A    -11.219509     8A    -11.215330     9A     -1.449661
      10A     -1.349708    11A     -1.080580    12A     -1.045192
      13A     -0.944218    14A     -0.904403    15A     -0.817121
      16A     -0.760391    17A     -0.698852    18A     -0.667214
      19A     -0.656660    20A     -0.621008    21A     -0.603734
      22A     -0.572290    23A     -0.557746    24A     -0.548136
      25A     -0.536826    26A     -0.520777    27A     -0.511132
      28A     -0.506555    29A     -0.494661    30A     -0.479208
      31A     -0.450050    32A     -0.439709

  @DF-RHF Final Energy:  -384.09052444968103

   => Energetics <=

    Nuclear Repulsion Energy =            396.6319185358330515
    One-Electron Energy =               -1309.6151506496898946
    Two-Electron Energy =                 528.8927076641757594
    Total Energy =                       -384.0905244496810838
  Basis Set: (AUG-CC-PVTZ AUX)
    Blend: AUG-CC-PVTZ-RI
    Molecular point group: c1

    Geometry (in Angstrom), charge = 0, multiplicity = 1:

       Center              X                  Y                   Z               Mass
    ------------   -----------------  -----------------  -----------------  -----------------
         O            0.436801402980    -0.569935680163     0.169592305006    15.994914619570
         O           -0.832458497020     1.090710019837    -0.707889094994    15.994914619570
         C            1.632362202980     0.160961619837    -0.177214594994    12.000000000000
         C            1.895769202980     1.215933619837     0.879595405006    12.000000000000
         C            2.728545202980    -0.877744380163    -0.278317594994    12.000000000000
         C           -1.903776797020    -0.880391380163     0.235534405006    12.000000000000
         C           -0.747390797020     0.004810619837    -0.157995594994    12.000000000000
         C           -3.247932797020    -0.200091380163     0.029219405006    12.000000000000
         H            1.458016202980     0.638346619837    -1.145600594994     1.007825032230
         H            2.819879202980     1.755736619837     0.653281405006     1.007825032230
         H            1.075473202980     1.934416619837     0.910702405006     1.007825032230
         H            1.999640202980     0.743119619837     1.859697405006     1.007825032230
         H            3.672512202980    -0.402527380163    -0.559244594994     1.007825032230
         H            2.478278202980    -1.629275380163    -1.030033594994     1.007825032230
         H            2.862391202980    -1.377809380163     0.684151405006     1.007825032230
         H           -1.827696797020    -1.800124380163    -0.356097594994     1.007825032230
         H           -1.756887797020    -1.184175380163     1.276502405006     1.007825032230
         H           -3.378199797020     0.084664619837    -1.016106594994     1.007825032230
         H           -4.062742797020    -0.870445380163     0.314037405006     1.007825032230
         H           -3.318896797020     0.707546619837     0.631471405006     1.007825032230

  Basis Set: AUG-CC-PVTZ
    Blend: AUG-CC-PVTZ
  Basis Set: (AUG-CC-PVTZ AUX)
    Blend: AUG-CC-PVTZ-JKFIT
	 Reference Energy          =    -384.0905244496810269 [Eh]
	 Singles Energy            =      -0.0000000000000000 [Eh]
	 Same-Spin Energy          =      -0.3839884276869246 [Eh]
	 Opposite-Spin Energy      =      -1.2859625240176826 [Eh]
	 Correlation Energy        =      -1.6699509517046072 [Eh]
	 Total Energy              =    -385.7604754013856336 [Eh]

	 ================> DF-SCS-MP2 Energies <==================
	-----------------------------------------------------------
	 SCS Same-Spin Scale       =       0.3333333333333333 [-]
	 SCS Opposite-Spin Scale   =       1.2000000000000000 [-]
	 SCS Same-Spin Energy      =      -0.1279961425623082 [Eh]
	 SCS Opposite-Spin Energy  =      -1.5431550288212190 [Eh]
	 SCS Correlation Energy    =      -1.6711511713835272 [Eh]
	 SCS Total Energy          =    -385.7616756210645690 [Eh]
	-----------------------------------------------------------

  Dipole Moment: [D]
     X:     0.7331      Y:    -1.3468      Z:     0.6939     Total:     1.6831

*** Psi4 exiting successfully. Buy a developer a beer!
