                               Psi4 1.3.2 release

  ==> Input File <==

--------------------------------------------------------------------------
#psi4
#
memory 32 gb

molecule  {
0 1
  O        0.4332560    -0.5778250     0.1734540
  O       -0.8408100     1.0912640    -0.7084360
  C        1.4693925     0.0605547    -0.1295284
  C        1.8980320     1.2173290     0.8789650
  C        2.7308080    -0.8763490    -0.2789480
  C       -1.9015140    -0.8789960     0.2349040
  C       -0.7451280     0.0062060    -0.1586260
  C       -3.2456700    -0.1986960     0.0285890
  H        1.4602790     0.6397420    -1.1462310
  H        2.8221420     1.7571320     0.6526510
  H        1.0777360     1.9358120     0.9100720
  H        2.0019030     0.7445150     1.8590670
  H        3.6747750    -0.4011320    -0.5598750
  H        2.4805410    -1.6278800    -1.0306640
  H        2.8646540    -1.3764140     0.6835210
  H       -1.8254340    -1.7987290    -0.3567280
  H       -1.7546250    -1.1827800     1.2758720
  H       -3.3759370     0.0860600    -1.0167370
  H       -4.0604800    -0.8690500     0.3134070
  H       -3.3166340     0.7089420     0.6308410
units angstrom
no_reorient  #important for SAPT in psi4, default
symmetry c1  #important for SAPT in psi4, default
}

set PROPERTIES_ORIGIN ["COM"]
properties('MP2/aug-cc-pvtz', properties = ['dipole'])
--------------------------------------------------------------------------

    Molecular point group: c1
  Charge       = 0
  Multiplicity = 1
  Basis Set: AUG-CC-PVTZ
    Blend: AUG-CC-PVTZ
  Basis Set: (AUG-CC-PVTZ AUX)
    Blend: AUG-CC-PVTZ-JKFIT

    Orbital Energies [Eh]
    ---------------------

    Doubly Occupied:

       1A    -20.618264     2A    -20.556257     3A    -11.392594
       4A    -11.288950     5A    -11.252258     6A    -11.225297
       7A    -11.214817     8A    -11.209284     9A     -1.515881
      10A     -1.381008    11A     -1.084841    12A     -1.032700
      13A     -0.932354    14A     -0.924837    15A     -0.841119
      16A     -0.770003    17A     -0.713474    18A     -0.697095
      19A     -0.670057    20A     -0.627130    21A     -0.611841
      22A     -0.574515    23A     -0.561642    24A     -0.539087
      25A     -0.535354    26A     -0.531792    27A     -0.528023
      28A     -0.510553    29A     -0.497350    30A     -0.460668
      31A     -0.437677    32A     -0.412296

  @DF-RHF Final Energy:  -384.04959980600267

   => Energetics <=

    Nuclear Repulsion Energy =            399.1535769273934307
    One-Electron Energy =               -1314.1083087751287621
    Two-Electron Energy =                 530.9051320417325996
    Total Energy =                       -384.0495998060026750
  Basis Set: (AUG-CC-PVTZ AUX)
    Blend: AUG-CC-PVTZ-RI
    Molecular point group: c1

    Geometry (in Angstrom), charge = 0, multiplicity = 1:

       Center              X                  Y                   Z               Mass
    ------------   -----------------  -----------------  -----------------  -----------------
         O            0.450336710399    -0.567301451391     0.168459279646    15.994914619570
         O           -0.823729289601     1.101787548609    -0.713430720354    15.994914619570
         C            1.486473210399     0.071078248609    -0.134523120354    12.000000000000
         C            1.915112710399     1.227852548609     0.873970279646    12.000000000000
         C            2.747888710399    -0.865825451391    -0.283942720354    12.000000000000
         C           -1.884433289601    -0.868472451391     0.229909279646    12.000000000000
         C           -0.728047289601     0.016729548609    -0.163620720354    12.000000000000
         C           -3.228589289601    -0.188172451391     0.023594279646    12.000000000000
         H            1.477359710399     0.650265548609    -1.151225720354     1.007825032230
         H            2.839222710399     1.767655548609     0.647656279646     1.007825032230
         H            1.094816710399     1.946335548609     0.905077279646     1.007825032230
         H            2.018983710399     0.755038548609     1.854072279646     1.007825032230
         H            3.691855710399    -0.390608451391    -0.564869720354     1.007825032230
         H            2.497621710399    -1.617356451391    -1.035658720354     1.007825032230
         H            2.881734710399    -1.365890451391     0.678526279646     1.007825032230
         H           -1.808353289601    -1.788205451391    -0.361722720354     1.007825032230
         H           -1.737544289601    -1.172256451391     1.270877279646     1.007825032230
         H           -3.358856289601     0.096583548609    -1.021731720354     1.007825032230
         H           -4.043399289601    -0.858526451391     0.308412279646     1.007825032230
         H           -3.299553289601     0.719465548609     0.625846279646     1.007825032230

  Basis Set: AUG-CC-PVTZ
    Blend: AUG-CC-PVTZ
  Basis Set: (AUG-CC-PVTZ AUX)
    Blend: AUG-CC-PVTZ-JKFIT
	 Reference Energy          =    -384.0495998060026750 [Eh]
	 Singles Energy            =      -0.0000000000000000 [Eh]
	 Same-Spin Energy          =      -0.3848770334477890 [Eh]
	 Opposite-Spin Energy      =      -1.2864807238166167 [Eh]
	 Correlation Energy        =      -1.6713577572644056 [Eh]
	 Total Energy              =    -385.7209575632670635 [Eh]

	 ================> DF-SCS-MP2 Energies <==================
	-----------------------------------------------------------
	 SCS Same-Spin Scale       =       0.3333333333333333 [-]
	 SCS Opposite-Spin Scale   =       1.2000000000000000 [-]
	 SCS Same-Spin Energy      =      -0.1282923444825963 [Eh]
	 SCS Opposite-Spin Energy  =      -1.5437768685799400 [Eh]
	 SCS Correlation Energy    =      -1.6720692130625363 [Eh]
	 SCS Total Energy          =    -385.7216690190651889 [Eh]
	-----------------------------------------------------------

  Dipole Moment: [D]
     X:    -0.1435      Y:    -1.5350      Z:     0.6985     Total:     1.6925

*** Psi4 exiting successfully. Buy a developer a beer!
