                               Psi4 1.4a3.dev225

  ==> Input File <==

--------------------------------------------------------------------------
#psi4
#
memory 32 gb

molecule  {
0 1
  O        0.3891610    -0.5692390     0.2103150
  O       -0.8187590     1.0859660    -0.7901910
  C        1.6201550     0.0566620    -0.2576010
  C        1.9966600     1.1837410     0.6861130
  C        2.6439510    -1.0589150    -0.3056920
  C       -1.9560750    -0.6909180     0.4160040
  C       -0.7655027     0.0760844    -0.1418177
  C       -3.2763650    -0.0323590     0.0421060
  H        1.4292650     0.4552490    -1.2581690
  H        2.9411400     1.6393830     0.3731600
  H        1.2237650     1.9545110     0.6843630
  H        2.1165080     0.7943580     1.7011000
  H        3.6013200    -0.6740400    -0.6688000
  H        2.3119000    -1.8571380    -0.9736080
  H        2.7925020    -1.4784670     0.6929400
  H       -1.8998650    -1.7205910     0.0458690
  H       -1.8337900    -0.7582950     1.5029030
  H       -3.3906490     0.0180570    -1.0424220
  H       -4.1145290    -0.5997430     0.4548680
  H       -3.3230440     0.9880080     0.4273560
units angstrom
no_reorient  #important for SAPT in psi4, default
symmetry c1  #important for SAPT in psi4, default
}

set PROPERTIES_ORIGIN ["COM"]
properties('MP2/aug-cc-pvtz', properties = ['dipole'])
--------------------------------------------------------------------------

    Molecular point group: c1
  Charge       = 0
  Multiplicity = 1
  Basis Set: AUG-CC-PVTZ
    Blend: AUG-CC-PVTZ
  Basis Set: (AUG-CC-PVTZ AUX)
    Blend: AUG-CC-PVTZ-JKFIT

    Orbital Energies [Eh]
    ---------------------

    Doubly Occupied:

       1A    -20.592177     2A    -20.544882     3A    -11.375844
       4A    -11.288944     5A    -11.242465     6A    -11.220415
       7A    -11.218254     8A    -11.216657     9A     -1.447941
      10A     -1.357549    11A     -1.077157    12A     -1.042628
      13A     -0.944146    14A     -0.899827    15A     -0.812489
      16A     -0.759582    17A     -0.699560    18A     -0.667227
      19A     -0.655350    20A     -0.620424    21A     -0.602953
      22A     -0.573834    23A     -0.557478    24A     -0.548043
      25A     -0.536994    26A     -0.520726    27A     -0.509316
      28A     -0.507330    29A     -0.495545    30A     -0.481599
      31A     -0.451906    32A     -0.439274

  @DF-RHF Final Energy:  -384.09045103393055

   => Energetics <=

    Nuclear Repulsion Energy =            395.9709677747402452
    One-Electron Energy =               -1308.3058015245412662
    Two-Electron Energy =                 528.2443827158704153
    Total Energy =                       -384.0904510339305489
  Basis Set: (AUG-CC-PVTZ AUX)
    Blend: AUG-CC-PVTZ-RI
    Molecular point group: c1

    Geometry (in Angstrom), charge = 0, multiplicity = 1:

       Center              X                  Y                   Z               Mass
    ------------   -----------------  -----------------  -----------------  -----------------
         O            0.405084584075    -0.581541741488     0.227983129694    15.994914619570
         O           -0.802835415925     1.073663258512    -0.772522870306    15.994914619570
         C            1.636078584075     0.044359258512    -0.239932870306    12.000000000000
         C            2.012583584075     1.171438258512     0.703781129694    12.000000000000
         C            2.659874584075    -1.071217741488    -0.288023870306    12.000000000000
         C           -1.940151415925    -0.703220741488     0.433672129694    12.000000000000
         C           -0.749579115925     0.063781658512    -0.124149570306    12.000000000000
         C           -3.260441415925    -0.044661741488     0.059774129694    12.000000000000
         H            1.445188584075     0.442946258512    -1.240500870306     1.007825032230
         H            2.957063584075     1.627080258512     0.390828129694     1.007825032230
         H            1.239688584075     1.942208258512     0.702031129694     1.007825032230
         H            2.132431584075     0.782055258512     1.718768129694     1.007825032230
         H            3.617243584075    -0.686342741488    -0.651131870306     1.007825032230
         H            2.327823584075    -1.869440741488    -0.955939870306     1.007825032230
         H            2.808425584075    -1.490769741488     0.710608129694     1.007825032230
         H           -1.883941415925    -1.732893741488     0.063537129694     1.007825032230
         H           -1.817866415925    -0.770597741488     1.520571129694     1.007825032230
         H           -3.374725415925     0.005754258512    -1.024753870306     1.007825032230
         H           -4.098605415925    -0.612045741488     0.472536129694     1.007825032230
         H           -3.307120415925     0.975705258512     0.445024129694     1.007825032230

  Basis Set: AUG-CC-PVTZ
    Blend: AUG-CC-PVTZ
  Basis Set: (AUG-CC-PVTZ AUX)
    Blend: AUG-CC-PVTZ-JKFIT
	 Reference Energy          =    -384.0904510339305489 [Eh]
	 Singles Energy            =      -0.0000000000000000 [Eh]
	 Same-Spin Energy          =      -0.3836946242630771 [Eh]
	 Opposite-Spin Energy      =      -1.2858790109381832 [Eh]
	 Correlation Energy        =      -1.6695736352012602 [Eh]
	 Total Energy              =    -385.7600246691317807 [Eh]

	 ================> DF-SCS-MP2 Energies <==================
	-----------------------------------------------------------
	 SCS Same-Spin Scale       =       0.3333333333333333 [-]
	 SCS Opposite-Spin Scale   =       1.2000000000000000 [-]
	 SCS Same-Spin Energy      =      -0.1278982080876924 [Eh]
	 SCS Opposite-Spin Energy  =      -1.5430548131258199 [Eh]
	 SCS Correlation Energy    =      -1.6709530212135122 [Eh]
	 SCS Total Energy          =    -385.7614040551440553 [Eh]
	-----------------------------------------------------------

  Dipole Moment: [D]
     X:     0.7213      Y:    -1.1685      Z:     0.7520     Total:     1.5656

*** Psi4 exiting successfully. Buy a developer a beer!
