                               Psi4 1.3.2 release

  ==> Input File <==

--------------------------------------------------------------------------
#psi4
#
memory 32 gb

molecule  {
0 1
  O        0.4387757    -0.5815478     0.1842571
  O       -0.8408100     1.0912640    -0.7084360
  C        1.6346250     0.1623570    -0.1778450
  C        1.8980320     1.2173290     0.8789650
  C        2.7308080    -0.8763490    -0.2789480
  C       -1.9015140    -0.8789960     0.2349040
  C       -0.7451280     0.0062060    -0.1586260
  C       -3.2456700    -0.1986960     0.0285890
  H        1.4690493     0.6434925    -1.1459141
  H        2.8221420     1.7571320     0.6526510
  H        1.0777360     1.9358120     0.9100720
  H        2.0019030     0.7445150     1.8590670
  H        3.6747750    -0.4011320    -0.5598750
  H        2.4805410    -1.6278800    -1.0306640
  H        2.8646540    -1.3764140     0.6835210
  H       -1.8254340    -1.7987290    -0.3567280
  H       -1.7546250    -1.1827800     1.2758720
  H       -3.3759370     0.0860600    -1.0167370
  H       -4.0604800    -0.8690500     0.3134070
  H       -3.3166340     0.7089420     0.6308410
units angstrom
no_reorient  #important for SAPT in psi4, default
symmetry c1  #important for SAPT in psi4, default
}

set PROPERTIES_ORIGIN ["COM"]
properties('MP2/aug-cc-pvtz', properties = ['dipole'])
--------------------------------------------------------------------------

    Molecular point group: c1
  Charge       = 0
  Multiplicity = 1
  Basis Set: AUG-CC-PVTZ
    Blend: AUG-CC-PVTZ
  Basis Set: (AUG-CC-PVTZ AUX)
    Blend: AUG-CC-PVTZ-JKFIT

    Orbital Energies [Eh]
    ---------------------

    Doubly Occupied:

       1A    -20.595315     2A    -20.542665     3A    -11.378330
       4A    -11.289035     5A    -11.243064     6A    -11.220143
       7A    -11.218941     8A    -11.215727     9A     -1.445410
      10A     -1.350394    11A     -1.079730    12A     -1.044718
      13A     -0.944359    14A     -0.902997    15A     -0.814112
      16A     -0.760760    17A     -0.698439    18A     -0.665891
      19A     -0.656098    20A     -0.620244    21A     -0.603203
      22A     -0.573074    23A     -0.557022    24A     -0.548502
      25A     -0.536796    26A     -0.520368    27A     -0.510564
      28A     -0.506100    29A     -0.495052    30A     -0.480416
      31A     -0.451176    32A     -0.440079

  @DF-RHF Final Energy:  -384.08927380881391

   => Energetics <=

    Nuclear Repulsion Energy =            396.1693764174261787
    One-Electron Energy =               -1308.6998522479345866
    Two-Electron Energy =                 528.4412020216944939
    Total Energy =                       -384.0892738088139140
  Basis Set: (AUG-CC-PVTZ AUX)
    Blend: AUG-CC-PVTZ-RI
    Molecular point group: c1

    Geometry (in Angstrom), charge = 0, multiplicity = 1:

       Center              X                  Y                   Z               Mass
    ------------   -----------------  -----------------  -----------------  -----------------
         O            0.437939032445    -0.581067532938     0.182765757419    15.994914619570
         O           -0.841646667555     1.091744267062    -0.709927342581    15.994914619570
         C            1.633788332445     0.162837267062    -0.179336342581    12.000000000000
         C            1.897195332445     1.217809267062     0.877473657419    12.000000000000
         C            2.729971332445    -0.875868732938    -0.280439342581    12.000000000000
         C           -1.902350667555    -0.878515732938     0.233412657419    12.000000000000
         C           -0.745964667555     0.006686267062    -0.160117342581    12.000000000000
         C           -3.246506667555    -0.198215732938     0.027097657419    12.000000000000
         H            1.468212632445     0.643972767062    -1.147405442581     1.007825032230
         H            2.821305332445     1.757612267062     0.651159657419     1.007825032230
         H            1.076899332445     1.936292267062     0.908580657419     1.007825032230
         H            2.001066332445     0.744995267062     1.857575657419     1.007825032230
         H            3.673938332445    -0.400651732938    -0.561366342581     1.007825032230
         H            2.479704332445    -1.627399732938    -1.032155342581     1.007825032230
         H            2.863817332445    -1.375933732938     0.682029657419     1.007825032230
         H           -1.826270667555    -1.798248732938    -0.358219342581     1.007825032230
         H           -1.755461667555    -1.182299732938     1.274380657419     1.007825032230
         H           -3.376773667555     0.086540267062    -1.018228342581     1.007825032230
         H           -4.061316667555    -0.868569732938     0.311915657419     1.007825032230
         H           -3.317470667555     0.709422267062     0.629349657419     1.007825032230

  Basis Set: AUG-CC-PVTZ
    Blend: AUG-CC-PVTZ
  Basis Set: (AUG-CC-PVTZ AUX)
    Blend: AUG-CC-PVTZ-JKFIT
	 Reference Energy          =    -384.0892738088139140 [Eh]
	 Singles Energy            =      -0.0000000000000000 [Eh]
	 Same-Spin Energy          =      -0.3842095057636694 [Eh]
	 Opposite-Spin Energy      =      -1.2867209331590470 [Eh]
	 Correlation Energy        =      -1.6709304389227164 [Eh]
	 Total Energy              =    -385.7602042477366240 [Eh]

	 ================> DF-SCS-MP2 Energies <==================
	-----------------------------------------------------------
	 SCS Same-Spin Scale       =       0.3333333333333333 [-]
	 SCS Opposite-Spin Scale   =       1.2000000000000000 [-]
	 SCS Same-Spin Energy      =      -0.1280698352545565 [Eh]
	 SCS Opposite-Spin Energy  =      -1.5440651197908564 [Eh]
	 SCS Correlation Energy    =      -1.6721349550454128 [Eh]
	 SCS Total Energy          =    -385.7614087638593219 [Eh]
	-----------------------------------------------------------

  Dipole Moment: [D]
     X:     0.7582      Y:    -1.2965      Z:     0.6595     Total:     1.6403

*** Psi4 exiting successfully. Buy a developer a beer!
