                               Psi4 1.4a3.dev225

  ==> Input File <==

--------------------------------------------------------------------------
#psi4
#
memory 32 gb

molecule  {
0 1
  O        0.3891610    -0.5692390     0.2103150
  O       -0.8187590     1.0859660    -0.7901910
  C        1.6370400     0.0652472    -0.2640192
  C        1.9966600     1.1837410     0.6861130
  C        2.6439510    -1.0589150    -0.3056920
  C       -1.9560750    -0.6909180     0.4160040
  C       -0.7646160     0.0592710    -0.1310230
  C       -3.2763650    -0.0323590     0.0421060
  H        1.4292650     0.4552490    -1.2581690
  H        2.9411400     1.6393830     0.3731600
  H        1.2237650     1.9545110     0.6843630
  H        2.1165080     0.7943580     1.7011000
  H        3.6013200    -0.6740400    -0.6688000
  H        2.3119000    -1.8571380    -0.9736080
  H        2.7925020    -1.4784670     0.6929400
  H       -1.8998650    -1.7205910     0.0458690
  H       -1.8337900    -0.7582950     1.5029030
  H       -3.3906490     0.0180570    -1.0424220
  H       -4.1145290    -0.5997430     0.4548680
  H       -3.3230440     0.9880080     0.4273560
units angstrom
no_reorient  #important for SAPT in psi4, default
symmetry c1  #important for SAPT in psi4, default
}

set PROPERTIES_ORIGIN ["COM"]
properties('MP2/aug-cc-pvtz', properties = ['dipole'])
--------------------------------------------------------------------------

    Molecular point group: c1
  Charge       = 0
  Multiplicity = 1
  Basis Set: AUG-CC-PVTZ
    Blend: AUG-CC-PVTZ
  Basis Set: (AUG-CC-PVTZ AUX)
    Blend: AUG-CC-PVTZ-JKFIT

    Orbital Energies [Eh]
    ---------------------

    Doubly Occupied:

       1A    -20.592524     2A    -20.539396     3A    -11.375684
       4A    -11.291230     5A    -11.241989     6A    -11.222025
       7A    -11.217919     8A    -11.217840     9A     -1.441910
      10A     -1.345544    11A     -1.080333    12A     -1.044753
      13A     -0.946528    14A     -0.900771    15A     -0.813685
      16A     -0.759190    17A     -0.695906    18A     -0.664782
      19A     -0.653012    20A     -0.621878    21A     -0.601847
      22A     -0.572256    23A     -0.557742    24A     -0.550029
      25A     -0.536118    26A     -0.519036    27A     -0.508551
      28A     -0.505746    29A     -0.494105    30A     -0.483668
      31A     -0.451145    32A     -0.438455

  @DF-RHF Final Energy:  -384.08917459412669

   => Energetics <=

    Nuclear Repulsion Energy =            395.6487429411653238
    One-Electron Energy =               -1307.7046370467826364
    Two-Electron Energy =                 527.9667195114906235
    Total Energy =                       -384.0891745941266890
  Basis Set: (AUG-CC-PVTZ AUX)
    Blend: AUG-CC-PVTZ-RI
    Molecular point group: c1

    Geometry (in Angstrom), charge = 0, multiplicity = 1:

       Center              X                  Y                   Z               Mass
    ------------   -----------------  -----------------  -----------------  -----------------
         O            0.403247458402    -0.580691162339     0.227530714871    15.994914619570
         O           -0.804672541598     1.074513837661    -0.772975285129    15.994914619570
         C            1.651126458402     0.053795037661    -0.246803485129    12.000000000000
         C            2.010746458402     1.172288837661     0.703328714871    12.000000000000
         C            2.658037458402    -1.070367162339    -0.288476285129    12.000000000000
         C           -1.941988541598    -0.702370162339     0.433219714871    12.000000000000
         C           -0.750529541598     0.047818837661    -0.113807285129    12.000000000000
         C           -3.262278541598    -0.043811162339     0.059321714871    12.000000000000
         H            1.443351458402     0.443796837661    -1.240953285129     1.007825032230
         H            2.955226458402     1.627930837661     0.390375714871     1.007825032230
         H            1.237851458402     1.943058837661     0.701578714871     1.007825032230
         H            2.130594458402     0.782905837661     1.718315714871     1.007825032230
         H            3.615406458402    -0.685492162339    -0.651584285129     1.007825032230
         H            2.325986458402    -1.868590162339    -0.956392285129     1.007825032230
         H            2.806588458402    -1.489919162339     0.710155714871     1.007825032230
         H           -1.885778541598    -1.732043162339     0.063084714871     1.007825032230
         H           -1.819703541598    -0.769747162339     1.520118714871     1.007825032230
         H           -3.376562541598     0.006604837661    -1.025206285129     1.007825032230
         H           -4.100442541598    -0.611195162339     0.472083714871     1.007825032230
         H           -3.308957541598     0.976555837661     0.444571714871     1.007825032230

  Basis Set: AUG-CC-PVTZ
    Blend: AUG-CC-PVTZ
  Basis Set: (AUG-CC-PVTZ AUX)
    Blend: AUG-CC-PVTZ-JKFIT
	 Reference Energy          =    -384.0891745941266890 [Eh]
	 Singles Energy            =      -0.0000000000000000 [Eh]
	 Same-Spin Energy          =      -0.3841229114481813 [Eh]
	 Opposite-Spin Energy      =      -1.2866867470444852 [Eh]
	 Correlation Energy        =      -1.6708096584926664 [Eh]
	 Total Energy              =    -385.7599842526193470 [Eh]

	 ================> DF-SCS-MP2 Energies <==================
	-----------------------------------------------------------
	 SCS Same-Spin Scale       =       0.3333333333333333 [-]
	 SCS Opposite-Spin Scale   =       1.2000000000000000 [-]
	 SCS Same-Spin Energy      =      -0.1280409704827271 [Eh]
	 SCS Opposite-Spin Energy  =      -1.5440240964533822 [Eh]
	 SCS Correlation Energy    =      -1.6720650669361092 [Eh]
	 SCS Total Energy          =    -385.7612396610628025 [Eh]
	-----------------------------------------------------------

  Dipole Moment: [D]
     X:     0.8746      Y:    -1.2539      Z:     0.8119     Total:     1.7310

*** Psi4 exiting successfully. Buy a developer a beer!
