                               Psi4 1.3.2 release

  ==> Input File <==

--------------------------------------------------------------------------
#psi4
#
memory 32 gb

molecule  {
0 1
  O        0.4332560    -0.5778250     0.1734540
  O       -0.8195831     1.0929712    -0.7083484
  C        1.6346250     0.1623570    -0.1778450
  C        1.8980320     1.2173290     0.8789650
  C        2.7308080    -0.8763490    -0.2789480
  C       -1.8844636    -0.8966047     0.2445171
  C       -0.7451280     0.0062060    -0.1586260
  C       -3.2456700    -0.1986960     0.0285890
  H        1.4602790     0.6397420    -1.1462310
  H        2.8221420     1.7571320     0.6526510
  H        1.0777360     1.9358120     0.9100720
  H        2.0019030     0.7445150     1.8590670
  H        3.6747750    -0.4011320    -0.5598750
  H        2.4805410    -1.6278800    -1.0306640
  H        2.8646540    -1.3764140     0.6835210
  H       -1.8254340    -1.7987290    -0.3567280
  H       -1.7546250    -1.1827800     1.2758720
  H       -3.3759370     0.0860600    -1.0167370
  H       -4.0604800    -0.8690500     0.3134070
  H       -3.3166340     0.7089420     0.6308410
units angstrom
no_reorient  #important for SAPT in psi4, default
symmetry c1  #important for SAPT in psi4, default
}

set PROPERTIES_ORIGIN ["COM"]
properties('MP2/aug-cc-pvtz', properties = ['dipole'])
--------------------------------------------------------------------------

    Molecular point group: c1
  Charge       = 0
  Multiplicity = 1
  Basis Set: AUG-CC-PVTZ
    Blend: AUG-CC-PVTZ
  Basis Set: (AUG-CC-PVTZ AUX)
    Blend: AUG-CC-PVTZ-JKFIT

    Orbital Energies [Eh]
    ---------------------

    Doubly Occupied:

       1A    -20.593441     2A    -20.541290     3A    -11.377198
       4A    -11.288499     5A    -11.242595     6A    -11.220212
       7A    -11.220086     8A    -11.215626     9A     -1.448104
      10A     -1.348554    11A     -1.079942    12A     -1.042557
      13A     -0.944128    14A     -0.903170    15A     -0.816186
      16A     -0.760380    17A     -0.698347    18A     -0.667261
      19A     -0.657020    20A     -0.620987    21A     -0.603395
      22A     -0.572558    23A     -0.555547    24A     -0.547897
      25A     -0.536005    26A     -0.520271    27A     -0.508365
      28A     -0.505535    29A     -0.497359    30A     -0.480189
      31A     -0.450764    32A     -0.440283

  @DF-RHF Final Energy:  -384.08942921009321

   => Energetics <=

    Nuclear Repulsion Energy =            396.3890822765869189
    One-Electron Energy =               -1309.1495168444555475
    Two-Electron Energy =                 528.6710053577754707
    Total Energy =                       -384.0894292100931580
  Basis Set: (AUG-CC-PVTZ AUX)
    Blend: AUG-CC-PVTZ-RI
    Molecular point group: c1

    Geometry (in Angstrom), charge = 0, multiplicity = 1:

       Center              X                  Y                   Z               Mass
    ------------   -----------------  -----------------  -----------------  -----------------
         O            0.428568653314    -0.576240083201     0.172448131891    15.994914619570
         O           -0.824270446686     1.094556116799    -0.709354268109    15.994914619570
         C            1.629937653314     0.163941916799    -0.178850868109    12.000000000000
         C            1.893344653314     1.218913916799     0.877959131891    12.000000000000
         C            2.726120653314    -0.874764083201    -0.279953868109    12.000000000000
         C           -1.889150946686    -0.895019783201     0.243511231891    12.000000000000
         C           -0.749815346686     0.007790916799    -0.159631868109    12.000000000000
         C           -3.250357346686    -0.197111083201     0.027583131891    12.000000000000
         H            1.455591653314     0.641326916799    -1.147236868109     1.007825032230
         H            2.817454653314     1.758716916799     0.651645131891     1.007825032230
         H            1.073048653314     1.937396916799     0.909066131891     1.007825032230
         H            1.997215653314     0.746099916799     1.858061131891     1.007825032230
         H            3.670087653314    -0.399547083201    -0.560880868109     1.007825032230
         H            2.475853653314    -1.626295083201    -1.031669868109     1.007825032230
         H            2.859966653314    -1.374829083201     0.682515131891     1.007825032230
         H           -1.830121346686    -1.797144083201    -0.357733868109     1.007825032230
         H           -1.759312346686    -1.181195083201     1.274866131891     1.007825032230
         H           -3.380624346686     0.087644916799    -1.017742868109     1.007825032230
         H           -4.065167346686    -0.867465083201     0.312401131891     1.007825032230
         H           -3.321321346686     0.710526916799     0.629835131891     1.007825032230

  Basis Set: AUG-CC-PVTZ
    Blend: AUG-CC-PVTZ
  Basis Set: (AUG-CC-PVTZ AUX)
    Blend: AUG-CC-PVTZ-JKFIT
	 Reference Energy          =    -384.0894292100932148 [Eh]
	 Singles Energy            =      -0.0000000000000000 [Eh]
	 Same-Spin Energy          =      -0.3839931127447374 [Eh]
	 Opposite-Spin Energy      =      -1.2863003353872144 [Eh]
	 Correlation Energy        =      -1.6702934481319518 [Eh]
	 Total Energy              =    -385.7597226582251437 [Eh]

	 ================> DF-SCS-MP2 Energies <==================
	-----------------------------------------------------------
	 SCS Same-Spin Scale       =       0.3333333333333333 [-]
	 SCS Opposite-Spin Scale   =       1.2000000000000000 [-]
	 SCS Same-Spin Energy      =      -0.1279977042482458 [Eh]
	 SCS Opposite-Spin Energy  =      -1.5435604024646572 [Eh]
	 SCS Correlation Energy    =      -1.6715581067129031 [Eh]
	 SCS Total Energy          =    -385.7609873168061085 [Eh]
	-----------------------------------------------------------

  Dipole Moment: [D]
     X:     0.7551      Y:    -1.3277      Z:     0.6868     Total:     1.6747

*** Psi4 exiting successfully. Buy a developer a beer!
