                               Psi4 1.3.2 release

  ==> Input File <==

--------------------------------------------------------------------------
#psi4
#
memory 32 gb

molecule  {
0 1
  O        0.4447750    -0.5591090     0.1646510
  O       -0.8408100     1.0912640    -0.7084360
  C        1.6346250     0.1623570    -0.1778450
  C        1.8980320     1.2173290     0.8789650
  C        2.7308080    -0.8763490    -0.2789480
  C       -1.9182217    -0.8610018     0.2254038
  C       -0.7451280     0.0062060    -0.1586260
  C       -3.2456700    -0.1986960     0.0285890
  H        1.4602790     0.6397420    -1.1462310
  H        2.8221420     1.7571320     0.6526510
  H        1.0777360     1.9358120     0.9100720
  H        2.0019030     0.7445150     1.8590670
  H        3.6747750    -0.4011320    -0.5598750
  H        2.4805410    -1.6278800    -1.0306640
  H        2.8646540    -1.3764140     0.6835210
  H       -1.8254340    -1.7987290    -0.3567280
  H       -1.7546250    -1.1827800     1.2758720
  H       -3.3759370     0.0860600    -1.0167370
  H       -4.0604800    -0.8690500     0.3134070
  H       -3.3166340     0.7089420     0.6308410
units angstrom
no_reorient  #important for SAPT in psi4, default
symmetry c1  #important for SAPT in psi4, default
}

set PROPERTIES_ORIGIN ["COM"]
properties('MP2/aug-cc-pvtz', properties = ['dipole'])
--------------------------------------------------------------------------

    Molecular point group: c1
  Charge       = 0
  Multiplicity = 1
  Basis Set: AUG-CC-PVTZ
    Blend: AUG-CC-PVTZ
  Basis Set: (AUG-CC-PVTZ AUX)
    Blend: AUG-CC-PVTZ-JKFIT

    Orbital Energies [Eh]
    ---------------------

    Doubly Occupied:

       1A    -20.594800     2A    -20.539702     3A    -11.377654
       4A    -11.287661     5A    -11.245747     6A    -11.220065
       7A    -11.218767     8A    -11.215030     9A     -1.451354
      10A     -1.350919    11A     -1.081427    12A     -1.047948
      13A     -0.944318    14A     -0.905678    15A     -0.818116
      16A     -0.760498    17A     -0.699244    18A     -0.667417
      19A     -0.656451    20A     -0.621133    21A     -0.604221
      22A     -0.572101    23A     -0.560646    24A     -0.548344
      25A     -0.538089    26A     -0.522285    27A     -0.514051
      28A     -0.506250    29A     -0.490647    30A     -0.477916
      31A     -0.449254    32A     -0.438986

  @DF-RHF Final Energy:  -384.08975835530708

   => Energetics <=

    Nuclear Repulsion Energy =            396.8887782008793010
    One-Electron Energy =               -1310.1036368940124248
    Two-Electron Energy =                 529.1251003378259838
    Total Energy =                       -384.0897583553071399
  Basis Set: (AUG-CC-PVTZ AUX)
    Blend: AUG-CC-PVTZ-RI
    Molecular point group: c1

    Geometry (in Angstrom), charge = 0, multiplicity = 1:

       Center              X                  Y                   Z               Mass
    ------------   -----------------  -----------------  -----------------  -----------------
         O            0.444914981256    -0.563548089374     0.166845959338    15.994914619570
         O           -0.840670018744     1.086824910626    -0.706241040662    15.994914619570
         C            1.634764981256     0.157917910626    -0.175650040662    12.000000000000
         C            1.898171981256     1.212889910626     0.881159959338    12.000000000000
         C            2.730947981256    -0.880788089374    -0.276753040662    12.000000000000
         C           -1.918081718744    -0.865440889374     0.227598759338    12.000000000000
         C           -0.744988018744     0.001766910626    -0.156431040662    12.000000000000
         C           -3.245530018744    -0.203135089374     0.030783959338    12.000000000000
         H            1.460418981256     0.635302910626    -1.144036040662     1.007825032230
         H            2.822281981256     1.752692910626     0.654845959338     1.007825032230
         H            1.077875981256     1.931372910626     0.912266959338     1.007825032230
         H            2.002042981256     0.740075910626     1.861261959338     1.007825032230
         H            3.674914981256    -0.405571089374    -0.557680040662     1.007825032230
         H            2.480680981256    -1.632319089374    -1.028469040662     1.007825032230
         H            2.864793981256    -1.380853089374     0.685715959338     1.007825032230
         H           -1.825294018744    -1.803168089374    -0.354533040662     1.007825032230
         H           -1.754485018744    -1.187219089374     1.278066959338     1.007825032230
         H           -3.375797018744     0.081620910626    -1.014542040662     1.007825032230
         H           -4.060340018744    -0.873489089374     0.315601959338     1.007825032230
         H           -3.316494018744     0.704502910626     0.633035959338     1.007825032230

  Basis Set: AUG-CC-PVTZ
    Blend: AUG-CC-PVTZ
  Basis Set: (AUG-CC-PVTZ AUX)
    Blend: AUG-CC-PVTZ-JKFIT
	 Reference Energy          =    -384.0897583553070831 [Eh]
	 Singles Energy            =      -0.0000000000000000 [Eh]
	 Same-Spin Energy          =      -0.3840510236591839 [Eh]
	 Opposite-Spin Energy      =      -1.2857575888000556 [Eh]
	 Correlation Energy        =      -1.6698086124592395 [Eh]
	 Total Energy              =    -385.7595669677663182 [Eh]

	 ================> DF-SCS-MP2 Energies <==================
	-----------------------------------------------------------
	 SCS Same-Spin Scale       =       0.3333333333333333 [-]
	 SCS Opposite-Spin Scale   =       1.2000000000000000 [-]
	 SCS Same-Spin Energy      =      -0.1280170078863946 [Eh]
	 SCS Opposite-Spin Energy  =      -1.5429091065600666 [Eh]
	 SCS Correlation Energy    =      -1.6709261144464613 [Eh]
	 SCS Total Energy          =    -385.7606844697535280 [Eh]
	-----------------------------------------------------------

  Dipole Moment: [D]
     X:     0.7103      Y:    -1.3651      Z:     0.6997     Total:     1.6905

*** Psi4 exiting successfully. Buy a developer a beer!
