                               Psi4 1.3.2 release

  ==> Input File <==

--------------------------------------------------------------------------
#psi4
#
memory 32 gb

molecule  {
0 1
  O        0.4428278    -0.6193784     0.1103859
  O       -0.8408100     1.0912640    -0.7084360
  C        1.6346250     0.1623570    -0.1778450
  C        1.9622981     1.2394081     0.8379245
  C        2.7308080    -0.8763490    -0.2789480
  C       -1.9015140    -0.8789960     0.2349040
  C       -0.7451280     0.0062060    -0.1586260
  C       -3.2456700    -0.1986960     0.0285890
  H        1.4602790     0.6397420    -1.1462310
  H        2.8221420     1.7571320     0.6526510
  H        1.0777360     1.9358120     0.9100720
  H        2.0019030     0.7445150     1.8590670
  H        3.6747750    -0.4011320    -0.5598750
  H        2.4805410    -1.6278800    -1.0306640
  H        2.8646540    -1.3764140     0.6835210
  H       -1.8254340    -1.7987290    -0.3567280
  H       -1.7546250    -1.1827800     1.2758720
  H       -3.3759370     0.0860600    -1.0167370
  H       -4.0604800    -0.8690500     0.3134070
  H       -3.3166340     0.7089420     0.6308410
units angstrom
no_reorient  #important for SAPT in psi4, default
symmetry c1  #important for SAPT in psi4, default
}

set PROPERTIES_ORIGIN ["COM"]
properties('MP2/aug-cc-pvtz', properties = ['dipole'])
--------------------------------------------------------------------------

    Molecular point group: c1
  Charge       = 0
  Multiplicity = 1
  Basis Set: AUG-CC-PVTZ
    Blend: AUG-CC-PVTZ
  Basis Set: (AUG-CC-PVTZ AUX)
    Blend: AUG-CC-PVTZ-JKFIT

    Orbital Energies [Eh]
    ---------------------

    Doubly Occupied:

       1A    -20.597423     2A    -20.544227     3A    -11.379423
       4A    -11.288903     5A    -11.243786     6A    -11.219408
       7A    -11.218968     8A    -11.218005     9A     -1.445247
      10A     -1.351169    11A     -1.079996    12A     -1.045856
      13A     -0.944591    14A     -0.903792    15A     -0.814975
      16A     -0.758549    17A     -0.698651    18A     -0.668849
      19A     -0.656486    20A     -0.623497    21A     -0.604760
      22A     -0.572359    23A     -0.560655    24A     -0.545010
      25A     -0.538811    26A     -0.520765    27A     -0.514900
      28A     -0.504330    29A     -0.493451    30A     -0.472146
      31A     -0.454352    32A     -0.438101

  @DF-RHF Final Energy:  -384.07991420838601

   => Energetics <=

    Nuclear Repulsion Energy =            395.5745796215902033
    One-Electron Energy =               -1307.4661073221502647
    Two-Electron Energy =                 527.8116134921741605
    Total Energy =                       -384.0799142083859579
  Basis Set: (AUG-CC-PVTZ AUX)
    Blend: AUG-CC-PVTZ-RI
    Molecular point group: c1

    Geometry (in Angstrom), charge = 0, multiplicity = 1:

       Center              X                  Y                   Z               Mass
    ------------   -----------------  -----------------  -----------------  -----------------
         O            0.434865523470    -0.615935376091     0.123318361013    15.994914619570
         O           -0.848772276530     1.094707023909    -0.695503538987    15.994914619570
         C            1.626662723470     0.165800023909    -0.164912538987    12.000000000000
         C            1.954335823470     1.242851123909     0.850856961013    12.000000000000
         C            2.722845723470    -0.872905976091    -0.266015538987    12.000000000000
         C           -1.909476276530    -0.875552976091     0.247836461013    12.000000000000
         C           -0.753090276530     0.009649023909    -0.145693538987    12.000000000000
         C           -3.253632276530    -0.195252976091     0.041521461013    12.000000000000
         H            1.452316723470     0.643185023909    -1.133298538987     1.007825032230
         H            2.814179723470     1.760575023909     0.665583461013     1.007825032230
         H            1.069773723470     1.939255023909     0.923004461013     1.007825032230
         H            1.993940723470     0.747958023909     1.871999461013     1.007825032230
         H            3.666812723470    -0.397688976091    -0.546942538987     1.007825032230
         H            2.472578723470    -1.624436976091    -1.017731538987     1.007825032230
         H            2.856691723470    -1.372970976091     0.696453461013     1.007825032230
         H           -1.833396276530    -1.795285976091    -0.343795538987     1.007825032230
         H           -1.762587276530    -1.179336976091     1.288804461013     1.007825032230
         H           -3.383899276530     0.089503023909    -1.003804538987     1.007825032230
         H           -4.068442276530    -0.865606976091     0.326339461013     1.007825032230
         H           -3.324596276530     0.712385023909     0.643773461013     1.007825032230

  Basis Set: AUG-CC-PVTZ
    Blend: AUG-CC-PVTZ
  Basis Set: (AUG-CC-PVTZ AUX)
    Blend: AUG-CC-PVTZ-JKFIT
	 Reference Energy          =    -384.0799142083860147 [Eh]
	 Singles Energy            =      -0.0000000000000000 [Eh]
	 Same-Spin Energy          =      -0.3843980108761087 [Eh]
	 Opposite-Spin Energy      =      -1.2872817034021273 [Eh]
	 Correlation Energy        =      -1.6716797142782360 [Eh]
	 Total Energy              =    -385.7515939226642558 [Eh]

	 ================> DF-SCS-MP2 Energies <==================
	-----------------------------------------------------------
	 SCS Same-Spin Scale       =       0.3333333333333333 [-]
	 SCS Opposite-Spin Scale   =       1.2000000000000000 [-]
	 SCS Same-Spin Energy      =      -0.1281326702920362 [Eh]
	 SCS Opposite-Spin Energy  =      -1.5447380440825527 [Eh]
	 SCS Correlation Energy    =      -1.6728707143745889 [Eh]
	 SCS Total Energy          =    -385.7527849227606112 [Eh]
	-----------------------------------------------------------

  Dipole Moment: [D]
     X:     0.6856      Y:    -1.2026      Z:     0.7367     Total:     1.5681

*** Psi4 exiting successfully. Buy a developer a beer!
