                               Psi4 1.4a3.dev225

  ==> Input File <==

--------------------------------------------------------------------------
#psi4
#
memory 32 gb

molecule  {
0 1
  O        0.3891610    -0.5692390     0.2103150
  O       -0.8187590     1.0859660    -0.7901910
  C        1.6032700     0.0480768    -0.2511828
  C        1.9966600     1.1837410     0.6861130
  C        2.6439510    -1.0589150    -0.3056920
  C       -1.9560750    -0.6909180     0.4160040
  C       -0.7646160     0.0592710    -0.1310230
  C       -3.2763650    -0.0323590     0.0421060
  H        1.4292650     0.4552490    -1.2581690
  H        2.9411400     1.6393830     0.3731600
  H        1.2237650     1.9545110     0.6843630
  H        2.1165080     0.7943580     1.7011000
  H        3.6013200    -0.6740400    -0.6688000
  H        2.3119000    -1.8571380    -0.9736080
  H        2.7925020    -1.4784670     0.6929400
  H       -1.8998650    -1.7205910     0.0458690
  H       -1.8337900    -0.7582950     1.5029030
  H       -3.3906490     0.0180570    -1.0424220
  H       -4.1145290    -0.5997430     0.4548680
  H       -3.3230440     0.9880080     0.4273560
units angstrom
no_reorient  #important for SAPT in psi4, default
symmetry c1  #important for SAPT in psi4, default
}

set PROPERTIES_ORIGIN ["COM"]
properties('MP2/aug-cc-pvtz', properties = ['dipole'])
--------------------------------------------------------------------------

    Molecular point group: c1
  Charge       = 0
  Multiplicity = 1
  Basis Set: AUG-CC-PVTZ
    Blend: AUG-CC-PVTZ
  Basis Set: (AUG-CC-PVTZ AUX)
    Blend: AUG-CC-PVTZ-JKFIT

    Orbital Energies [Eh]
    ---------------------

    Doubly Occupied:

       1A    -20.597781     2A    -20.542309     3A    -11.378821
       4A    -11.289613     5A    -11.243952     6A    -11.220552
       7A    -11.219297     8A    -11.216332     9A     -1.451310
      10A     -1.352146    11A     -1.079117    12A     -1.043570
      13A     -0.943076    14A     -0.904741    15A     -0.816781
      16A     -0.761370    17A     -0.698902    18A     -0.669257
      19A     -0.655961    20A     -0.620729    21A     -0.602620
      22A     -0.573055    23A     -0.559123    24A     -0.547250
      25A     -0.536279    26A     -0.520612    27A     -0.512689
      28A     -0.506313    29A     -0.493827    30A     -0.478135
      31A     -0.450436    32A     -0.440258

  @DF-RHF Final Energy:  -384.08988694288530

   => Energetics <=

    Nuclear Repulsion Energy =            396.1517479083048556
    One-Electron Energy =               -1308.6308462547133331
    Two-Electron Energy =                 528.3892114035231771
    Total Energy =                       -384.0898869428853004
  Basis Set: (AUG-CC-PVTZ AUX)
    Blend: AUG-CC-PVTZ-RI
    Molecular point group: c1

    Geometry (in Angstrom), charge = 0, multiplicity = 1:

       Center              X                  Y                   Z               Mass
    ------------   -----------------  -----------------  -----------------  -----------------
         O            0.406738386901    -0.578916195247     0.226203769222    15.994914619570
         O           -0.801181613099     1.076288804753    -0.774302230778    15.994914619570
         C            1.620847386901     0.038399604753    -0.235294030778    12.000000000000
         C            2.014237386901     1.174063804753     0.702001769222    12.000000000000
         C            2.661528386901    -1.068592195247    -0.289803230778    12.000000000000
         C           -1.938497613099    -0.700595195247     0.431892769222    12.000000000000
         C           -0.747038613099     0.049593804753    -0.115134230778    12.000000000000
         C           -3.258787613099    -0.042036195247     0.057994769222    12.000000000000
         H            1.446842386901     0.445571804753    -1.242280230778     1.007825032230
         H            2.958717386901     1.629705804753     0.389048769222     1.007825032230
         H            1.241342386901     1.944833804753     0.700251769222     1.007825032230
         H            2.134085386901     0.784680804753     1.716988769222     1.007825032230
         H            3.618897386901    -0.683717195247    -0.652911230778     1.007825032230
         H            2.329477386901    -1.866815195247    -0.957719230778     1.007825032230
         H            2.810079386901    -1.488144195247     0.708828769222     1.007825032230
         H           -1.882287613099    -1.730268195247     0.061757769222     1.007825032230
         H           -1.816212613099    -0.767972195247     1.518791769222     1.007825032230
         H           -3.373071613099     0.008379804753    -1.026533230778     1.007825032230
         H           -4.096951613099    -0.609420195247     0.470756769222     1.007825032230
         H           -3.305466613099     0.978330804753     0.443244769222     1.007825032230

  Basis Set: AUG-CC-PVTZ
    Blend: AUG-CC-PVTZ
  Basis Set: (AUG-CC-PVTZ AUX)
    Blend: AUG-CC-PVTZ-JKFIT
	 Reference Energy          =    -384.0898869428853004 [Eh]
	 Singles Energy            =      -0.0000000000000000 [Eh]
	 Same-Spin Energy          =      -0.3839626287203262 [Eh]
	 Opposite-Spin Energy      =      -1.2862184543618649 [Eh]
	 Correlation Energy        =      -1.6701810830821910 [Eh]
	 Total Energy              =    -385.7600680259674846 [Eh]

	 ================> DF-SCS-MP2 Energies <==================
	-----------------------------------------------------------
	 SCS Same-Spin Scale       =       0.3333333333333333 [-]
	 SCS Opposite-Spin Scale   =       1.2000000000000000 [-]
	 SCS Same-Spin Energy      =      -0.1279875429067754 [Eh]
	 SCS Opposite-Spin Energy  =      -1.5434621452342379 [Eh]
	 SCS Correlation Energy    =      -1.6714496881410132 [Eh]
	 SCS Total Energy          =    -385.7613366310263245 [Eh]
	-----------------------------------------------------------

  Dipole Moment: [D]
     X:     0.6906      Y:    -1.2804      Z:     0.8208     Total:     1.6704

*** Psi4 exiting successfully. Buy a developer a beer!
