                               Psi4 1.3.2 release

  ==> Input File <==

--------------------------------------------------------------------------
#psi4
#
memory 32 gb

molecule  {
0 1
  O        0.4332560    -0.5778250     0.1734540
  O       -0.8408100     1.0912640    -0.7084360
  C        1.6346250     0.1623570    -0.1778450
  C        1.8980320     1.2173290     0.8789650
  C        2.7308080    -0.8763490    -0.2789480
  C       -1.9015140    -0.8789960     0.2349040
  C       -0.9188732     0.0923177    -0.2075891
  C       -3.2456700    -0.1986960     0.0285890
  H        1.4602790     0.6397420    -1.1462310
  H        2.8221420     1.7571320     0.6526510
  H        1.0777360     1.9358120     0.9100720
  H        2.0019030     0.7445150     1.8590670
  H        3.6747750    -0.4011320    -0.5598750
  H        2.4805410    -1.6278800    -1.0306640
  H        2.8646540    -1.3764140     0.6835210
  H       -1.8254340    -1.7987290    -0.3567280
  H       -1.7546250    -1.1827800     1.2758720
  H       -3.3759370     0.0860600    -1.0167370
  H       -4.0604800    -0.8690500     0.3134070
  H       -3.3166340     0.7089420     0.6308410
units angstrom
no_reorient  #important for SAPT in psi4, default
symmetry c1  #important for SAPT in psi4, default
}

set PROPERTIES_ORIGIN ["COM"]
properties('MP2/aug-cc-pvtz', properties = ['dipole'])
--------------------------------------------------------------------------

    Molecular point group: c1
  Charge       = 0
  Multiplicity = 1
  Basis Set: AUG-CC-PVTZ
    Blend: AUG-CC-PVTZ
  Basis Set: (AUG-CC-PVTZ AUX)
    Blend: AUG-CC-PVTZ-JKFIT

    Orbital Energies [Eh]
    ---------------------

    Doubly Occupied:

       1A    -20.579652     2A    -20.540298     3A    -11.381595
       4A    -11.265758     5A    -11.254620     6A    -11.230557
       7A    -11.204580     8A    -11.202873     9A     -1.490067
      10A     -1.314192    11A     -1.092170    12A     -1.030599
      13A     -0.928858    14A     -0.907547    15A     -0.787289
      16A     -0.753079    17A     -0.712530    18A     -0.684079
      19A     -0.668401    20A     -0.608356    21A     -0.600539
      22A     -0.578923    23A     -0.553591    24A     -0.548274
      25A     -0.538868    26A     -0.531544    27A     -0.514274
      28A     -0.498528    29A     -0.495165    30A     -0.474444
      31A     -0.425956    32A     -0.419536

  @DF-RHF Final Energy:  -384.05127243413864

   => Energetics <=

    Nuclear Repulsion Energy =            395.7256581249123428
    One-Electron Energy =               -1307.9203750711453722
    Two-Electron Energy =                 528.1434445120943337
    Total Energy =                       -384.0512724341386956
  Basis Set: (AUG-CC-PVTZ AUX)
    Blend: AUG-CC-PVTZ-RI
    Molecular point group: c1

    Geometry (in Angstrom), charge = 0, multiplicity = 1:

       Center              X                  Y                   Z               Mass
    ------------   -----------------  -----------------  -----------------  -----------------
         O            0.451216699355    -0.586726809340     0.178515438281    15.994914619570
         O           -0.822849300645     1.082362190660    -0.703374561719    15.994914619570
         C            1.652585699355     0.153455190660    -0.172783561719    12.000000000000
         C            1.915992699355     1.208427190660     0.884026438281    12.000000000000
         C            2.748768699355    -0.885250809340    -0.273886561719    12.000000000000
         C           -1.883553300645    -0.887897809340     0.239965438281    12.000000000000
         C           -0.900912500645     0.083415890660    -0.202527661719    12.000000000000
         C           -3.227709300645    -0.207597809340     0.033650438281    12.000000000000
         H            1.478239699355     0.630840190660    -1.141169561719     1.007825032230
         H            2.840102699355     1.748230190660     0.657712438281     1.007825032230
         H            1.095696699355     1.926910190660     0.915133438281     1.007825032230
         H            2.019863699355     0.735613190660     1.864128438281     1.007825032230
         H            3.692735699355    -0.410033809340    -0.554813561719     1.007825032230
         H            2.498501699355    -1.636781809340    -1.025602561719     1.007825032230
         H            2.882614699355    -1.385315809340     0.688582438281     1.007825032230
         H           -1.807473300645    -1.807630809340    -0.351666561719     1.007825032230
         H           -1.736664300645    -1.191681809340     1.280933438281     1.007825032230
         H           -3.357976300645     0.077158190660    -1.011675561719     1.007825032230
         H           -4.042519300645    -0.877951809340     0.318468438281     1.007825032230
         H           -3.298673300645     0.700040190660     0.635902438281     1.007825032230

  Basis Set: AUG-CC-PVTZ
    Blend: AUG-CC-PVTZ
  Basis Set: (AUG-CC-PVTZ AUX)
    Blend: AUG-CC-PVTZ-JKFIT
	 Reference Energy          =    -384.0512724341386388 [Eh]
	 Singles Energy            =      -0.0000000000000000 [Eh]
	 Same-Spin Energy          =      -0.3851202063245657 [Eh]
	 Opposite-Spin Energy      =      -1.2885654836749332 [Eh]
	 Correlation Energy        =      -1.6736856899994987 [Eh]
	 Total Energy              =    -385.7249581241381406 [Eh]

	 ================> DF-SCS-MP2 Energies <==================
	-----------------------------------------------------------
	 SCS Same-Spin Scale       =       0.3333333333333333 [-]
	 SCS Opposite-Spin Scale   =       1.2000000000000000 [-]
	 SCS Same-Spin Energy      =      -0.1283734021081885 [Eh]
	 SCS Opposite-Spin Energy  =      -1.5462785804099197 [Eh]
	 SCS Correlation Energy    =      -1.6746519825181083 [Eh]
	 SCS Total Energy          =    -385.7259244166567669 [Eh]
	-----------------------------------------------------------

  Dipole Moment: [D]
     X:    -1.1431      Y:    -0.7814      Z:     0.2814     Total:     1.4130

*** Psi4 exiting successfully. Buy a developer a beer!
