                               Psi4 1.3.2 release

  ==> Input File <==

--------------------------------------------------------------------------
#psi4
#
memory 32 gb

molecule  {
0 1
  O        0.4559458    -0.5404263     0.1553373
  O       -0.7983173     1.0941333    -0.7085188
  C        1.6346250     0.1623570    -0.1778450
  C        1.8980320     1.2173290     0.8789650
  C        2.7308080    -0.8763490    -0.2789480
  C       -1.9015140    -0.8789960     0.2349040
  C       -0.7451280     0.0062060    -0.1586260
  C       -3.2456700    -0.1986960     0.0285890
  H        1.4602790     0.6397420    -1.1462310
  H        2.8221420     1.7571320     0.6526510
  H        1.0777360     1.9358120     0.9100720
  H        2.0019030     0.7445150     1.8590670
  H        3.6747750    -0.4011320    -0.5598750
  H        2.4805410    -1.6278800    -1.0306640
  H        2.8646540    -1.3764140     0.6835210
  H       -1.8254340    -1.7987290    -0.3567280
  H       -1.7546250    -1.1827800     1.2758720
  H       -3.3759370     0.0860600    -1.0167370
  H       -4.0604800    -0.8690500     0.3134070
  H       -3.3166340     0.7089420     0.6308410
units angstrom
no_reorient  #important for SAPT in psi4, default
symmetry c1  #important for SAPT in psi4, default
}

set PROPERTIES_ORIGIN ["COM"]
properties('MP2/aug-cc-pvtz', properties = ['dipole'])
--------------------------------------------------------------------------

    Molecular point group: c1
  Charge       = 0
  Multiplicity = 1
  Basis Set: AUG-CC-PVTZ
    Blend: AUG-CC-PVTZ
  Basis Set: (AUG-CC-PVTZ AUX)
    Blend: AUG-CC-PVTZ-JKFIT

    Orbital Energies [Eh]
    ---------------------

    Doubly Occupied:

       1A    -20.590505     2A    -20.539615     3A    -11.378738
       4A    -11.283416     5A    -11.248429     6A    -11.222314
       7A    -11.218027     8A    -11.212425     9A     -1.455296
      10A     -1.349553    11A     -1.081466    12A     -1.046042
      13A     -0.942417    14A     -0.907913    15A     -0.821894
      16A     -0.759247    17A     -0.701342    18A     -0.669099
      19A     -0.657175    20A     -0.622040    21A     -0.605376
      22A     -0.570234    23A     -0.558164    24A     -0.545814
      25A     -0.536189    26A     -0.523275    27A     -0.513561
      28A     -0.507836    29A     -0.494832    30A     -0.474866
      31A     -0.447837    32A     -0.438451

  @DF-RHF Final Energy:  -384.08975191983933

   => Energetics <=

    Nuclear Repulsion Energy =            397.4317367894166182
    One-Electron Energy =               -1311.1962055931758186
    Two-Electron Energy =                 529.6747168839199276
    Total Energy =                       -384.0897519198392729
  Basis Set: (AUG-CC-PVTZ AUX)
    Blend: AUG-CC-PVTZ-RI
    Molecular point group: c1

    Geometry (in Angstrom), charge = 0, multiplicity = 1:

       Center              X                  Y                   Z               Mass
    ------------   -----------------  -----------------  -----------------  -----------------
         O            0.446964472834    -0.545974864408     0.157844911381    15.994914619570
         O           -0.807298627166     1.088584735592    -0.706011188619    15.994914619570
         C            1.625643672834     0.156808435592    -0.175337388619    12.000000000000
         C            1.889050672834     1.211780435592     0.881472611381    12.000000000000
         C            2.721826672834    -0.881897564408    -0.276440388619    12.000000000000
         C           -1.910495327166    -0.884544564408     0.237411611381    12.000000000000
         C           -0.754109327166     0.000657435592    -0.156118388619    12.000000000000
         C           -3.254651327166    -0.204244564408     0.031096611381    12.000000000000
         H            1.451297672834     0.634193435592    -1.143723388619     1.007825032230
         H            2.813160672834     1.751583435592     0.655158611381     1.007825032230
         H            1.068754672834     1.930263435592     0.912579611381     1.007825032230
         H            1.992921672834     0.738966435592     1.861574611381     1.007825032230
         H            3.665793672834    -0.406680564408    -0.557367388619     1.007825032230
         H            2.471559672834    -1.633428564408    -1.028156388619     1.007825032230
         H            2.855672672834    -1.381962564408     0.686028611381     1.007825032230
         H           -1.834415327166    -1.804277564408    -0.354220388619     1.007825032230
         H           -1.763606327166    -1.188328564408     1.278379611381     1.007825032230
         H           -3.384918327166     0.080511435592    -1.014229388619     1.007825032230
         H           -4.069461327166    -0.874598564408     0.315914611381     1.007825032230
         H           -3.325615327166     0.703393435592     0.633348611381     1.007825032230

  Basis Set: AUG-CC-PVTZ
    Blend: AUG-CC-PVTZ
  Basis Set: (AUG-CC-PVTZ AUX)
    Blend: AUG-CC-PVTZ-JKFIT
	 Reference Energy          =    -384.0897519198393297 [Eh]
	 Singles Energy            =      -0.0000000000000000 [Eh]
	 Same-Spin Energy          =      -0.3838590507651605 [Eh]
	 Opposite-Spin Energy      =      -1.2851665666523475 [Eh]
	 Correlation Energy        =      -1.6690256174175080 [Eh]
	 Total Energy              =    -385.7587775372568331 [Eh]

	 ================> DF-SCS-MP2 Energies <==================
	-----------------------------------------------------------
	 SCS Same-Spin Scale       =       0.3333333333333333 [-]
	 SCS Opposite-Spin Scale   =       1.2000000000000000 [-]
	 SCS Same-Spin Energy      =      -0.1279530169217202 [Eh]
	 SCS Opposite-Spin Energy  =      -1.5421998799828169 [Eh]
	 SCS Correlation Energy    =      -1.6701528969045372 [Eh]
	 SCS Total Energy          =    -385.7599048167438696 [Eh]
	-----------------------------------------------------------

  Dipole Moment: [D]
     X:     0.4781      Y:    -1.4402      Z:     0.7192     Total:     1.6793

*** Psi4 exiting successfully. Buy a developer a beer!
