                               Psi4 1.3.2 release

  ==> Input File <==

--------------------------------------------------------------------------
#psi4
#
memory 32 gb

molecule  {
0 1
  O        0.4332560    -0.5778250     0.1734540
  O       -0.8408100     1.0912640    -0.7084360
  C        1.6346250     0.1623570    -0.1778450
  C        1.8980320     1.2173290     0.8789650
  C        2.7308080    -0.8763490    -0.2789480
  C       -1.9015140    -0.8789960     0.2349040
  C       -0.7535265     0.0243850    -0.1415326
  C       -3.2456700    -0.1986960     0.0285890
  H        1.4602790     0.6397420    -1.1462310
  H        2.8221420     1.7571320     0.6526510
  H        1.0777360     1.9358120     0.9100720
  H        2.0019030     0.7445150     1.8590670
  H        3.6747750    -0.4011320    -0.5598750
  H        2.4805410    -1.6278800    -1.0306640
  H        2.8646540    -1.3764140     0.6835210
  H       -1.8412261    -1.8053340    -0.3481815
  H       -1.7546250    -1.1827800     1.2758720
  H       -3.3759370     0.0860600    -1.0167370
  H       -4.0604800    -0.8690500     0.3134070
  H       -3.3166340     0.7089420     0.6308410
units angstrom
no_reorient  #important for SAPT in psi4, default
symmetry c1  #important for SAPT in psi4, default
}

set PROPERTIES_ORIGIN ["COM"]
properties('MP2/aug-cc-pvtz', properties = ['dipole'])
--------------------------------------------------------------------------

    Molecular point group: c1
  Charge       = 0
  Multiplicity = 1
  Basis Set: AUG-CC-PVTZ
    Blend: AUG-CC-PVTZ
  Basis Set: (AUG-CC-PVTZ AUX)
    Blend: AUG-CC-PVTZ-JKFIT

    Orbital Energies [Eh]
    ---------------------

    Doubly Occupied:

       1A    -20.592547     2A    -20.543563     3A    -11.377059
       4A    -11.288370     5A    -11.242785     6A    -11.219965
       7A    -11.218691     8A    -11.215858     9A     -1.446401
      10A     -1.353174    11A     -1.079285    12A     -1.044617
      13A     -0.944200    14A     -0.902183    15A     -0.813881
      16A     -0.759103    17A     -0.700133    18A     -0.665908
      19A     -0.657041    20A     -0.620720    21A     -0.603185
      22A     -0.573121    23A     -0.556926    24A     -0.548179
      25A     -0.537057    26A     -0.520879    27A     -0.509916
      28A     -0.506463    29A     -0.494605    30A     -0.480486
      31A     -0.451328    32A     -0.440502

  @DF-RHF Final Energy:  -384.08979385857685

   => Energetics <=

    Nuclear Repulsion Energy =            396.3377299362711597
    One-Electron Energy =               -1309.0387811677360332
    Two-Electron Energy =                 528.6112573728879624
    Total Energy =                       -384.0897938585768543
  Basis Set: (AUG-CC-PVTZ AUX)
    Blend: AUG-CC-PVTZ-RI
    Molecular point group: c1

    Geometry (in Angstrom), charge = 0, multiplicity = 1:

       Center              X                  Y                   Z               Mass
    ------------   -----------------  -----------------  -----------------  -----------------
         O            0.434261310924    -0.579647013687     0.171612736419    15.994914619570
         O           -0.839804689076     1.089441986313    -0.710277263581    15.994914619570
         C            1.635630310924     0.160534986313    -0.179686263581    12.000000000000
         C            1.899037310924     1.215506986313     0.877123736419    12.000000000000
         C            2.731813310924    -0.878171013687    -0.280789263581    12.000000000000
         C           -1.900508689076    -0.880818013687     0.233062736419    12.000000000000
         C           -0.752521189076     0.022562986313    -0.143373863581    12.000000000000
         C           -3.244664689076    -0.200518013687     0.026747736419    12.000000000000
         H            1.461284310924     0.637919986313    -1.148072263581     1.007825032230
         H            2.823147310924     1.755309986313     0.650809736419     1.007825032230
         H            1.078741310924     1.933989986313     0.908230736419     1.007825032230
         H            2.002908310924     0.742692986313     1.857225736419     1.007825032230
         H            3.675780310924    -0.402954013687    -0.561716263581     1.007825032230
         H            2.481546310924    -1.629702013687    -1.032505263581     1.007825032230
         H            2.865659310924    -1.378236013687     0.681679736419     1.007825032230
         H           -1.840220789076    -1.807156013687    -0.350022763581     1.007825032230
         H           -1.753619689076    -1.184602013687     1.274030736419     1.007825032230
         H           -3.374931689076     0.084237986313    -1.018578263581     1.007825032230
         H           -4.059474689076    -0.870872013687     0.311565736419     1.007825032230
         H           -3.315628689076     0.707119986313     0.628999736419     1.007825032230

  Basis Set: AUG-CC-PVTZ
    Blend: AUG-CC-PVTZ
  Basis Set: (AUG-CC-PVTZ AUX)
    Blend: AUG-CC-PVTZ-JKFIT
	 Reference Energy          =    -384.0897938585768543 [Eh]
	 Singles Energy            =      -0.0000000000000000 [Eh]
	 Same-Spin Energy          =      -0.3840150271915586 [Eh]
	 Opposite-Spin Energy      =      -1.2862647988872380 [Eh]
	 Correlation Energy        =      -1.6702798260787965 [Eh]
	 Total Energy              =    -385.7600736846556515 [Eh]

	 ================> DF-SCS-MP2 Energies <==================
	-----------------------------------------------------------
	 SCS Same-Spin Scale       =       0.3333333333333333 [-]
	 SCS Opposite-Spin Scale   =       1.2000000000000000 [-]
	 SCS Same-Spin Energy      =      -0.1280050090638529 [Eh]
	 SCS Opposite-Spin Energy  =      -1.5435177586646855 [Eh]
	 SCS Correlation Energy    =      -1.6715227677285385 [Eh]
	 SCS Total Energy          =    -385.7613166263054154 [Eh]
	-----------------------------------------------------------

  Dipole Moment: [D]
     X:     0.7305      Y:    -1.2649      Z:     0.6750     Total:     1.6091

*** Psi4 exiting successfully. Buy a developer a beer!
