                               Psi4 1.3.2 release

  ==> Input File <==

--------------------------------------------------------------------------
#psi4
#
memory 32 gb

molecule  {
0 1
  O        0.4332560    -0.5778250     0.1734540
  O       -0.8408100     1.0912640    -0.7084360
  C        1.5520087     0.1114558    -0.1536867
  C        1.8980320     1.2173290     0.8789650
  C        2.7308080    -0.8763490    -0.2789480
  C       -1.9015140    -0.8789960     0.2349040
  C       -0.7451280     0.0062060    -0.1586260
  C       -3.2456700    -0.1986960     0.0285890
  H        1.4602790     0.6397420    -1.1462310
  H        2.8221420     1.7571320     0.6526510
  H        1.0777360     1.9358120     0.9100720
  H        2.0019030     0.7445150     1.8590670
  H        3.6747750    -0.4011320    -0.5598750
  H        2.4805410    -1.6278800    -1.0306640
  H        2.8646540    -1.3764140     0.6835210
  H       -1.8254340    -1.7987290    -0.3567280
  H       -1.7546250    -1.1827800     1.2758720
  H       -3.3759370     0.0860600    -1.0167370
  H       -4.0604800    -0.8690500     0.3134070
  H       -3.3166340     0.7089420     0.6308410
units angstrom
no_reorient  #important for SAPT in psi4, default
symmetry c1  #important for SAPT in psi4, default
}

set PROPERTIES_ORIGIN ["COM"]
properties('MP2/aug-cc-pvtz', properties = ['dipole'])
--------------------------------------------------------------------------

    Molecular point group: c1
  Charge       = 0
  Multiplicity = 1
  Basis Set: AUG-CC-PVTZ
    Blend: AUG-CC-PVTZ
  Basis Set: (AUG-CC-PVTZ AUX)
    Blend: AUG-CC-PVTZ-JKFIT

    Orbital Energies [Eh]
    ---------------------

    Doubly Occupied:

       1A    -20.607283     2A    -20.548158     3A    -11.384669
       4A    -11.287487     5A    -11.247368     6A    -11.221902
       7A    -11.217551     8A    -11.212805     9A     -1.476001
      10A     -1.365883    11A     -1.080270    12A     -1.039702
      13A     -0.936748    14A     -0.914263    15A     -0.826630
      16A     -0.764876    17A     -0.705543    18A     -0.679575
      19A     -0.663714    20A     -0.621481    21A     -0.605239
      22A     -0.574939    23A     -0.561308    24A     -0.541624
      25A     -0.537393    26A     -0.523968    27A     -0.523725
      28A     -0.506747    29A     -0.494033    30A     -0.463834
      31A     -0.450794    32A     -0.434470

  @DF-RHF Final Energy:  -384.08223636432467

   => Energetics <=

    Nuclear Repulsion Energy =            397.6900880597327159
    One-Electron Energy =               -1311.5046892425284568
    Two-Electron Energy =                 529.7323648184710692
    Total Energy =                       -384.0822363643246717
  Basis Set: (AUG-CC-PVTZ AUX)
    Blend: AUG-CC-PVTZ-RI
    Molecular point group: c1

    Geometry (in Angstrom), charge = 0, multiplicity = 1:

       Center              X                  Y                   Z               Mass
    ------------   -----------------  -----------------  -----------------  -----------------
         O            0.441796371429    -0.572563284397     0.170956611537    15.994914619570
         O           -0.832269628571     1.096525715603    -0.710933388463    15.994914619570
         C            1.560549071429     0.116717515603    -0.156184088463    12.000000000000
         C            1.906572371429     1.222590715603     0.876467611537    12.000000000000
         C            2.739348371429    -0.871087284397    -0.281445388463    12.000000000000
         C           -1.892973628571    -0.873734284397     0.232406611537    12.000000000000
         C           -0.736587628571     0.011467715603    -0.161123388463    12.000000000000
         C           -3.237129628571    -0.193434284397     0.026091611537    12.000000000000
         H            1.468819371429     0.645003715603    -1.148728388463     1.007825032230
         H            2.830682371429     1.762393715603     0.650153611537     1.007825032230
         H            1.086276371429     1.941073715603     0.907574611537     1.007825032230
         H            2.010443371429     0.749776715603     1.856569611537     1.007825032230
         H            3.683315371429    -0.395870284397    -0.562372388463     1.007825032230
         H            2.489081371429    -1.622618284397    -1.033161388463     1.007825032230
         H            2.873194371429    -1.371152284397     0.681023611537     1.007825032230
         H           -1.816893628571    -1.793467284397    -0.359225388463     1.007825032230
         H           -1.746084628571    -1.177518284397     1.273374611537     1.007825032230
         H           -3.367396628571     0.091321715603    -1.019234388463     1.007825032230
         H           -4.051939628571    -0.863788284397     0.310909611537     1.007825032230
         H           -3.308093628571     0.714203715603     0.628343611537     1.007825032230

  Basis Set: AUG-CC-PVTZ
    Blend: AUG-CC-PVTZ
  Basis Set: (AUG-CC-PVTZ AUX)
    Blend: AUG-CC-PVTZ-JKFIT
	 Reference Energy          =    -384.0822363643246717 [Eh]
	 Singles Energy            =      -0.0000000000000000 [Eh]
	 Same-Spin Energy          =      -0.3840289915758908 [Eh]
	 Opposite-Spin Energy      =      -1.2856594466081468 [Eh]
	 Correlation Energy        =      -1.6696884381840376 [Eh]
	 Total Energy              =    -385.7519248025087109 [Eh]

	 ================> DF-SCS-MP2 Energies <==================
	-----------------------------------------------------------
	 SCS Same-Spin Scale       =       0.3333333333333333 [-]
	 SCS Opposite-Spin Scale   =       1.2000000000000000 [-]
	 SCS Same-Spin Energy      =      -0.1280096638586303 [Eh]
	 SCS Opposite-Spin Energy  =      -1.5427913359297760 [Eh]
	 SCS Correlation Energy    =      -1.6708009997884063 [Eh]
	 SCS Total Energy          =    -385.7530373641130836 [Eh]
	-----------------------------------------------------------

  Dipole Moment: [D]
     X:     0.3567      Y:    -1.4165      Z:     0.6866     Total:     1.6140

*** Psi4 exiting successfully. Buy a developer a beer!
