                               Psi4 1.4a3.dev225

  ==> Input File <==

--------------------------------------------------------------------------
#psi4
#
memory 32 gb

molecule  {
0 1
  O        0.3891610    -0.5692390     0.2103150
  O       -0.8187590     1.0859660    -0.7901910
  C        1.6201550     0.0566620    -0.2576010
  C        1.9966600     1.1837410     0.6861130
  C        2.6439510    -1.0589150    -0.3056920
  C       -1.9560750    -0.6909180     0.4160040
  C       -0.7816149     0.0685310    -0.1360520
  C       -3.2763650    -0.0323590     0.0421060
  H        1.4292650     0.4552490    -1.2581690
  H        2.9411400     1.6393830     0.3731600
  H        1.2237650     1.9545110     0.6843630
  H        2.1165080     0.7943580     1.7011000
  H        3.6013200    -0.6740400    -0.6688000
  H        2.3119000    -1.8571380    -0.9736080
  H        2.7925020    -1.4784670     0.6929400
  H       -1.8998650    -1.7205910     0.0458690
  H       -1.8337900    -0.7582950     1.5029030
  H       -3.3906490     0.0180570    -1.0424220
  H       -4.1145290    -0.5997430     0.4548680
  H       -3.3230440     0.9880080     0.4273560
units angstrom
no_reorient  #important for SAPT in psi4, default
symmetry c1  #important for SAPT in psi4, default
}

set PROPERTIES_ORIGIN ["COM"]
properties('MP2/aug-cc-pvtz', properties = ['dipole'])
--------------------------------------------------------------------------

    Molecular point group: c1
  Charge       = 0
  Multiplicity = 1
  Basis Set: AUG-CC-PVTZ
    Blend: AUG-CC-PVTZ
  Basis Set: (AUG-CC-PVTZ AUX)
    Blend: AUG-CC-PVTZ-JKFIT

    Orbital Energies [Eh]
    ---------------------

    Doubly Occupied:

       1A    -20.590212     2A    -20.544688     3A    -11.377418
       4A    -11.288029     5A    -11.243801     6A    -11.219724
       7A    -11.219634     8A    -11.215748     9A     -1.442959
      10A     -1.351743    11A     -1.078652    12A     -1.044504
      13A     -0.943220    14A     -0.902713    15A     -0.811961
      16A     -0.757480    17A     -0.699979    18A     -0.665797
      19A     -0.654347    20A     -0.620779    21A     -0.602836
      22A     -0.571983    23A     -0.557409    24A     -0.547150
      25A     -0.535913    26A     -0.521591    27A     -0.509277
      28A     -0.507055    29A     -0.495489    30A     -0.480188
      31A     -0.450744    32A     -0.440672

  @DF-RHF Final Energy:  -384.08946495397680

   => Energetics <=

    Nuclear Repulsion Energy =            395.8097834253602514
    One-Electron Energy =               -1308.0111073201619547
    Two-Electron Energy =                 528.1118589408248454
    Total Energy =                       -384.0894649539768579
  Basis Set: (AUG-CC-PVTZ AUX)
    Blend: AUG-CC-PVTZ-RI
    Molecular point group: c1

    Geometry (in Angstrom), charge = 0, multiplicity = 1:

       Center              X                  Y                   Z               Mass
    ------------   -----------------  -----------------  -----------------  -----------------
         O            0.406750161160    -0.580760918885     0.227387108183    15.994914619570
         O           -0.801169838840     1.074444081115    -0.773118891817    15.994914619570
         C            1.637744161160     0.045140081115    -0.240528891817    12.000000000000
         C            2.014249161160     1.172219081115     0.703185108183    12.000000000000
         C            2.661540161160    -1.070436918885    -0.288619891817    12.000000000000
         C           -1.938485838840    -0.702439918885     0.433076108183    12.000000000000
         C           -0.764025738840     0.057009081115    -0.118979891817    12.000000000000
         C           -3.258775838840    -0.043880918885     0.059178108183    12.000000000000
         H            1.446854161160     0.443727081115    -1.241096891817     1.007825032230
         H            2.958729161160     1.627861081115     0.390232108183     1.007825032230
         H            1.241354161160     1.942989081115     0.701435108183     1.007825032230
         H            2.134097161160     0.782836081115     1.718172108183     1.007825032230
         H            3.618909161160    -0.685561918885    -0.651727891817     1.007825032230
         H            2.329489161160    -1.868659918885    -0.956535891817     1.007825032230
         H            2.810091161160    -1.489988918885     0.710012108183     1.007825032230
         H           -1.882275838840    -1.732112918885     0.062941108183     1.007825032230
         H           -1.816200838840    -0.769816918885     1.519975108183     1.007825032230
         H           -3.373059838840     0.006535081115    -1.025349891817     1.007825032230
         H           -4.096939838840    -0.611264918885     0.471940108183     1.007825032230
         H           -3.305454838840     0.976486081115     0.444428108183     1.007825032230

  Basis Set: AUG-CC-PVTZ
    Blend: AUG-CC-PVTZ
  Basis Set: (AUG-CC-PVTZ AUX)
    Blend: AUG-CC-PVTZ-JKFIT
	 Reference Energy          =    -384.0894649539768011 [Eh]
	 Singles Energy            =      -0.0000000000000000 [Eh]
	 Same-Spin Energy          =      -0.3840314699907627 [Eh]
	 Opposite-Spin Energy      =      -1.2864952704539663 [Eh]
	 Correlation Energy        =      -1.6705267404447288 [Eh]
	 Total Energy              =    -385.7599916944215579 [Eh]

	 ================> DF-SCS-MP2 Energies <==================
	-----------------------------------------------------------
	 SCS Same-Spin Scale       =       0.3333333333333333 [-]
	 SCS Opposite-Spin Scale   =       1.2000000000000000 [-]
	 SCS Same-Spin Energy      =      -0.1280104899969209 [Eh]
	 SCS Opposite-Spin Energy  =      -1.5437943245447594 [Eh]
	 SCS Correlation Energy    =      -1.6718048145416802 [Eh]
	 SCS Total Energy          =    -385.7612697685185026 [Eh]
	-----------------------------------------------------------

  Dipole Moment: [D]
     X:     0.5991      Y:    -1.2065      Z:     0.7784     Total:     1.5557

*** Psi4 exiting successfully. Buy a developer a beer!
