                               Psi4 1.3.2 release

  ==> Input File <==

--------------------------------------------------------------------------
#psi4
#
memory 32 gb

molecule  {
0 1
  O        0.4332560    -0.5778250     0.1734540
  O       -0.8408100     1.0912640    -0.7084360
  C        1.6346250     0.1623570    -0.1778450
  C        1.8980320     1.2173290     0.8789650
  C        2.7308080    -0.8763490    -0.2789480
  C       -1.9015140    -0.8789960     0.2349040
  C       -0.7713699     0.0599119    -0.1070071
  C       -3.2456700    -0.1986960     0.0285890
  H        1.4602790     0.6397420    -1.1462310
  H        2.8221420     1.7571320     0.6526510
  H        1.0777360     1.9358120     0.9100720
  H        2.0019030     0.7445150     1.8590670
  H        3.6747750    -0.4011320    -0.5598750
  H        2.4805410    -1.6278800    -1.0306640
  H        2.8646540    -1.3764140     0.6835210
  H       -1.8728605    -1.8176954    -0.3305584
  H       -1.7546250    -1.1827800     1.2758720
  H       -3.3759370     0.0860600    -1.0167370
  H       -4.0604800    -0.8690500     0.3134070
  H       -3.3166340     0.7089420     0.6308410
units angstrom
no_reorient  #important for SAPT in psi4, default
symmetry c1  #important for SAPT in psi4, default
}

set PROPERTIES_ORIGIN ["COM"]
properties('MP2/aug-cc-pvtz', properties = ['dipole'])
--------------------------------------------------------------------------

    Molecular point group: c1
  Charge       = 0
  Multiplicity = 1
  Basis Set: AUG-CC-PVTZ
    Blend: AUG-CC-PVTZ
  Basis Set: (AUG-CC-PVTZ AUX)
    Blend: AUG-CC-PVTZ-JKFIT

    Orbital Energies [Eh]
    ---------------------

    Doubly Occupied:

       1A    -20.587014     2A    -20.549397     3A    -11.377887
       4A    -11.285712     5A    -11.243548     6A    -11.219067
       7A    -11.218320     8A    -11.214918     9A     -1.445603
      10A     -1.356298    11A     -1.077386    12A     -1.044082
      13A     -0.942862    14A     -0.900299    15A     -0.810311
      16A     -0.756264    17A     -0.703839    18A     -0.665902
      19A     -0.657529    20A     -0.620338    21A     -0.602956
      22A     -0.573221    23A     -0.555680    24A     -0.546682
      25A     -0.537186    26A     -0.522654    27A     -0.509038
      28A     -0.507048    29A     -0.494372    30A     -0.480603
      31A     -0.450274    32A     -0.441285

  @DF-RHF Final Energy:  -384.08547570021983

   => Energetics <=

    Nuclear Repulsion Energy =            396.2078854213465320
    One-Electron Energy =               -1308.7915724598051384
    Two-Electron Energy =                 528.4982113382387752
    Total Energy =                       -384.0854757002198312
  Basis Set: (AUG-CC-PVTZ AUX)
    Blend: AUG-CC-PVTZ-RI
    Molecular point group: c1

    Geometry (in Angstrom), charge = 0, multiplicity = 1:

       Center              X                  Y                   Z               Mass
    ------------   -----------------  -----------------  -----------------  -----------------
         O            0.436380494560    -0.583212239176     0.167890707477    15.994914619570
         O           -0.837685505440     1.085876760824    -0.713999292523    15.994914619570
         C            1.637749494560     0.156969760824    -0.183408292523    12.000000000000
         C            1.901156494560     1.211941760824     0.873401707477    12.000000000000
         C            2.733932494560    -0.881736239176    -0.284511292523    12.000000000000
         C           -1.898389505440    -0.884383239176     0.229340707477    12.000000000000
         C           -0.768245405440     0.054524660824    -0.112570392523    12.000000000000
         C           -3.242545505440    -0.204083239176     0.023025707477    12.000000000000
         H            1.463403494560     0.634354760824    -1.151794292523     1.007825032230
         H            2.825266494560     1.751744760824     0.647087707477     1.007825032230
         H            1.080860494560     1.930424760824     0.904508707477     1.007825032230
         H            2.005027494560     0.739127760824     1.853503707477     1.007825032230
         H            3.677899494560    -0.406519239176    -0.565438292523     1.007825032230
         H            2.483665494560    -1.633267239176    -1.036227292523     1.007825032230
         H            2.867778494560    -1.381801239176     0.677957707477     1.007825032230
         H           -1.869736005440    -1.823082639176    -0.336121692523     1.007825032230
         H           -1.751500505440    -1.188167239176     1.270308707477     1.007825032230
         H           -3.372812505440     0.080672760824    -1.022300292523     1.007825032230
         H           -4.057355505440    -0.874437239176     0.307843707477     1.007825032230
         H           -3.313509505440     0.703554760824     0.625277707477     1.007825032230

  Basis Set: AUG-CC-PVTZ
    Blend: AUG-CC-PVTZ
  Basis Set: (AUG-CC-PVTZ AUX)
    Blend: AUG-CC-PVTZ-JKFIT
	 Reference Energy          =    -384.0854757002198312 [Eh]
	 Singles Energy            =      -0.0000000000000000 [Eh]
	 Same-Spin Energy          =      -0.3841199392580554 [Eh]
	 Opposite-Spin Energy      =      -1.2866857426749099 [Eh]
	 Correlation Energy        =      -1.6708056819329653 [Eh]
	 Total Energy              =    -385.7562813821527925 [Eh]

	 ================> DF-SCS-MP2 Energies <==================
	-----------------------------------------------------------
	 SCS Same-Spin Scale       =       0.3333333333333333 [-]
	 SCS Opposite-Spin Scale   =       1.2000000000000000 [-]
	 SCS Same-Spin Energy      =      -0.1280399797526851 [Eh]
	 SCS Opposite-Spin Energy  =      -1.5440228912098919 [Eh]
	 SCS Correlation Energy    =      -1.6720628709625771 [Eh]
	 SCS Total Energy          =    -385.7575385711824083 [Eh]
	-----------------------------------------------------------

  Dipole Moment: [D]
     X:     0.5462      Y:    -1.1611      Z:     0.6573     Total:     1.4417

*** Psi4 exiting successfully. Buy a developer a beer!
