                               Psi4 1.3.2 release

  ==> Input File <==

--------------------------------------------------------------------------
#psi4
#
memory 32 gb

molecule  {
0 1
  O        0.4332560    -0.5778250     0.1734540
  O       -0.8408100     1.0912640    -0.7084360
  C        1.6346250     0.1623570    -0.1778450
  C        1.8980320     1.2173290     0.8789650
  C        2.7308080    -0.8763490    -0.2789480
  C       -1.9015140    -0.8789960     0.2349040
  C       -0.8217842    -0.0524736    -0.1325391
  C       -3.2456700    -0.1986960     0.0285890
  H        1.4602790     0.6397420    -1.1462310
  H        2.8221420     1.7571320     0.6526510
  H        1.0777360     1.9358120     0.9100720
  H        2.0019030     0.7445150     1.8590670
  H        3.6747750    -0.4011320    -0.5598750
  H        2.4805410    -1.6278800    -1.0306640
  H        2.8646540    -1.3764140     0.6835210
  H       -1.8254340    -1.7987290    -0.3567280
  H       -1.7546250    -1.1827800     1.2758720
  H       -3.3759370     0.0860600    -1.0167370
  H       -4.0604800    -0.8690500     0.3134070
  H       -3.3166340     0.7089420     0.6308410
units angstrom
no_reorient  #important for SAPT in psi4, default
symmetry c1  #important for SAPT in psi4, default
}

set PROPERTIES_ORIGIN ["COM"]
properties('MP2/aug-cc-pvtz', properties = ['dipole'])
--------------------------------------------------------------------------

    Molecular point group: c1
  Charge       = 0
  Multiplicity = 1
  Basis Set: AUG-CC-PVTZ
    Blend: AUG-CC-PVTZ
  Basis Set: (AUG-CC-PVTZ AUX)
    Blend: AUG-CC-PVTZ-JKFIT

    Orbital Energies [Eh]
    ---------------------

    Doubly Occupied:

       1A    -20.587558     2A    -20.536971     3A    -11.386294
       4A    -11.286118     5A    -11.247859     6A    -11.225919
       7A    -11.217872     8A    -11.212062     9A     -1.423386
      10A     -1.314519    11A     -1.097170    12A     -1.050593
      13A     -0.940672    14A     -0.920002    15A     -0.813864
      16A     -0.751359    17A     -0.703396    18A     -0.664387
      19A     -0.648805    20A     -0.622133    21A     -0.599820
      22A     -0.567041    23A     -0.555795    24A     -0.544491
      25A     -0.533659    26A     -0.524478    27A     -0.512615
      28A     -0.508218    29A     -0.487756    30A     -0.472146
      31A     -0.444992    32A     -0.435039

  @DF-RHF Final Energy:  -384.06810764612970

   => Energetics <=

    Nuclear Repulsion Energy =            395.5887202164979612
    One-Electron Energy =               -1307.6396804335811339
    Two-Electron Energy =                 527.9828525709535825
    Total Energy =                       -384.0681076461296470
  Basis Set: (AUG-CC-PVTZ AUX)
    Blend: AUG-CC-PVTZ-RI
    Molecular point group: c1

    Geometry (in Angstrom), charge = 0, multiplicity = 1:

       Center              X                  Y                   Z               Mass
    ------------   -----------------  -----------------  -----------------  -----------------
         O            0.441180254078    -0.571759202720     0.170757245096    15.994914619570
         O           -0.832885745922     1.097329797280    -0.711132754904    15.994914619570
         C            1.642549254078     0.168422797280    -0.180541754904    12.000000000000
         C            1.905956254078     1.223394797280     0.876268245096    12.000000000000
         C            2.738732254078    -0.870283202720    -0.281644754904    12.000000000000
         C           -1.893589745922    -0.872930202720     0.232207245096    12.000000000000
         C           -0.813859945922    -0.046407802720    -0.135235854904    12.000000000000
         C           -3.237745745922    -0.192630202720     0.025892245096    12.000000000000
         H            1.468203254078     0.645807797280    -1.148927754904     1.007825032230
         H            2.830066254078     1.763197797280     0.649954245096     1.007825032230
         H            1.085660254078     1.941877797280     0.907375245096     1.007825032230
         H            2.009827254078     0.750580797280     1.856370245096     1.007825032230
         H            3.682699254078    -0.395066202720    -0.562571754904     1.007825032230
         H            2.488465254078    -1.621814202720    -1.033360754904     1.007825032230
         H            2.872578254078    -1.370348202720     0.680824245096     1.007825032230
         H           -1.817509745922    -1.792663202720    -0.359424754904     1.007825032230
         H           -1.746700745922    -1.176714202720     1.273175245096     1.007825032230
         H           -3.368012745922     0.092125797280    -1.019433754904     1.007825032230
         H           -4.052555745922    -0.862984202720     0.310710245096     1.007825032230
         H           -3.308709745922     0.715007797280     0.628144245096     1.007825032230

  Basis Set: AUG-CC-PVTZ
    Blend: AUG-CC-PVTZ
  Basis Set: (AUG-CC-PVTZ AUX)
    Blend: AUG-CC-PVTZ-JKFIT
	 Reference Energy          =    -384.0681076461297039 [Eh]
	 Singles Energy            =      -0.0000000000000000 [Eh]
	 Same-Spin Energy          =      -0.3865955123497292 [Eh]
	 Opposite-Spin Energy      =      -1.2908558574016027 [Eh]
	 Correlation Energy        =      -1.6774513697513318 [Eh]
	 Total Energy              =    -385.7455590158810423 [Eh]

	 ================> DF-SCS-MP2 Energies <==================
	-----------------------------------------------------------
	 SCS Same-Spin Scale       =       0.3333333333333333 [-]
	 SCS Opposite-Spin Scale   =       1.2000000000000000 [-]
	 SCS Same-Spin Energy      =      -0.1288651707832431 [Eh]
	 SCS Opposite-Spin Energy  =      -1.5490270288819232 [Eh]
	 SCS Correlation Energy    =      -1.6778921996651663 [Eh]
	 SCS Total Energy          =    -385.7459998457948700 [Eh]
	-----------------------------------------------------------

  Dipole Moment: [D]
     X:     0.2705      Y:    -1.6084      Z:     0.7931     Total:     1.8136

*** Psi4 exiting successfully. Buy a developer a beer!
