                               Psi4 1.3.2 release

  ==> Input File <==

--------------------------------------------------------------------------
#psi4
#
memory 32 gb

molecule  {
0 1
  O        0.3965599    -0.6328831     0.1992455
  O       -0.8408100     1.0912640    -0.7084360
  C        1.6346250     0.1623570    -0.1778450
  C        1.8980320     1.2173290     0.8789650
  C        2.7308080    -0.8763490    -0.2789480
  C       -1.8492983    -0.9313393     0.2626740
  C       -0.7451280     0.0062060    -0.1586260
  C       -3.2456700    -0.1986960     0.0285890
  H        1.4602790     0.6397420    -1.1462310
  H        2.8221420     1.7571320     0.6526510
  H        1.0777360     1.9358120     0.9100720
  H        2.0019030     0.7445150     1.8590670
  H        3.6747750    -0.4011320    -0.5598750
  H        2.4805410    -1.6278800    -1.0306640
  H        2.8646540    -1.3764140     0.6835210
  H       -1.8254340    -1.7987290    -0.3567280
  H       -1.7546250    -1.1827800     1.2758720
  H       -3.3759370     0.0860600    -1.0167370
  H       -4.0604800    -0.8690500     0.3134070
  H       -3.3166340     0.7089420     0.6308410
units angstrom
no_reorient  #important for SAPT in psi4, default
symmetry c1  #important for SAPT in psi4, default
}

set PROPERTIES_ORIGIN ["COM"]
properties('MP2/aug-cc-pvtz', properties = ['dipole'])
--------------------------------------------------------------------------

    Molecular point group: c1
  Charge       = 0
  Multiplicity = 1
  Basis Set: AUG-CC-PVTZ
    Blend: AUG-CC-PVTZ
  Basis Set: (AUG-CC-PVTZ AUX)
    Blend: AUG-CC-PVTZ-JKFIT

    Orbital Energies [Eh]
    ---------------------

    Doubly Occupied:

       1A    -20.596029     2A    -20.543997     3A    -11.375678
       4A    -11.295879     5A    -11.234559     6A    -11.222932
       7A    -11.220137     8A    -11.217503     9A     -1.439195
      10A     -1.346953    11A     -1.079213    12A     -1.035422
      13A     -0.946557    14A     -0.896346    15A     -0.809875
      16A     -0.761586    17A     -0.693594    18A     -0.665913
      19A     -0.657328    20A     -0.620722    21A     -0.601422
      22A     -0.576528    23A     -0.553627    24A     -0.548012
      25A     -0.536714    26A     -0.517772    27A     -0.509773
      28A     -0.503770    29A     -0.487849    30A     -0.483098
      31A     -0.456009    32A     -0.438610

  @DF-RHF Final Energy:  -384.07693729225588

   => Energetics <=

    Nuclear Repulsion Energy =            394.9391877935228194
    One-Electron Energy =               -1306.2870516453542677
    Two-Electron Energy =                 527.2709265595756278
    Total Energy =                       -384.0769372922558205
  Basis Set: (AUG-CC-PVTZ AUX)
    Blend: AUG-CC-PVTZ-RI
    Molecular point group: c1

    Geometry (in Angstrom), charge = 0, multiplicity = 1:

       Center              X                  Y                   Z               Mass
    ------------   -----------------  -----------------  -----------------  -----------------
         O            0.396218466744    -0.619885978139     0.192821004423    15.994914619570
         O           -0.841151433256     1.104261121861    -0.714860495577    15.994914619570
         C            1.634283566744     0.175354121861    -0.184269495577    12.000000000000
         C            1.897690566744     1.230326121861     0.872540504423    12.000000000000
         C            2.730466566744    -0.863351878139    -0.285372495577    12.000000000000
         C           -1.849639733256    -0.918342178139     0.256249504423    12.000000000000
         C           -0.745469433256     0.019203121861    -0.165050495577    12.000000000000
         C           -3.246011433256    -0.185698878139     0.022164504423    12.000000000000
         H            1.459937566744     0.652739121861    -1.152655495577     1.007825032230
         H            2.821800566744     1.770129121861     0.646226504423     1.007825032230
         H            1.077394566744     1.948809121861     0.903647504423     1.007825032230
         H            2.001561566744     0.757512121861     1.852642504423     1.007825032230
         H            3.674433566744    -0.388134878139    -0.566299495577     1.007825032230
         H            2.480199566744    -1.614882878139    -1.037088495577     1.007825032230
         H            2.864312566744    -1.363416878139     0.677096504423     1.007825032230
         H           -1.825775433256    -1.785731878139    -0.363152495577     1.007825032230
         H           -1.754966433256    -1.169782878139     1.269447504423     1.007825032230
         H           -3.376278433256     0.099057121861    -1.023161495577     1.007825032230
         H           -4.060821433256    -0.856052878139     0.306982504423     1.007825032230
         H           -3.316975433256     0.721939121861     0.624416504423     1.007825032230

  Basis Set: AUG-CC-PVTZ
    Blend: AUG-CC-PVTZ
  Basis Set: (AUG-CC-PVTZ AUX)
    Blend: AUG-CC-PVTZ-JKFIT
	 Reference Energy          =    -384.0769372922558773 [Eh]
	 Singles Energy            =      -0.0000000000000000 [Eh]
	 Same-Spin Energy          =      -0.3846337758515247 [Eh]
	 Opposite-Spin Energy      =      -1.2888834126713491 [Eh]
	 Correlation Energy        =      -1.6735171885228737 [Eh]
	 Total Energy              =    -385.7504544807787283 [Eh]

	 ================> DF-SCS-MP2 Energies <==================
	-----------------------------------------------------------
	 SCS Same-Spin Scale       =       0.3333333333333333 [-]
	 SCS Opposite-Spin Scale   =       1.2000000000000000 [-]
	 SCS Same-Spin Energy      =      -0.1282112586171749 [Eh]
	 SCS Opposite-Spin Energy  =      -1.5466600952056189 [Eh]
	 SCS Correlation Energy    =      -1.6748713538227937 [Eh]
	 SCS Total Energy          =    -385.7518086460786435 [Eh]
	-----------------------------------------------------------

  Dipole Moment: [D]
     X:     1.1323      Y:    -1.1721      Z:     0.6445     Total:     1.7524

*** Psi4 exiting successfully. Buy a developer a beer!
