                               Psi4 1.3.2 release

  ==> Input File <==

--------------------------------------------------------------------------
#psi4
#
memory 32 gb

molecule  {
0 1
  O        0.4332560    -0.5778250     0.1734540
  O       -0.8408100     1.0912640    -0.7084360
  C        1.6053231     0.1988667    -0.1974592
  C        1.8980320     1.2173290     0.8789650
  C        2.7308080    -0.8763490    -0.2789480
  C       -1.9015140    -0.8789960     0.2349040
  C       -0.7209884     0.0426452    -0.1768241
  C       -3.2456700    -0.1986960     0.0285890
  H        1.4602790     0.6397420    -1.1462310
  H        2.8221420     1.7571320     0.6526510
  H        1.0777360     1.9358120     0.9100720
  H        2.0019030     0.7445150     1.8590670
  H        3.6747750    -0.4011320    -0.5598750
  H        2.4805410    -1.6278800    -1.0306640
  H        2.8646540    -1.3764140     0.6835210
  H       -1.8254340    -1.7987290    -0.3567280
  H       -1.7546250    -1.1827800     1.2758720
  H       -3.3759370     0.0860600    -1.0167370
  H       -4.0604800    -0.8690500     0.3134070
  H       -3.3166340     0.7089420     0.6308410
units angstrom
no_reorient  #important for SAPT in psi4, default
symmetry c1  #important for SAPT in psi4, default
}

set PROPERTIES_ORIGIN ["COM"]
properties('MP2/aug-cc-pvtz', properties = ['dipole'])
--------------------------------------------------------------------------

    Molecular point group: c1
  Charge       = 0
  Multiplicity = 1
  Basis Set: AUG-CC-PVTZ
    Blend: AUG-CC-PVTZ
  Basis Set: (AUG-CC-PVTZ AUX)
    Blend: AUG-CC-PVTZ-JKFIT

    Orbital Energies [Eh]
    ---------------------

    Doubly Occupied:

       1A    -20.596723     2A    -20.546868     3A    -11.373069
       4A    -11.288305     5A    -11.239536     6A    -11.220979
       7A    -11.217243     8A    -11.216023     9A     -1.460043
      10A     -1.370795    11A     -1.072977    12A     -1.037630
      13A     -0.941768    14A     -0.894791    15A     -0.815482
      16A     -0.768711    17A     -0.701257    18A     -0.671851
      19A     -0.659252    20A     -0.616541    21A     -0.603194
      22A     -0.577329    23A     -0.554012    24A     -0.550455
      25A     -0.538999    26A     -0.520392    27A     -0.510569
      28A     -0.508629    29A     -0.495226    30A     -0.485864
      31A     -0.454558    32A     -0.434094

  @DF-RHF Final Energy:  -384.08677609737794

   => Energetics <=

    Nuclear Repulsion Energy =            396.7549660049795648
    One-Electron Energy =               -1309.7971489263154581
    Two-Electron Energy =                 528.9554068239580147
    Total Energy =                       -384.0867760973778786
  Basis Set: (AUG-CC-PVTZ AUX)
    Blend: AUG-CC-PVTZ-RI
    Molecular point group: c1

    Geometry (in Angstrom), charge = 0, multiplicity = 1:

       Center              X                  Y                   Z               Mass
    ------------   -----------------  -----------------  -----------------  -----------------
         O            0.433789667966    -0.585366122528     0.177362739273    15.994914619570
         O           -0.840276332034     1.083722877472    -0.704527260727    15.994914619570
         C            1.605856767966     0.191325577472    -0.193550460727    12.000000000000
         C            1.898565667966     1.209787877472     0.882873739273    12.000000000000
         C            2.731341667966    -0.883890122528    -0.275039260727    12.000000000000
         C           -1.900980332034    -0.886537122528     0.238812739273    12.000000000000
         C           -0.720454732034     0.035104077472    -0.172915360727    12.000000000000
         C           -3.245136332034    -0.206237122528     0.032497739273    12.000000000000
         H            1.460812667966     0.632200877472    -1.142322260727     1.007825032230
         H            2.822675667966     1.749590877472     0.656559739273     1.007825032230
         H            1.078269667966     1.928270877472     0.913980739273     1.007825032230
         H            2.002436667966     0.736973877472     1.862975739273     1.007825032230
         H            3.675308667966    -0.408673122528    -0.555966260727     1.007825032230
         H            2.481074667966    -1.635421122528    -1.026755260727     1.007825032230
         H            2.865187667966    -1.383955122528     0.687429739273     1.007825032230
         H           -1.824900332034    -1.806270122528    -0.352819260727     1.007825032230
         H           -1.754091332034    -1.190321122528     1.279780739273     1.007825032230
         H           -3.375403332034     0.078518877472    -1.012828260727     1.007825032230
         H           -4.059946332034    -0.876591122528     0.317315739273     1.007825032230
         H           -3.316100332034     0.701400877472     0.634749739273     1.007825032230

  Basis Set: AUG-CC-PVTZ
    Blend: AUG-CC-PVTZ
  Basis Set: (AUG-CC-PVTZ AUX)
    Blend: AUG-CC-PVTZ-JKFIT
	 Reference Energy          =    -384.0867760973779355 [Eh]
	 Singles Energy            =      -0.0000000000000000 [Eh]
	 Same-Spin Energy          =      -0.3831076806383458 [Eh]
	 Opposite-Spin Energy      =      -1.2849432348238738 [Eh]
	 Correlation Energy        =      -1.6680509154622196 [Eh]
	 Total Energy              =    -385.7548270128401668 [Eh]

	 ================> DF-SCS-MP2 Energies <==================
	-----------------------------------------------------------
	 SCS Same-Spin Scale       =       0.3333333333333333 [-]
	 SCS Opposite-Spin Scale   =       1.2000000000000000 [-]
	 SCS Same-Spin Energy      =      -0.1277025602127819 [Eh]
	 SCS Opposite-Spin Energy  =      -1.5419318817886485 [Eh]
	 SCS Correlation Energy    =      -1.6696344420014304 [Eh]
	 SCS Total Energy          =    -385.7564105393793739 [Eh]
	-----------------------------------------------------------

  Dipole Moment: [D]
     X:     0.8706      Y:    -1.0600      Z:     0.5839     Total:     1.4908

*** Psi4 exiting successfully. Buy a developer a beer!
