                               Psi4 1.3.2 release

  ==> Input File <==

--------------------------------------------------------------------------
#psi4
#
memory 32 gb

molecule  {
0 1
  O        0.4332560    -0.5778250     0.1734540
  O       -0.8301998     1.0921590    -0.7084131
  C        1.6346250     0.1623570    -0.1778450
  C        1.8980320     1.2173290     0.8789650
  C        2.7308080    -0.8763490    -0.2789480
  C       -1.8930325    -0.8878344     0.2397257
  C       -0.7451280     0.0062060    -0.1586260
  C       -3.2456700    -0.1986960     0.0285890
  H        1.4602790     0.6397420    -1.1462310
  H        2.8221420     1.7571320     0.6526510
  H        1.0777360     1.9358120     0.9100720
  H        2.0019030     0.7445150     1.8590670
  H        3.6747750    -0.4011320    -0.5598750
  H        2.4805410    -1.6278800    -1.0306640
  H        2.8646540    -1.3764140     0.6835210
  H       -1.8254340    -1.7987290    -0.3567280
  H       -1.7546250    -1.1827800     1.2758720
  H       -3.3759370     0.0860600    -1.0167370
  H       -4.0604800    -0.8690500     0.3134070
  H       -3.3166340     0.7089420     0.6308410
units angstrom
no_reorient  #important for SAPT in psi4, default
symmetry c1  #important for SAPT in psi4, default
}

set PROPERTIES_ORIGIN ["COM"]
properties('MP2/aug-cc-pvtz', properties = ['dipole'])
--------------------------------------------------------------------------

    Molecular point group: c1
  Charge       = 0
  Multiplicity = 1
  Basis Set: AUG-CC-PVTZ
    Blend: AUG-CC-PVTZ
  Basis Set: (AUG-CC-PVTZ AUX)
    Blend: AUG-CC-PVTZ-JKFIT

    Orbital Energies [Eh]
    ---------------------

    Doubly Occupied:

       1A    -20.594336     2A    -20.541027     3A    -11.377068
       4A    -11.289074     5A    -11.242570     6A    -11.220421
       7A    -11.219392     8A    -11.215962     9A     -1.447985
      10A     -1.349160    11A     -1.080149    12A     -1.043662
      13A     -0.944478    14A     -0.903200    15A     -0.815924
      16A     -0.760529    17A     -0.698202    18A     -0.666907
      19A     -0.656719    20A     -0.620860    21A     -0.603294
      22A     -0.572789    23A     -0.556484    24A     -0.548388
      25A     -0.536546    26A     -0.520075    27A     -0.508841
      28A     -0.506162    29A     -0.496276    30A     -0.480401
      31A     -0.450897    32A     -0.439979

  @DF-RHF Final Energy:  -384.09002119581601

   => Energetics <=

    Nuclear Repulsion Energy =            396.3795504606679856
    One-Electron Energy =               -1309.1236342129743662
    Two-Electron Energy =                 528.6540625564903166
    Total Energy =                       -384.0900211958160071
  Basis Set: (AUG-CC-PVTZ AUX)
    Blend: AUG-CC-PVTZ-RI
    Molecular point group: c1

    Geometry (in Angstrom), charge = 0, multiplicity = 1:

       Center              X                  Y                   Z               Mass
    ------------   -----------------  -----------------  -----------------  -----------------
         O            0.430917302957    -0.577034790010     0.172952351312    15.994914619570
         O           -0.832538497043     1.092949209990    -0.708914748688    15.994914619570
         C            1.632286302957     0.163147209990    -0.178346648688    12.000000000000
         C            1.895693302957     1.218119209990     0.878463351312    12.000000000000
         C            2.728469302957    -0.875558790010    -0.279449648688    12.000000000000
         C           -1.895371197043    -0.887044190010     0.239224051312    12.000000000000
         C           -0.747466697043     0.006996209990    -0.159127648688    12.000000000000
         C           -3.248008697043    -0.197905790010     0.028087351312    12.000000000000
         H            1.457940302957     0.640532209990    -1.146732648688     1.007825032230
         H            2.819803302957     1.757922209990     0.652149351312     1.007825032230
         H            1.075397302957     1.936602209990     0.909570351312     1.007825032230
         H            1.999564302957     0.745305209990     1.858565351312     1.007825032230
         H            3.672436302957    -0.400341790010    -0.560376648688     1.007825032230
         H            2.478202302957    -1.627089790010    -1.031165648688     1.007825032230
         H            2.862315302957    -1.375623790010     0.683019351312     1.007825032230
         H           -1.827772697043    -1.797938790010    -0.357229648688     1.007825032230
         H           -1.756963697043    -1.181989790010     1.275370351312     1.007825032230
         H           -3.378275697043     0.086850209990    -1.017238648688     1.007825032230
         H           -4.062818697043    -0.868259790010     0.312905351312     1.007825032230
         H           -3.318972697043     0.709732209990     0.630339351312     1.007825032230

  Basis Set: AUG-CC-PVTZ
    Blend: AUG-CC-PVTZ
  Basis Set: (AUG-CC-PVTZ AUX)
    Blend: AUG-CC-PVTZ-JKFIT
	 Reference Energy          =    -384.0900211958160071 [Eh]
	 Singles Energy            =      -0.0000000000000000 [Eh]
	 Same-Spin Energy          =      -0.3840165586847809 [Eh]
	 Opposite-Spin Energy      =      -1.2862702036919518 [Eh]
	 Correlation Energy        =      -1.6702867623767326 [Eh]
	 Total Energy              =    -385.7603079581927545 [Eh]

	 ================> DF-SCS-MP2 Energies <==================
	-----------------------------------------------------------
	 SCS Same-Spin Scale       =       0.3333333333333333 [-]
	 SCS Opposite-Spin Scale   =       1.2000000000000000 [-]
	 SCS Same-Spin Energy      =      -0.1280055195615936 [Eh]
	 SCS Opposite-Spin Energy  =      -1.5435242444303421 [Eh]
	 SCS Correlation Energy    =      -1.6715297639919358 [Eh]
	 SCS Total Energy          =    -385.7615509598079484 [Eh]
	-----------------------------------------------------------

  Dipole Moment: [D]
     X:     0.7865      Y:    -1.3221      Z:     0.6864     Total:     1.6845

*** Psi4 exiting successfully. Buy a developer a beer!
