                               Psi4 1.3.2 release

  ==> Input File <==

--------------------------------------------------------------------------
#psi4
#
memory 32 gb

molecule  {
0 1
  O        0.4332560    -0.5778250     0.1734540
  O       -0.8408100     1.0912640    -0.7084360
  C        1.6346250     0.1623570    -0.1778450
  C        1.8980320     1.2173290     0.8789650
  C        2.7308080    -0.8763490    -0.2789480
  C       -1.9015140    -0.8789960     0.2349040
  C       -0.7621779     0.0251445    -0.1652464
  C       -3.2331041    -0.1770938     0.0196593
  H        1.4602790     0.6397420    -1.1462310
  H        2.8221420     1.7571320     0.6526510
  H        1.0777360     1.9358120     0.9100720
  H        2.0019030     0.7445150     1.8590670
  H        3.6747750    -0.4011320    -0.5598750
  H        2.4805410    -1.6278800    -1.0306640
  H        2.8646540    -1.3764140     0.6835210
  H       -1.8254340    -1.7987290    -0.3567280
  H       -1.7546250    -1.1827800     1.2758720
  H       -3.3759370     0.0860600    -1.0167370
  H       -4.0604800    -0.8690500     0.3134070
  H       -3.3166340     0.7089420     0.6308410
units angstrom
no_reorient  #important for SAPT in psi4, default
symmetry c1  #important for SAPT in psi4, default
}

set PROPERTIES_ORIGIN ["COM"]
properties('MP2/aug-cc-pvtz', properties = ['dipole'])
--------------------------------------------------------------------------

    Molecular point group: c1
  Charge       = 0
  Multiplicity = 1
  Basis Set: AUG-CC-PVTZ
    Blend: AUG-CC-PVTZ
  Basis Set: (AUG-CC-PVTZ AUX)
    Blend: AUG-CC-PVTZ-JKFIT

    Orbital Energies [Eh]
    ---------------------

    Doubly Occupied:

       1A    -20.588707     2A    -20.546396     3A    -11.375841
       4A    -11.286600     5A    -11.243278     6A    -11.219420
       7A    -11.218808     8A    -11.214838     9A     -1.446101
      10A     -1.356420    11A     -1.078237    12A     -1.044254
      13A     -0.943004    14A     -0.901335    15A     -0.811446
      16A     -0.757559    17A     -0.701385    18A     -0.666016
      19A     -0.657210    20A     -0.620683    21A     -0.604285
      22A     -0.573376    23A     -0.554642    24A     -0.546749
      25A     -0.536796    26A     -0.522153    27A     -0.509088
      28A     -0.506224    29A     -0.499002    30A     -0.480091
      31A     -0.450972    32A     -0.439983

  @DF-RHF Final Energy:  -384.08903806825469

   => Energetics <=

    Nuclear Repulsion Energy =            396.5023306332711854
    One-Electron Energy =               -1309.3809391270888227
    Two-Electron Energy =                 528.7895704255629425
    Total Energy =                       -384.0890380682546947
  Basis Set: (AUG-CC-PVTZ AUX)
    Blend: AUG-CC-PVTZ-RI
    Molecular point group: c1

    Geometry (in Angstrom), charge = 0, multiplicity = 1:

       Center              X                  Y                   Z               Mass
    ------------   -----------------  -----------------  -----------------  -----------------
         O            0.433719549612    -0.582015968279     0.175061414179    15.994914619570
         O           -0.840346450388     1.087073031721    -0.706828585821    15.994914619570
         C            1.635088549612     0.158166031721    -0.176237585821    12.000000000000
         C            1.898495549612     1.213138031721     0.880572414179    12.000000000000
         C            2.731271549612    -0.880539968279    -0.277340585821    12.000000000000
         C           -1.901050450388    -0.883186968279     0.236511414179    12.000000000000
         C           -0.761714350388     0.020953531721    -0.163638985821    12.000000000000
         C           -3.232640550388    -0.181284768279     0.021266714179    12.000000000000
         H            1.460742549612     0.635551031721    -1.144623585821     1.007825032230
         H            2.822605549612     1.752941031721     0.654258414179     1.007825032230
         H            1.078199549612     1.931621031721     0.911679414179     1.007825032230
         H            2.002366549612     0.740324031721     1.860674414179     1.007825032230
         H            3.675238549612    -0.405322968279    -0.558267585821     1.007825032230
         H            2.481004549612    -1.632070968279    -1.029056585821     1.007825032230
         H            2.865117549612    -1.380604968279     0.685128414179     1.007825032230
         H           -1.824970450388    -1.802919968279    -0.355120585821     1.007825032230
         H           -1.754161450388    -1.186970968279     1.277479414179     1.007825032230
         H           -3.375473450388     0.081869031721    -1.015129585821     1.007825032230
         H           -4.060016450388    -0.873240968279     0.315014414179     1.007825032230
         H           -3.316170450388     0.704751031721     0.632448414179     1.007825032230

  Basis Set: AUG-CC-PVTZ
    Blend: AUG-CC-PVTZ
  Basis Set: (AUG-CC-PVTZ AUX)
    Blend: AUG-CC-PVTZ-JKFIT
	 Reference Energy          =    -384.0890380682546947 [Eh]
	 Singles Energy            =      -0.0000000000000000 [Eh]
	 Same-Spin Energy          =      -0.3839087404305173 [Eh]
	 Opposite-Spin Energy      =      -1.2860897535584894 [Eh]
	 Correlation Energy        =      -1.6699984939890067 [Eh]
	 Total Energy              =    -385.7590365622436934 [Eh]

	 ================> DF-SCS-MP2 Energies <==================
	-----------------------------------------------------------
	 SCS Same-Spin Scale       =       0.3333333333333333 [-]
	 SCS Opposite-Spin Scale   =       1.2000000000000000 [-]
	 SCS Same-Spin Energy      =      -0.1279695801435057 [Eh]
	 SCS Opposite-Spin Energy  =      -1.5433077042701873 [Eh]
	 SCS Correlation Energy    =      -1.6712772844136929 [Eh]
	 SCS Total Energy          =    -385.7603153526683855 [Eh]
	-----------------------------------------------------------

  Dipole Moment: [D]
     X:     0.6139      Y:    -1.2041      Z:     0.6171     Total:     1.4857

*** Psi4 exiting successfully. Buy a developer a beer!
