                               Psi4 1.4a3.dev225

  ==> Input File <==

--------------------------------------------------------------------------
#psi4
#
memory 32 gb

molecule  {
0 1
  O        0.3891610    -0.5692390     0.2103150
  O       -0.8187590     1.0859660    -0.7901910
  C        1.6201550     0.0566620    -0.2576010
  C        1.9966600     1.1837410     0.6861130
  C        2.6439510    -1.0589150    -0.3056920
  C       -1.9560750    -0.6909180     0.4160040
  C       -0.7476171     0.0500110    -0.1259940
  C       -3.2763650    -0.0323590     0.0421060
  H        1.4292650     0.4552490    -1.2581690
  H        2.9411400     1.6393830     0.3731600
  H        1.2237650     1.9545110     0.6843630
  H        2.1165080     0.7943580     1.7011000
  H        3.6013200    -0.6740400    -0.6688000
  H        2.3119000    -1.8571380    -0.9736080
  H        2.7925020    -1.4784670     0.6929400
  H       -1.8998650    -1.7205910     0.0458690
  H       -1.8337900    -0.7582950     1.5029030
  H       -3.3906490     0.0180570    -1.0424220
  H       -4.1145290    -0.5997430     0.4548680
  H       -3.3230440     0.9880080     0.4273560
units angstrom
no_reorient  #important for SAPT in psi4, default
symmetry c1  #important for SAPT in psi4, default
}

set PROPERTIES_ORIGIN ["COM"]
properties('MP2/aug-cc-pvtz', properties = ['dipole'])
--------------------------------------------------------------------------

    Molecular point group: c1
  Charge       = 0
  Multiplicity = 1
  Basis Set: AUG-CC-PVTZ
    Blend: AUG-CC-PVTZ
  Basis Set: (AUG-CC-PVTZ AUX)
    Blend: AUG-CC-PVTZ-JKFIT

    Orbital Energies [Eh]
    ---------------------

    Doubly Occupied:

       1A    -20.600126     2A    -20.536974     3A    -11.377105
       4A    -11.292676     5A    -11.242210     6A    -11.222814
       7A    -11.218402     8A    -11.217612     9A     -1.452138
      10A     -1.344194    11A     -1.081100    12A     -1.043596
      13A     -0.946356    14A     -0.902882    15A     -0.818227
      16A     -0.763499    17A     -0.694656    18A     -0.668881
      19A     -0.655127    20A     -0.621340    21A     -0.601563
      22A     -0.573202    23A     -0.559427    24A     -0.550261
      25A     -0.536937    26A     -0.518207    27A     -0.509546
      28A     -0.506380    29A     -0.493139    30A     -0.481911
      31A     -0.450421    32A     -0.437550

  @DF-RHF Final Energy:  -384.08931529881056

   => Energetics <=

    Nuclear Repulsion Energy =            395.9952286826547834
    One-Electron Energy =               -1308.3321693142740969
    Two-Electron Energy =                 528.2476253328087523
    Total Energy =                       -384.0893152988105612
  Basis Set: (AUG-CC-PVTZ AUX)
    Blend: AUG-CC-PVTZ-RI
    Molecular point group: c1

    Geometry (in Angstrom), charge = 0, multiplicity = 1:

       Center              X                  Y                   Z               Mass
    ------------   -----------------  -----------------  -----------------  -----------------
         O            0.403235684142    -0.578846438701     0.226347375910    15.994914619570
         O           -0.804684315858     1.076358561299    -0.774158624090    15.994914619570
         C            1.634229684142     0.047054561299    -0.241568624090    12.000000000000
         C            2.010734684142     1.174133561299     0.702145375910    12.000000000000
         C            2.658025684142    -1.068522438701    -0.289659624090    12.000000000000
         C           -1.942000315858    -0.700525438701     0.432036375910    12.000000000000
         C           -0.733542415858     0.040403561299    -0.109961624090    12.000000000000
         C           -3.262290315858    -0.041966438701     0.058138375910    12.000000000000
         H            1.443339684142     0.445641561299    -1.242136624090     1.007825032230
         H            2.955214684142     1.629775561299     0.389192375910     1.007825032230
         H            1.237839684142     1.944903561299     0.700395375910     1.007825032230
         H            2.130582684142     0.784750561299     1.717132375910     1.007825032230
         H            3.615394684142    -0.683647438701    -0.652767624090     1.007825032230
         H            2.325974684142    -1.866745438701    -0.957575624090     1.007825032230
         H            2.806576684142    -1.488074438701     0.708972375910     1.007825032230
         H           -1.885790315858    -1.730198438701     0.061901375910     1.007825032230
         H           -1.819715315858    -0.767902438701     1.518935375910     1.007825032230
         H           -3.376574315858     0.008449561299    -1.026389624090     1.007825032230
         H           -4.100454315858    -0.609350438701     0.470900375910     1.007825032230
         H           -3.308969315858     0.978400561299     0.443388375910     1.007825032230

  Basis Set: AUG-CC-PVTZ
    Blend: AUG-CC-PVTZ
  Basis Set: (AUG-CC-PVTZ AUX)
    Blend: AUG-CC-PVTZ-JKFIT
	 Reference Energy          =    -384.0893152988105612 [Eh]
	 Singles Energy            =      -0.0000000000000000 [Eh]
	 Same-Spin Energy          =      -0.3840496214482679 [Eh]
	 Opposite-Spin Energy      =      -1.2864111802617608 [Eh]
	 Correlation Energy        =      -1.6704608017100286 [Eh]
	 Total Energy              =    -385.7597761005205825 [Eh]

	 ================> DF-SCS-MP2 Energies <==================
	-----------------------------------------------------------
	 SCS Same-Spin Scale       =       0.3333333333333333 [-]
	 SCS Opposite-Spin Scale   =       1.2000000000000000 [-]
	 SCS Same-Spin Energy      =      -0.1280165404827560 [Eh]
	 SCS Opposite-Spin Energy  =      -1.5436934163141129 [Eh]
	 SCS Correlation Energy    =      -1.6717099567968690 [Eh]
	 SCS Total Energy          =    -385.7610252556074215 [Eh]
	-----------------------------------------------------------

  Dipole Moment: [D]
     X:     0.9646      Y:    -1.3277      Z:     0.8543     Total:     1.8501

*** Psi4 exiting successfully. Buy a developer a beer!
