                               Psi4 1.3.2 release

  ==> Input File <==

--------------------------------------------------------------------------
#psi4
#
memory 32 gb

molecule  {
0 1
  O        0.4269771    -0.5342428     0.2355592
  O       -0.8408100     1.0912640    -0.7084360
  C        1.6346250     0.1623570    -0.1778450
  C        1.8330439     1.1923583     0.9171088
  C        2.7308080    -0.8763490    -0.2789480
  C       -1.9015140    -0.8789960     0.2349040
  C       -0.7451280     0.0062060    -0.1586260
  C       -3.2456700    -0.1986960     0.0285890
  H        1.4602790     0.6397420    -1.1462310
  H        2.8221420     1.7571320     0.6526510
  H        1.0777360     1.9358120     0.9100720
  H        2.0019030     0.7445150     1.8590670
  H        3.6747750    -0.4011320    -0.5598750
  H        2.4805410    -1.6278800    -1.0306640
  H        2.8646540    -1.3764140     0.6835210
  H       -1.8254340    -1.7987290    -0.3567280
  H       -1.7546250    -1.1827800     1.2758720
  H       -3.3759370     0.0860600    -1.0167370
  H       -4.0604800    -0.8690500     0.3134070
  H       -3.3166340     0.7089420     0.6308410
units angstrom
no_reorient  #important for SAPT in psi4, default
symmetry c1  #important for SAPT in psi4, default
}

set PROPERTIES_ORIGIN ["COM"]
properties('MP2/aug-cc-pvtz', properties = ['dipole'])
--------------------------------------------------------------------------

    Molecular point group: c1
  Charge       = 0
  Multiplicity = 1
  Basis Set: AUG-CC-PVTZ
    Blend: AUG-CC-PVTZ
  Basis Set: (AUG-CC-PVTZ AUX)
    Blend: AUG-CC-PVTZ-JKFIT

    Orbital Energies [Eh]
    ---------------------

    Doubly Occupied:

       1A    -20.593022     2A    -20.538800     3A    -11.375625
       4A    -11.290980     5A    -11.242208     6A    -11.223351
       7A    -11.218280     8A    -11.215730     9A     -1.449806
      10A     -1.348895    11A     -1.080892    12A     -1.044321
      13A     -0.946433    14A     -0.902471    15A     -0.816778
      16A     -0.763477    17A     -0.698138    18A     -0.665567
      19A     -0.656592    20A     -0.621811    21A     -0.604800
      22A     -0.573897    23A     -0.559107    24A     -0.555803
      25A     -0.529724    26A     -0.519596    27A     -0.509965
      28A     -0.501162    29A     -0.493648    30A     -0.485415
      31A     -0.444509    32A     -0.440302

  @DF-RHF Final Energy:  -384.08226177486148

   => Energetics <=

    Nuclear Repulsion Energy =            397.1350619888474398
    One-Electron Energy =               -1310.6124402884154279
    Two-Electron Energy =                 529.3951165247065092
    Total Energy =                       -384.0822617748615357
  Basis Set: (AUG-CC-PVTZ AUX)
    Blend: AUG-CC-PVTZ-RI
    Molecular point group: c1

    Geometry (in Angstrom), charge = 0, multiplicity = 1:

       Center              X                  Y                   Z               Mass
    ------------   -----------------  -----------------  -----------------  -----------------
         O            0.434560335308    -0.537666707879     0.223058744138    15.994914619570
         O           -0.833226764692     1.087840092121    -0.720936455862    15.994914619570
         C            1.642208235308     0.158933092121    -0.190345455862    12.000000000000
         C            1.840627135308     1.188934392121     0.904608344138    12.000000000000
         C            2.738391235308    -0.879772907879    -0.291448455862    12.000000000000
         C           -1.893930764692    -0.882419907879     0.222403544138    12.000000000000
         C           -0.737544764692     0.002782092121    -0.171126455862    12.000000000000
         C           -3.238086764692    -0.202119907879     0.016088544138    12.000000000000
         H            1.467862235308     0.636318092121    -1.158731455862     1.007825032230
         H            2.829725235308     1.753708092121     0.640150544138     1.007825032230
         H            1.085319235308     1.932388092121     0.897571544138     1.007825032230
         H            2.009486235308     0.741091092121     1.846566544138     1.007825032230
         H            3.682358235308    -0.404555907879    -0.572375455862     1.007825032230
         H            2.488124235308    -1.631303907879    -1.043164455862     1.007825032230
         H            2.872237235308    -1.379837907879     0.671020544138     1.007825032230
         H           -1.817850764692    -1.802152907879    -0.369228455862     1.007825032230
         H           -1.747041764692    -1.186203907879     1.263371544138     1.007825032230
         H           -3.368353764692     0.082636092121    -1.029237455862     1.007825032230
         H           -4.052896764692    -0.872473907879     0.300906544138     1.007825032230
         H           -3.309050764692     0.705518092121     0.618340544138     1.007825032230

  Basis Set: AUG-CC-PVTZ
    Blend: AUG-CC-PVTZ
  Basis Set: (AUG-CC-PVTZ AUX)
    Blend: AUG-CC-PVTZ-JKFIT
	 Reference Energy          =    -384.0822617748614789 [Eh]
	 Singles Energy            =      -0.0000000000000000 [Eh]
	 Same-Spin Energy          =      -0.3841553413961946 [Eh]
	 Opposite-Spin Energy      =      -1.2864460181762754 [Eh]
	 Correlation Energy        =      -1.6706013595724700 [Eh]
	 Total Energy              =    -385.7528631344339374 [Eh]

	 ================> DF-SCS-MP2 Energies <==================
	-----------------------------------------------------------
	 SCS Same-Spin Scale       =       0.3333333333333333 [-]
	 SCS Opposite-Spin Scale   =       1.2000000000000000 [-]
	 SCS Same-Spin Energy      =      -0.1280517804653982 [Eh]
	 SCS Opposite-Spin Energy  =      -1.5437352218115303 [Eh]
	 SCS Correlation Energy    =      -1.6717870022769286 [Eh]
	 SCS Total Energy          =    -385.7540487771383937 [Eh]
	-----------------------------------------------------------

  Dipole Moment: [D]
     X:     0.8653      Y:    -1.4540      Z:     0.6183     Total:     1.8014

*** Psi4 exiting successfully. Buy a developer a beer!
