                               Psi4 1.3.2 release

  ==> Input File <==

--------------------------------------------------------------------------
#psi4
#
memory 32 gb

molecule  {
0 1
  O        0.4332560    -0.5778250     0.1734540
  O       -0.8408100     1.0912640    -0.7084360
  C        1.6624632     0.1249455    -0.1578028
  C        1.8980320     1.2173290     0.8789650
  C        2.7308080    -0.8763490    -0.2789480
  C       -1.9015140    -0.8789960     0.2349040
  C       -0.7678319    -0.0309447    -0.1400233
  C       -3.2456700    -0.1986960     0.0285890
  H        1.4602790     0.6397420    -1.1462310
  H        2.8221420     1.7571320     0.6526510
  H        1.0777360     1.9358120     0.9100720
  H        2.0019030     0.7445150     1.8590670
  H        3.6747750    -0.4011320    -0.5598750
  H        2.4805410    -1.6278800    -1.0306640
  H        2.8646540    -1.3764140     0.6835210
  H       -1.8254340    -1.7987290    -0.3567280
  H       -1.7546250    -1.1827800     1.2758720
  H       -3.3759370     0.0860600    -1.0167370
  H       -4.0604800    -0.8690500     0.3134070
  H       -3.3166340     0.7089420     0.6308410
units angstrom
no_reorient  #important for SAPT in psi4, default
symmetry c1  #important for SAPT in psi4, default
}

set PROPERTIES_ORIGIN ["COM"]
properties('MP2/aug-cc-pvtz', properties = ['dipole'])
--------------------------------------------------------------------------

    Molecular point group: c1
  Charge       = 0
  Multiplicity = 1
  Basis Set: AUG-CC-PVTZ
    Blend: AUG-CC-PVTZ
  Basis Set: (AUG-CC-PVTZ AUX)
    Blend: AUG-CC-PVTZ-JKFIT

    Orbital Energies [Eh]
    ---------------------

    Doubly Occupied:

       1A    -20.594212     2A    -20.534646     3A    -11.381368
       4A    -11.291903     5A    -11.244862     6A    -11.221084
       7A    -11.220503     8A    -11.215935     9A     -1.439426
      10A     -1.326716    11A     -1.089090    12A     -1.052879
      13A     -0.947653    14A     -0.911750    15A     -0.817322
      16A     -0.752550    17A     -0.697690    18A     -0.664395
      19A     -0.653140    20A     -0.625607    21A     -0.602555
      22A     -0.570733    23A     -0.560345    24A     -0.547747
      25A     -0.536997    26A     -0.520523    27A     -0.514790
      28A     -0.506458    29A     -0.493282    30A     -0.468107
      31A     -0.444940    32A     -0.437262

  @DF-RHF Final Energy:  -384.07932554613961

   => Energetics <=

    Nuclear Repulsion Energy =            396.0556426332560136
    One-Electron Energy =               -1308.4969985896507296
    Two-Electron Energy =                 528.3620304102551017
    Total Energy =                       -384.0793255461396711
  Basis Set: (AUG-CC-PVTZ AUX)
    Blend: AUG-CC-PVTZ-RI
    Molecular point group: c1

    Geometry (in Angstrom), charge = 0, multiplicity = 1:

       Center              X                  Y                   Z               Mass
    ------------   -----------------  -----------------  -----------------  -----------------
         O            0.432725270738    -0.570117360228     0.169459078674    15.994914619570
         O           -0.841340729262     1.098971639772    -0.712430921326    15.994914619570
         C            1.661932470738     0.132653139772    -0.161797721326    12.000000000000
         C            1.897501270738     1.225036639772     0.874970078674    12.000000000000
         C            2.730277270738    -0.868641360228    -0.282942921326    12.000000000000
         C           -1.902044729262    -0.871288360228     0.230909078674    12.000000000000
         C           -0.768362629262    -0.023237060228    -0.144018221326    12.000000000000
         C           -3.246200729262    -0.190988360228     0.024594078674    12.000000000000
         H            1.459748270738     0.647449639772    -1.150225921326     1.007825032230
         H            2.821611270738     1.764839639772     0.648656078674     1.007825032230
         H            1.077205270738     1.943519639772     0.906077078674     1.007825032230
         H            2.001372270738     0.752222639772     1.855072078674     1.007825032230
         H            3.674244270738    -0.393424360228    -0.563869921326     1.007825032230
         H            2.480010270738    -1.620172360228    -1.034658921326     1.007825032230
         H            2.864123270738    -1.368706360228     0.679526078674     1.007825032230
         H           -1.825964729262    -1.791021360228    -0.360722921326     1.007825032230
         H           -1.755155729262    -1.175072360228     1.271877078674     1.007825032230
         H           -3.376467729262     0.093767639772    -1.020731921326     1.007825032230
         H           -4.061010729262    -0.861342360228     0.309412078674     1.007825032230
         H           -3.317164729262     0.716649639772     0.626846078674     1.007825032230

  Basis Set: AUG-CC-PVTZ
    Blend: AUG-CC-PVTZ
  Basis Set: (AUG-CC-PVTZ AUX)
    Blend: AUG-CC-PVTZ-JKFIT
	 Reference Energy          =    -384.0793255461396143 [Eh]
	 Singles Energy            =      -0.0000000000000000 [Eh]
	 Same-Spin Energy          =      -0.3854774395509160 [Eh]
	 Opposite-Spin Energy      =      -1.2884978090330779 [Eh]
	 Correlation Energy        =      -1.6739752485839938 [Eh]
	 Total Energy              =    -385.7533007947236001 [Eh]

	 ================> DF-SCS-MP2 Energies <==================
	-----------------------------------------------------------
	 SCS Same-Spin Scale       =       0.3333333333333333 [-]
	 SCS Opposite-Spin Scale   =       1.2000000000000000 [-]
	 SCS Same-Spin Energy      =      -0.1284924798503053 [Eh]
	 SCS Opposite-Spin Energy  =      -1.5461973708396934 [Eh]
	 SCS Correlation Energy    =      -1.6746898506899988 [Eh]
	 SCS Total Energy          =    -385.7540153968296295 [Eh]
	-----------------------------------------------------------

  Dipole Moment: [D]
     X:     0.7818      Y:    -1.5648      Z:     0.7857     Total:     1.9176

*** Psi4 exiting successfully. Buy a developer a beer!
