                               Psi4 1.3.2 release

  ==> Input File <==

--------------------------------------------------------------------------
#psi4
#
memory 32 gb

molecule  {
0 1
  O        0.4332560    -0.5778250     0.1734540
  O       -0.8408100     1.0912640    -0.7084360
  C        1.6346250     0.1623570    -0.1778450
  C        1.8980320     1.2173290     0.8789650
  C        2.7308080    -0.8763490    -0.2789480
  C       -1.9015140    -0.8789960     0.2349040
  C       -0.7293902    -0.0309552    -0.1924480
  C       -3.2456700    -0.1986960     0.0285890
  H        1.4602790     0.6397420    -1.1462310
  H        2.8221420     1.7571320     0.6526510
  H        1.0777360     1.9358120     0.9100720
  H        2.0019030     0.7445150     1.8590670
  H        3.6747750    -0.4011320    -0.5598750
  H        2.4805410    -1.6278800    -1.0306640
  H        2.8646540    -1.3764140     0.6835210
  H       -1.7939242    -1.7846807    -0.3732777
  H       -1.7546250    -1.1827800     1.2758720
  H       -3.3759370     0.0860600    -1.0167370
  H       -4.0604800    -0.8690500     0.3134070
  H       -3.3166340     0.7089420     0.6308410
units angstrom
no_reorient  #important for SAPT in psi4, default
symmetry c1  #important for SAPT in psi4, default
}

set PROPERTIES_ORIGIN ["COM"]
properties('MP2/aug-cc-pvtz', properties = ['dipole'])
--------------------------------------------------------------------------

    Molecular point group: c1
  Charge       = 0
  Multiplicity = 1
  Basis Set: AUG-CC-PVTZ
    Blend: AUG-CC-PVTZ
  Basis Set: (AUG-CC-PVTZ AUX)
    Blend: AUG-CC-PVTZ-JKFIT

    Orbital Energies [Eh]
    ---------------------

    Doubly Occupied:

       1A    -20.600415     2A    -20.535411     3A    -11.377370
       4A    -11.292086     5A    -11.242574     6A    -11.222266
       7A    -11.218439     8A    -11.217126     9A     -1.452603
      10A     -1.339781    11A     -1.082759    12A     -1.045162
      13A     -0.946007    14A     -0.905525    15A     -0.819240
      16A     -0.763967    17A     -0.693628    18A     -0.668739
      19A     -0.655358    20A     -0.620593    21A     -0.603204
      22A     -0.572590    23A     -0.558759    24A     -0.550186
      25A     -0.537656    26A     -0.518678    27A     -0.510639
      28A     -0.504879    29A     -0.494423    30A     -0.480815
      31A     -0.448668    32A     -0.436750

  @DF-RHF Final Energy:  -384.08718330607689

   => Energetics <=

    Nuclear Repulsion Energy =            396.3929947325391936
    One-Electron Energy =               -1309.1277610327529146
    Two-Electron Energy =                 528.6475829941368829
    Total Energy =                       -384.0871833060768950
  Basis Set: (AUG-CC-PVTZ AUX)
    Blend: AUG-CC-PVTZ-RI
    Molecular point group: c1

    Geometry (in Angstrom), charge = 0, multiplicity = 1:

       Center              X                  Y                   Z               Mass
    ------------   -----------------  -----------------  -----------------  -----------------
         O            0.431355583826    -0.574105604143     0.177093929870    15.994914619570
         O           -0.842710416174     1.094983395857    -0.704796070130    15.994914619570
         C            1.632724583826     0.166076395857    -0.174205070130    12.000000000000
         C            1.896131583826     1.221048395857     0.882604929870    12.000000000000
         C            2.728907583826    -0.872629604143    -0.275308070130    12.000000000000
         C           -1.903414416174    -0.875276604143     0.238543929870    12.000000000000
         C           -0.731290616174    -0.027235804143    -0.188808070130    12.000000000000
         C           -3.247570416174    -0.194976604143     0.032228929870    12.000000000000
         H            1.458378583826     0.643461395857    -1.142591070130     1.007825032230
         H            2.820241583826     1.760851395857     0.656290929870     1.007825032230
         H            1.075835583826     1.939531395857     0.913711929870     1.007825032230
         H            2.000002583826     0.748234395857     1.862706929870     1.007825032230
         H            3.672874583826    -0.397412604143    -0.556235070130     1.007825032230
         H            2.478640583826    -1.624160604143    -1.027024070130     1.007825032230
         H            2.862753583826    -1.372694604143     0.687160929870     1.007825032230
         H           -1.795824616174    -1.780961304143    -0.369637770130     1.007825032230
         H           -1.756525416174    -1.179060604143     1.279511929870     1.007825032230
         H           -3.377837416174     0.089779395857    -1.013097070130     1.007825032230
         H           -4.062380416174    -0.865330604143     0.317046929870     1.007825032230
         H           -3.318534416174     0.712661395857     0.634480929870     1.007825032230

  Basis Set: AUG-CC-PVTZ
    Blend: AUG-CC-PVTZ
  Basis Set: (AUG-CC-PVTZ AUX)
    Blend: AUG-CC-PVTZ-JKFIT
	 Reference Energy          =    -384.0871833060768950 [Eh]
	 Singles Energy            =      -0.0000000000000000 [Eh]
	 Same-Spin Energy          =      -0.3843243117564358 [Eh]
	 Opposite-Spin Energy      =      -1.2867224272921434 [Eh]
	 Correlation Energy        =      -1.6710467390485793 [Eh]
	 Total Energy              =    -385.7582300451254582 [Eh]

	 ================> DF-SCS-MP2 Energies <==================
	-----------------------------------------------------------
	 SCS Same-Spin Scale       =       0.3333333333333333 [-]
	 SCS Opposite-Spin Scale   =       1.2000000000000000 [-]
	 SCS Same-Spin Energy      =      -0.1281081039188119 [Eh]
	 SCS Opposite-Spin Energy  =      -1.5440669127505720 [Eh]
	 SCS Correlation Energy    =      -1.6721750166693838 [Eh]
	 SCS Total Energy          =    -385.7593583227462659 [Eh]
	-----------------------------------------------------------

  Dipole Moment: [D]
     X:     0.9819      Y:    -1.4150      Z:     0.7105     Total:     1.8631

*** Psi4 exiting successfully. Buy a developer a beer!
