                               Psi4 1.4a3.dev225

  ==> Input File <==

--------------------------------------------------------------------------
#psi4
#
memory 32 gb

molecule  {
0 1
  O        0.3891610    -0.5692390     0.2103150
  O       -0.8187590     1.0859660    -0.7901910
  C        1.6201550     0.0566620    -0.2576010
  C        1.9966600     1.1837410     0.6861130
  C        2.6439510    -1.0589150    -0.3056920
  C       -1.9560750    -0.6909180     0.4160040
  C       -0.8040553     0.0344385    -0.1129155
  C       -3.2763650    -0.0323590     0.0421060
  H        1.4292650     0.4552490    -1.2581690
  H        2.9411400     1.6393830     0.3731600
  H        1.2237650     1.9545110     0.6843630
  H        2.1165080     0.7943580     1.7011000
  H        3.6013200    -0.6740400    -0.6688000
  H        2.3119000    -1.8571380    -0.9736080
  H        2.7925020    -1.4784670     0.6929400
  H       -1.8998650    -1.7205910     0.0458690
  H       -1.8337900    -0.7582950     1.5029030
  H       -3.3906490     0.0180570    -1.0424220
  H       -4.1145290    -0.5997430     0.4548680
  H       -3.3230440     0.9880080     0.4273560
units angstrom
no_reorient  #important for SAPT in psi4, default
symmetry c1  #important for SAPT in psi4, default
}

set PROPERTIES_ORIGIN ["COM"]
properties('MP2/aug-cc-pvtz', properties = ['dipole'])
--------------------------------------------------------------------------

    Molecular point group: c1
  Charge       = 0
  Multiplicity = 1
  Basis Set: AUG-CC-PVTZ
    Blend: AUG-CC-PVTZ
  Basis Set: (AUG-CC-PVTZ AUX)
    Blend: AUG-CC-PVTZ-JKFIT

    Orbital Energies [Eh]
    ---------------------

    Doubly Occupied:

       1A    -20.591416     2A    -20.538975     3A    -11.381785
       4A    -11.288608     5A    -11.245957     6A    -11.222184
       7A    -11.219853     8A    -11.214982     9A     -1.434206
      10A     -1.331148    11A     -1.085664    12A     -1.048676
      13A     -0.942728    14A     -0.910919    15A     -0.814522
      16A     -0.755427    17A     -0.699373    18A     -0.664365
      19A     -0.650998    20A     -0.622350    21A     -0.601311
      22A     -0.568004    23A     -0.558395    24A     -0.546634
      25A     -0.533856    26A     -0.522046    27A     -0.510915
      28A     -0.507284    29A     -0.491419    30A     -0.477085
      31A     -0.447758    32A     -0.439680

  @DF-RHF Final Energy:  -384.08271670733780

   => Energetics <=

    Nuclear Repulsion Energy =            395.4916554992067859
    One-Electron Energy =               -1307.4116944115069145
    Two-Electron Energy =                 527.8373222049623337
    Total Energy =                       -384.0827167073377950
  Basis Set: (AUG-CC-PVTZ AUX)
    Blend: AUG-CC-PVTZ-RI
    Molecular point group: c1

    Geometry (in Angstrom), charge = 0, multiplicity = 1:

       Center              X                  Y                   Z               Mass
    ------------   -----------------  -----------------  -----------------  -----------------
         O            0.409069907441    -0.577236652381     0.224995403498    15.994914619570
         O           -0.798850092559     1.077968347619    -0.775510596502    15.994914619570
         C            1.640063907441     0.048664347619    -0.242920596502    12.000000000000
         C            2.016568907441     1.175743347619     0.700793403498    12.000000000000
         C            2.663859907441    -1.066912652381    -0.291011596502    12.000000000000
         C           -1.936166092559    -0.698915652381     0.430684403498    12.000000000000
         C           -0.784146392559     0.026440847619    -0.098235096502    12.000000000000
         C           -3.256456092559    -0.040356652381     0.056786403498    12.000000000000
         H            1.449173907441     0.447251347619    -1.243488596502     1.007825032230
         H            2.961048907441     1.631385347619     0.387840403498     1.007825032230
         H            1.243673907441     1.946513347619     0.699043403498     1.007825032230
         H            2.136416907441     0.786360347619     1.715780403498     1.007825032230
         H            3.621228907441    -0.682037652381    -0.654119596502     1.007825032230
         H            2.331808907441    -1.865135652381    -0.958927596502     1.007825032230
         H            2.812410907441    -1.486464652381     0.707620403498     1.007825032230
         H           -1.879956092559    -1.728588652381     0.060549403498     1.007825032230
         H           -1.813881092559    -0.766292652381     1.517583403498     1.007825032230
         H           -3.370740092559     0.010059347619    -1.027741596502     1.007825032230
         H           -4.094620092559    -0.607740652381     0.469548403498     1.007825032230
         H           -3.303135092559     0.980010347619     0.442036403498     1.007825032230

  Basis Set: AUG-CC-PVTZ
    Blend: AUG-CC-PVTZ
  Basis Set: (AUG-CC-PVTZ AUX)
    Blend: AUG-CC-PVTZ-JKFIT
	 Reference Energy          =    -384.0827167073377950 [Eh]
	 Singles Energy            =      -0.0000000000000000 [Eh]
	 Same-Spin Energy          =      -0.3851377507254578 [Eh]
	 Opposite-Spin Energy      =      -1.2884369407424234 [Eh]
	 Correlation Energy        =      -1.6735746914678811 [Eh]
	 Total Energy              =    -385.7562913988056721 [Eh]

	 ================> DF-SCS-MP2 Energies <==================
	-----------------------------------------------------------
	 SCS Same-Spin Scale       =       0.3333333333333333 [-]
	 SCS Opposite-Spin Scale   =       1.2000000000000000 [-]
	 SCS Same-Spin Energy      =      -0.1283792502418192 [Eh]
	 SCS Opposite-Spin Energy  =      -1.5461243288909081 [Eh]
	 SCS Correlation Energy    =      -1.6745035791327274 [Eh]
	 SCS Total Energy          =    -385.7572202864704991 [Eh]
	-----------------------------------------------------------

  Dipole Moment: [D]
     X:     0.5054      Y:    -1.3891      Z:     0.8999     Total:     1.7306

*** Psi4 exiting successfully. Buy a developer a beer!
