                               Psi4 1.4a3.dev225

  ==> Input File <==

--------------------------------------------------------------------------
#psi4
#
memory 32 gb

molecule  {
0 1
  O        0.3891610    -0.5692390     0.2103150
  O       -0.8187590     1.0859660    -0.7901910
  C        1.6201550     0.0566620    -0.2576010
  C        1.9966600     1.1837410     0.6861130
  C        2.6439510    -1.0589150    -0.3056920
  C       -1.9560750    -0.6909180     0.4160040
  C       -0.7251767     0.0841035    -0.1491305
  C       -3.2763650    -0.0323590     0.0421060
  H        1.4292650     0.4552490    -1.2581690
  H        2.9411400     1.6393830     0.3731600
  H        1.2237650     1.9545110     0.6843630
  H        2.1165080     0.7943580     1.7011000
  H        3.6013200    -0.6740400    -0.6688000
  H        2.3119000    -1.8571380    -0.9736080
  H        2.7925020    -1.4784670     0.6929400
  H       -1.8998650    -1.7205910     0.0458690
  H       -1.8337900    -0.7582950     1.5029030
  H       -3.3906490     0.0180570    -1.0424220
  H       -4.1145290    -0.5997430     0.4548680
  H       -3.3230440     0.9880080     0.4273560
units angstrom
no_reorient  #important for SAPT in psi4, default
symmetry c1  #important for SAPT in psi4, default
}

set PROPERTIES_ORIGIN ["COM"]
properties('MP2/aug-cc-pvtz', properties = ['dipole'])
--------------------------------------------------------------------------

    Molecular point group: c1
  Charge       = 0
  Multiplicity = 1
  Basis Set: AUG-CC-PVTZ
    Blend: AUG-CC-PVTZ
  Basis Set: (AUG-CC-PVTZ AUX)
    Blend: AUG-CC-PVTZ-JKFIT

    Orbital Energies [Eh]
    ---------------------

    Doubly Occupied:

       1A    -20.598997     2A    -20.542998     3A    -11.373387
       4A    -11.292142     5A    -11.239125     6A    -11.222691
       7A    -11.219199     8A    -11.215105     9A     -1.458805
      10A     -1.366777    11A     -1.077323    12A     -1.037466
      13A     -0.946889    14A     -0.895123    15A     -0.814934
      16A     -0.765735    17A     -0.697358    18A     -0.670956
      19A     -0.658072    20A     -0.619636    21A     -0.602319
      22A     -0.577640    23A     -0.558443    24A     -0.550664
      25A     -0.539264    26A     -0.518440    27A     -0.509962
      28A     -0.507527    29A     -0.494055    30A     -0.484629
      31A     -0.455273    32A     -0.433117

  @DF-RHF Final Energy:  -384.08972494832182

   => Energetics <=

    Nuclear Repulsion Energy =            396.3288911716176131
    One-Electron Energy =               -1308.9491342745941438
    Two-Electron Energy =                 528.5305181546546009
    Total Energy =                       -384.0897249483218729
  Basis Set: (AUG-CC-PVTZ AUX)
    Blend: AUG-CC-PVTZ-RI
    Molecular point group: c1

    Geometry (in Angstrom), charge = 0, multiplicity = 1:

       Center              X                  Y                   Z               Mass
    ------------   -----------------  -----------------  -----------------  -----------------
         O            0.400915937862    -0.582370705206     0.228739080595    15.994914619570
         O           -0.807004062138     1.072834294794    -0.771766919405    15.994914619570
         C            1.631909937862     0.043530294794    -0.239176919405    12.000000000000
         C            2.008414937862     1.170609294794     0.704537080595    12.000000000000
         C            2.655705937862    -1.072046705206    -0.287267919405    12.000000000000
         C           -1.944320062138    -0.704049705206     0.434428080595    12.000000000000
         C           -0.713421762138     0.070971794794    -0.130706419405    12.000000000000
         C           -3.264610062138    -0.045490705206     0.060530080595    12.000000000000
         H            1.441019937862     0.442117294794    -1.239744919405     1.007825032230
         H            2.952894937862     1.626251294794     0.391584080595     1.007825032230
         H            1.235519937862     1.941379294794     0.702787080595     1.007825032230
         H            2.128262937862     0.781226294794     1.719524080595     1.007825032230
         H            3.613074937862    -0.687171705206    -0.650375919405     1.007825032230
         H            2.323654937862    -1.870269705206    -0.955183919405     1.007825032230
         H            2.804256937862    -1.491598705206     0.711364080595     1.007825032230
         H           -1.888110062138    -1.733722705206     0.064293080595     1.007825032230
         H           -1.822035062138    -0.771426705206     1.521327080595     1.007825032230
         H           -3.378894062138     0.004925294794    -1.023997919405     1.007825032230
         H           -4.102774062138    -0.612874705206     0.473292080595     1.007825032230
         H           -3.311289062138     0.974876294794     0.445780080595     1.007825032230

  Basis Set: AUG-CC-PVTZ
    Blend: AUG-CC-PVTZ
  Basis Set: (AUG-CC-PVTZ AUX)
    Blend: AUG-CC-PVTZ-JKFIT
	 Reference Energy          =    -384.0897249483218161 [Eh]
	 Singles Energy            =      -0.0000000000000000 [Eh]
	 Same-Spin Energy          =      -0.3832385547166869 [Eh]
	 Opposite-Spin Energy      =      -1.2850054011740188 [Eh]
	 Correlation Energy        =      -1.6682439558907056 [Eh]
	 Total Energy              =    -385.7579689042125324 [Eh]

	 ================> DF-SCS-MP2 Energies <==================
	-----------------------------------------------------------
	 SCS Same-Spin Scale       =       0.3333333333333333 [-]
	 SCS Opposite-Spin Scale   =       1.2000000000000000 [-]
	 SCS Same-Spin Energy      =      -0.1277461849055623 [Eh]
	 SCS Opposite-Spin Energy  =      -1.5420064814088226 [Eh]
	 SCS Correlation Energy    =      -1.6697526663143849 [Eh]
	 SCS Total Energy          =    -385.7594776146361824 [Eh]
	-----------------------------------------------------------

  Dipole Moment: [D]
     X:     1.0648      Y:    -1.1354      Z:     0.7267     Total:     1.7179

*** Psi4 exiting successfully. Buy a developer a beer!
