                               Psi4 1.3.2 release

  ==> Input File <==

--------------------------------------------------------------------------
#psi4
#
memory 32 gb

molecule  {
0 1
  O        0.4360818    -0.5919073     0.1525298
  O       -0.8408100     1.0912640    -0.7084360
  C        1.6346250     0.1623570    -0.1778450
  C        1.9195430     1.2250132     0.8656013
  C        2.7308080    -0.8763490    -0.2789480
  C       -1.9015140    -0.8789960     0.2349040
  C       -0.7451280     0.0062060    -0.1586260
  C       -3.2456700    -0.1986960     0.0285890
  H        1.4602790     0.6397420    -1.1462310
  H        2.8221420     1.7571320     0.6526510
  H        1.0777360     1.9358120     0.9100720
  H        2.0019030     0.7445150     1.8590670
  H        3.6747750    -0.4011320    -0.5598750
  H        2.4805410    -1.6278800    -1.0306640
  H        2.8646540    -1.3764140     0.6835210
  H       -1.8254340    -1.7987290    -0.3567280
  H       -1.7546250    -1.1827800     1.2758720
  H       -3.3759370     0.0860600    -1.0167370
  H       -4.0604800    -0.8690500     0.3134070
  H       -3.3166340     0.7089420     0.6308410
units angstrom
no_reorient  #important for SAPT in psi4, default
symmetry c1  #important for SAPT in psi4, default
}

set PROPERTIES_ORIGIN ["COM"]
properties('MP2/aug-cc-pvtz', properties = ['dipole'])
--------------------------------------------------------------------------

    Molecular point group: c1
  Charge       = 0
  Multiplicity = 1
  Basis Set: AUG-CC-PVTZ
    Blend: AUG-CC-PVTZ
  Basis Set: (AUG-CC-PVTZ AUX)
    Blend: AUG-CC-PVTZ-JKFIT

    Orbital Energies [Eh]
    ---------------------

    Doubly Occupied:

       1A    -20.595973     2A    -20.541761     3A    -11.377665
       4A    -11.289326     5A    -11.242906     6A    -11.219852
       7A    -11.218789     8A    -11.216968     9A     -1.447083
      10A     -1.350196    11A     -1.080237    12A     -1.045103
      13A     -0.944581    14A     -0.903448    15A     -0.815381
      16A     -0.759866    17A     -0.698185    18A     -0.667197
      19A     -0.656426    20A     -0.621091    21A     -0.603577
      22A     -0.572733    23A     -0.558320    24A     -0.545780
      25A     -0.540017    26A     -0.520193    27A     -0.511798
      28A     -0.505753    29A     -0.494304    30A     -0.478012
      31A     -0.452483    32A     -0.439159

  @DF-RHF Final Energy:  -384.08891594647730

   => Energetics <=

    Nuclear Repulsion Energy =            396.1117766215346592
    One-Electron Energy =               -1308.5730664406280539
    Two-Electron Energy =                 528.3723738726160946
    Total Energy =                       -384.0889159464773002
  Basis Set: (AUG-CC-PVTZ AUX)
    Blend: AUG-CC-PVTZ-RI
    Molecular point group: c1

    Geometry (in Angstrom), charge = 0, multiplicity = 1:

       Center              X                  Y                   Z               Mass
    ------------   -----------------  -----------------  -----------------  -----------------
         O            0.433468790727    -0.590761403344     0.156794296213    15.994914619570
         O           -0.843423009273     1.092409896656    -0.704171503787    15.994914619570
         C            1.632011990727     0.163502896656    -0.173580503787    12.000000000000
         C            1.916929990727     1.226159096656     0.869865796213    12.000000000000
         C            2.728194990727    -0.875203103344    -0.274683503787    12.000000000000
         C           -1.904127009273    -0.877850103344     0.239168496213    12.000000000000
         C           -0.747741009273     0.007351896656    -0.154361503787    12.000000000000
         C           -3.248283009273    -0.197550103344     0.032853496213    12.000000000000
         H            1.457665990727     0.640887896656    -1.141966503787     1.007825032230
         H            2.819528990727     1.758277896656     0.656915496213     1.007825032230
         H            1.075122990727     1.936957896656     0.914336496213     1.007825032230
         H            1.999289990727     0.745660896656     1.863331496213     1.007825032230
         H            3.672161990727    -0.399986103344    -0.555610503787     1.007825032230
         H            2.477927990727    -1.626734103344    -1.026399503787     1.007825032230
         H            2.862040990727    -1.375268103344     0.687785496213     1.007825032230
         H           -1.828047009273    -1.797583103344    -0.352463503787     1.007825032230
         H           -1.757238009273    -1.181634103344     1.280136496213     1.007825032230
         H           -3.378550009273     0.087205896656    -1.012472503787     1.007825032230
         H           -4.063093009273    -0.867904103344     0.317671496213     1.007825032230
         H           -3.319247009273     0.710087896656     0.635105496213     1.007825032230

  Basis Set: AUG-CC-PVTZ
    Blend: AUG-CC-PVTZ
  Basis Set: (AUG-CC-PVTZ AUX)
    Blend: AUG-CC-PVTZ-JKFIT
	 Reference Energy          =    -384.0889159464773002 [Eh]
	 Singles Energy            =      -0.0000000000000000 [Eh]
	 Same-Spin Energy          =      -0.3841212536913500 [Eh]
	 Opposite-Spin Energy      =      -1.2864757063336749 [Eh]
	 Correlation Energy        =      -1.6705969600250250 [Eh]
	 Total Energy              =    -385.7595129065023229 [Eh]

	 ================> DF-SCS-MP2 Energies <==================
	-----------------------------------------------------------
	 SCS Same-Spin Scale       =       0.3333333333333333 [-]
	 SCS Opposite-Spin Scale   =       1.2000000000000000 [-]
	 SCS Same-Spin Energy      =      -0.1280404178971166 [Eh]
	 SCS Opposite-Spin Energy  =      -1.5437708476004099 [Eh]
	 SCS Correlation Energy    =      -1.6718112654975266 [Eh]
	 SCS Total Energy          =    -385.7607272119748245 [Eh]
	-----------------------------------------------------------

  Dipole Moment: [D]
     X:     0.7824      Y:    -1.2755      Z:     0.7045     Total:     1.6539

*** Psi4 exiting successfully. Buy a developer a beer!
