                               Psi4 1.3.2 release

  ==> Input File <==

--------------------------------------------------------------------------
#psi4
#
memory 32 gb

molecule  {
0 1
  O        0.4332560    -0.5778250     0.1734540
  O       -0.7983336     1.0943474    -0.7080934
  C        1.6346250     0.1623570    -0.1778450
  C        1.8980320     1.2173290     0.8789650
  C        2.7308080    -0.8763490    -0.2789480
  C       -1.8670661    -0.9139383     0.2540074
  C       -0.7451280     0.0062060    -0.1586260
  C       -3.2456700    -0.1986960     0.0285890
  H        1.4602790     0.6397420    -1.1462310
  H        2.8221420     1.7571320     0.6526510
  H        1.0777360     1.9358120     0.9100720
  H        2.0019030     0.7445150     1.8590670
  H        3.6747750    -0.4011320    -0.5598750
  H        2.4805410    -1.6278800    -1.0306640
  H        2.8646540    -1.3764140     0.6835210
  H       -1.8254340    -1.7987290    -0.3567280
  H       -1.7546250    -1.1827800     1.2758720
  H       -3.3759370     0.0860600    -1.0167370
  H       -4.0604800    -0.8690500     0.3134070
  H       -3.3166340     0.7089420     0.6308410
units angstrom
no_reorient  #important for SAPT in psi4, default
symmetry c1  #important for SAPT in psi4, default
}

set PROPERTIES_ORIGIN ["COM"]
properties('MP2/aug-cc-pvtz', properties = ['dipole'])
--------------------------------------------------------------------------

    Molecular point group: c1
  Charge       = 0
  Multiplicity = 1
  Basis Set: AUG-CC-PVTZ
    Blend: AUG-CC-PVTZ
  Basis Set: (AUG-CC-PVTZ AUX)
    Blend: AUG-CC-PVTZ-JKFIT

    Orbital Energies [Eh]
    ---------------------

    Doubly Occupied:

       1A    -20.591656     2A    -20.541808     3A    -11.377522
       4A    -11.287351     5A    -11.242796     6A    -11.221827
       7A    -11.219419     8A    -11.214959     9A     -1.448406
      10A     -1.347358    11A     -1.079599    12A     -1.040497
      13A     -0.943430    14A     -0.903120    15A     -0.816744
      16A     -0.760087    17A     -0.698597    18A     -0.668170
      19A     -0.657729    20A     -0.621341    21A     -0.603634
      22A     -0.572132    23A     -0.553991    24A     -0.546953
      25A     -0.535176    26A     -0.520716    27A     -0.510668
      28A     -0.503273    29A     -0.496379    30A     -0.479568
      31A     -0.450534    32A     -0.440634

  @DF-RHF Final Energy:  -384.08695483398265

   => Energetics <=

    Nuclear Repulsion Energy =            396.4213926859572439
    One-Electron Energy =               -1309.2245477528049378
    Two-Electron Energy =                 528.7162002328650487
    Total Energy =                       -384.0869548339826451
  Basis Set: (AUG-CC-PVTZ AUX)
    Blend: AUG-CC-PVTZ-RI
    Molecular point group: c1

    Geometry (in Angstrom), charge = 0, multiplicity = 1:

       Center              X                  Y                   Z               Mass
    ------------   -----------------  -----------------  -----------------  -----------------
         O            0.423842289508    -0.574637869014     0.171431948972    15.994914619570
         O           -0.807747310492     1.097534530986    -0.710115451028    15.994914619570
         C            1.625211289508     0.165544130986    -0.179867051028    12.000000000000
         C            1.888618289508     1.220516130986     0.876942948972    12.000000000000
         C            2.721394289508    -0.873161869014    -0.280970051028    12.000000000000
         C           -1.876479810492    -0.910751169014     0.251985348972    12.000000000000
         C           -0.754541710492     0.009393130986    -0.160648051028    12.000000000000
         C           -3.255083710492    -0.195508869014     0.026566948972    12.000000000000
         H            1.450865289508     0.642929130986    -1.148253051028     1.007825032230
         H            2.812728289508     1.760319130986     0.650628948972     1.007825032230
         H            1.068322289508     1.938999130986     0.908049948972     1.007825032230
         H            1.992489289508     0.747702130986     1.857044948972     1.007825032230
         H            3.665361289508    -0.397944869014    -0.561897051028     1.007825032230
         H            2.471127289508    -1.624692869014    -1.032686051028     1.007825032230
         H            2.855240289508    -1.373226869014     0.681498948972     1.007825032230
         H           -1.834847710492    -1.795541869014    -0.358750051028     1.007825032230
         H           -1.764038710492    -1.179592869014     1.273849948972     1.007825032230
         H           -3.385350710492     0.089247130986    -1.018759051028     1.007825032230
         H           -4.069893710492    -0.865862869014     0.311384948972     1.007825032230
         H           -3.326047710492     0.712129130986     0.628818948972     1.007825032230

  Basis Set: AUG-CC-PVTZ
    Blend: AUG-CC-PVTZ
  Basis Set: (AUG-CC-PVTZ AUX)
    Blend: AUG-CC-PVTZ-JKFIT
	 Reference Energy          =    -384.0869548339826451 [Eh]
	 Singles Energy            =      -0.0000000000000000 [Eh]
	 Same-Spin Energy          =      -0.3839941272283522 [Eh]
	 Opposite-Spin Energy      =      -1.2864572926074018 [Eh]
	 Correlation Energy        =      -1.6704514198357541 [Eh]
	 Total Energy              =    -385.7574062538183739 [Eh]

	 ================> DF-SCS-MP2 Energies <==================
	-----------------------------------------------------------
	 SCS Same-Spin Scale       =       0.3333333333333333 [-]
	 SCS Opposite-Spin Scale   =       1.2000000000000000 [-]
	 SCS Same-Spin Energy      =      -0.1279980424094507 [Eh]
	 SCS Opposite-Spin Energy  =      -1.5437487511288821 [Eh]
	 SCS Correlation Energy    =      -1.6717467935383328 [Eh]
	 SCS Total Energy          =    -385.7587016275209635 [Eh]
	-----------------------------------------------------------

  Dipole Moment: [D]
     X:     0.6920      Y:    -1.3373      Z:     0.6867     Total:     1.6550

*** Psi4 exiting successfully. Buy a developer a beer!
