                               Psi4 1.4a3.dev225

  ==> Input File <==

--------------------------------------------------------------------------
#psi4
#
memory 32 gb

molecule  {
0 1
  O        0.3891610    -0.5692390     0.2103150
  O       -0.8187590     1.0859660    -0.7901910
  C        1.6201550     0.0566620    -0.2576010
  C        1.9966600     1.1837410     0.6861130
  C        2.6439510    -1.0589150    -0.3056920
  C       -1.9560750    -0.6909180     0.4160040
  C       -0.7668326     0.1013044    -0.1580097
  C       -3.2763650    -0.0323590     0.0421060
  H        1.4292650     0.4552490    -1.2581690
  H        2.9411400     1.6393830     0.3731600
  H        1.2237650     1.9545110     0.6843630
  H        2.1165080     0.7943580     1.7011000
  H        3.6013200    -0.6740400    -0.6688000
  H        2.3119000    -1.8571380    -0.9736080
  H        2.7925020    -1.4784670     0.6929400
  H       -1.8998650    -1.7205910     0.0458690
  H       -1.8337900    -0.7582950     1.5029030
  H       -3.3906490     0.0180570    -1.0424220
  H       -4.1145290    -0.5997430     0.4548680
  H       -3.3230440     0.9880080     0.4273560
units angstrom
no_reorient  #important for SAPT in psi4, default
symmetry c1  #important for SAPT in psi4, default
}

set PROPERTIES_ORIGIN ["COM"]
properties('MP2/aug-cc-pvtz', properties = ['dipole'])
--------------------------------------------------------------------------

    Molecular point group: c1
  Charge       = 0
  Multiplicity = 1
  Basis Set: AUG-CC-PVTZ
    Blend: AUG-CC-PVTZ
  Basis Set: (AUG-CC-PVTZ AUX)
    Blend: AUG-CC-PVTZ-JKFIT

    Orbital Energies [Eh]
    ---------------------

    Doubly Occupied:

       1A    -20.587498     2A    -20.550860     3A    -11.373560
       4A    -11.286831     5A    -11.241655     6A    -11.219114
       7A    -11.217733     8A    -11.216036     9A     -1.455535
      10A     -1.366116    11A     -1.073500    12A     -1.040266
      13A     -0.943176    14A     -0.895416    15A     -0.808770
      16A     -0.758625    17A     -0.703638    18A     -0.669103
      19A     -0.656633    20A     -0.619372    21A     -0.603669
      22A     -0.575736    23A     -0.556431    24A     -0.547103
      25A     -0.539158    26A     -0.522388    27A     -0.509495
      28A     -0.508179    29A     -0.497149    30A     -0.482059
      31A     -0.451873    32A     -0.437272

  @DF-RHF Final Energy:  -384.08857690540481

   => Energetics <=

    Nuclear Repulsion Energy =            396.0988889317770827
    One-Electron Energy =               -1308.5470337499157267
    Two-Electron Energy =                 528.3595679127338371
    Total Energy =                       -384.0885769054048069
  Basis Set: (AUG-CC-PVTZ AUX)
    Blend: AUG-CC-PVTZ-RI
    Molecular point group: c1

    Geometry (in Angstrom), charge = 0, multiplicity = 1:

       Center              X                  Y                   Z               Mass
    ------------   -----------------  -----------------  -----------------  -----------------
         O            0.405222060706    -0.584148825194     0.229656955997    15.994914619570
         O           -0.802697939294     1.071056174806    -0.770849044003    15.994914619570
         C            1.636216060706     0.041752174806    -0.238259044003    12.000000000000
         C            2.012721060706     1.168831174806     0.705454955997    12.000000000000
         C            2.660012060706    -1.073824825194    -0.286350044003    12.000000000000
         C           -1.940013939294    -0.705827825194     0.435345955997    12.000000000000
         C           -0.750771539294     0.086394574806    -0.138667744003    12.000000000000
         C           -3.260303939294    -0.047268825194     0.061447955997    12.000000000000
         H            1.445326060706     0.440339174806    -1.238827044003     1.007825032230
         H            2.957201060706     1.624473174806     0.392501955997     1.007825032230
         H            1.239826060706     1.939601174806     0.703704955997     1.007825032230
         H            2.132569060706     0.779448174806     1.720441955997     1.007825032230
         H            3.617381060706    -0.688949825194    -0.649458044003     1.007825032230
         H            2.327961060706    -1.872047825194    -0.954266044003     1.007825032230
         H            2.808563060706    -1.493376825194     0.712281955997     1.007825032230
         H           -1.883803939294    -1.735500825194     0.065210955997     1.007825032230
         H           -1.817728939294    -0.773204825194     1.522244955997     1.007825032230
         H           -3.374587939294     0.003147174806    -1.023080044003     1.007825032230
         H           -4.098467939294    -0.614652825194     0.474209955997     1.007825032230
         H           -3.306982939294     0.973098174806     0.446697955997     1.007825032230

  Basis Set: AUG-CC-PVTZ
    Blend: AUG-CC-PVTZ
  Basis Set: (AUG-CC-PVTZ AUX)
    Blend: AUG-CC-PVTZ-JKFIT
	 Reference Energy          =    -384.0885769054048069 [Eh]
	 Singles Energy            =      -0.0000000000000000 [Eh]
	 Same-Spin Energy          =      -0.3832256031661264 [Eh]
	 Opposite-Spin Energy      =      -1.2851038122030074 [Eh]
	 Correlation Energy        =      -1.6683294153691337 [Eh]
	 Total Energy              =    -385.7569063207739646 [Eh]

	 ================> DF-SCS-MP2 Energies <==================
	-----------------------------------------------------------
	 SCS Same-Spin Scale       =       0.3333333333333333 [-]
	 SCS Opposite-Spin Scale   =       1.2000000000000000 [-]
	 SCS Same-Spin Energy      =      -0.1277418677220421 [Eh]
	 SCS Opposite-Spin Energy  =      -1.5421245746436087 [Eh]
	 SCS Correlation Energy    =      -1.6698664423656508 [Eh]
	 SCS Total Energy          =    -385.7584433477704806 [Eh]
	-----------------------------------------------------------

  Dipole Moment: [D]
     X:     0.6275      Y:    -1.0157      Z:     0.6529     Total:     1.3607

*** Psi4 exiting successfully. Buy a developer a beer!
