                               Psi4 1.3.2 release

  ==> Input File <==

--------------------------------------------------------------------------
#psi4
#
memory 32 gb

molecule  {
0 1
  O        0.4332560    -0.5778250     0.1734540
  O       -0.8620077     1.0892263    -0.7083561
  C        1.6346250     0.1623570    -0.1778450
  C        1.8980320     1.2173290     0.8789650
  C        2.7308080    -0.8763490    -0.2789480
  C       -1.9182122    -0.8611177     0.2251710
  C       -0.7451280     0.0062060    -0.1586260
  C       -3.2456700    -0.1986960     0.0285890
  H        1.4602790     0.6397420    -1.1462310
  H        2.8221420     1.7571320     0.6526510
  H        1.0777360     1.9358120     0.9100720
  H        2.0019030     0.7445150     1.8590670
  H        3.6747750    -0.4011320    -0.5598750
  H        2.4805410    -1.6278800    -1.0306640
  H        2.8646540    -1.3764140     0.6835210
  H       -1.8254340    -1.7987290    -0.3567280
  H       -1.7546250    -1.1827800     1.2758720
  H       -3.3759370     0.0860600    -1.0167370
  H       -4.0604800    -0.8690500     0.3134070
  H       -3.3166340     0.7089420     0.6308410
units angstrom
no_reorient  #important for SAPT in psi4, default
symmetry c1  #important for SAPT in psi4, default
}

set PROPERTIES_ORIGIN ["COM"]
properties('MP2/aug-cc-pvtz', properties = ['dipole'])
--------------------------------------------------------------------------

    Molecular point group: c1
  Charge       = 0
  Multiplicity = 1
  Basis Set: AUG-CC-PVTZ
    Blend: AUG-CC-PVTZ
  Basis Set: (AUG-CC-PVTZ AUX)
    Blend: AUG-CC-PVTZ-JKFIT

    Orbital Energies [Eh]
    ---------------------

    Doubly Occupied:

       1A    -20.597029     2A    -20.540223     3A    -11.376808
       4A    -11.290795     5A    -11.242785     6A    -11.221425
       7A    -11.216980     8A    -11.216897     9A     -1.447753
      10A     -1.351015    11A     -1.080935    12A     -1.047280
      13A     -0.945537    14A     -0.903302    15A     -0.815207
      16A     -0.760995    17A     -0.697684    18A     -0.666193
      19A     -0.656058    20A     -0.620692    21A     -0.603123
      22A     -0.573557    23A     -0.560153    24A     -0.549895
      25A     -0.538573    26A     -0.520382    27A     -0.512737
      28A     -0.505844    29A     -0.490761    30A     -0.479944
      31A     -0.451414    32A     -0.438494

  @DF-RHF Final Energy:  -384.08909476357917

   => Energetics <=

    Nuclear Repulsion Energy =            396.3779345624762414
    One-Electron Energy =               -1309.0931165155732288
    Two-Electron Energy =                 528.6260871895178752
    Total Energy =                       -384.0890947635791690
  Basis Set: (AUG-CC-PVTZ AUX)
    Blend: AUG-CC-PVTZ-RI
    Molecular point group: c1

    Geometry (in Angstrom), charge = 0, multiplicity = 1:

       Center              X                  Y                   Z               Mass
    ------------   -----------------  -----------------  -----------------  -----------------
         O            0.437902959321    -0.579392502971     0.174449070021    15.994914619570
         O           -0.857360740679     1.087658797029    -0.707361029979    15.994914619570
         C            1.639271959321     0.160789497029    -0.176849929979    12.000000000000
         C            1.902678959321     1.215761497029     0.879960070021    12.000000000000
         C            2.735454959321    -0.877916502971    -0.277952929979    12.000000000000
         C           -1.913565240679    -0.862685202971     0.226166070021    12.000000000000
         C           -0.740481040679     0.004638497029    -0.157630929979    12.000000000000
         C           -3.241023040679    -0.200263502971     0.029584070021    12.000000000000
         H            1.464925959321     0.638174497029    -1.145235929979     1.007825032230
         H            2.826788959321     1.755564497029     0.653646070021     1.007825032230
         H            1.082382959321     1.934244497029     0.911067070021     1.007825032230
         H            2.006549959321     0.742947497029     1.860062070021     1.007825032230
         H            3.679421959321    -0.402699502971    -0.558879929979     1.007825032230
         H            2.485187959321    -1.629447502971    -1.029668929979     1.007825032230
         H            2.869300959321    -1.377981502971     0.684516070021     1.007825032230
         H           -1.820787040679    -1.800296502971    -0.355732929979     1.007825032230
         H           -1.749978040679    -1.184347502971     1.276867070021     1.007825032230
         H           -3.371290040679     0.084492497029    -1.015741929979     1.007825032230
         H           -4.055833040679    -0.870617502971     0.314402070021     1.007825032230
         H           -3.311987040679     0.707374497029     0.631836070021     1.007825032230

  Basis Set: AUG-CC-PVTZ
    Blend: AUG-CC-PVTZ
  Basis Set: (AUG-CC-PVTZ AUX)
    Blend: AUG-CC-PVTZ-JKFIT
	 Reference Energy          =    -384.0890947635791690 [Eh]
	 Singles Energy            =      -0.0000000000000000 [Eh]
	 Same-Spin Energy          =      -0.3841835826232033 [Eh]
	 Opposite-Spin Energy      =      -1.2863750201832309 [Eh]
	 Correlation Energy        =      -1.6705586028064343 [Eh]
	 Total Energy              =    -385.7596533663855780 [Eh]

	 ================> DF-SCS-MP2 Energies <==================
	-----------------------------------------------------------
	 SCS Same-Spin Scale       =       0.3333333333333333 [-]
	 SCS Opposite-Spin Scale   =       1.2000000000000000 [-]
	 SCS Same-Spin Energy      =      -0.1280611942077344 [Eh]
	 SCS Opposite-Spin Energy  =      -1.5436500242198770 [Eh]
	 SCS Correlation Energy    =      -1.6717112184276113 [Eh]
	 SCS Total Energy          =    -385.7608059820067865 [Eh]
	-----------------------------------------------------------

  Dipole Moment: [D]
     X:     0.8799      Y:    -1.3017      Z:     0.6831     Total:     1.7133

*** Psi4 exiting successfully. Buy a developer a beer!
