                               Psi4 1.4a3.dev225

  ==> Input File <==

--------------------------------------------------------------------------
#psi4
#
memory 32 gb

molecule  {
0 1
  O        0.3891610    -0.5692390     0.2103150
  O       -0.8187590     1.0859660    -0.7901910
  C        1.6201550     0.0566620    -0.2576010
  C        1.9966600     1.1837410     0.6861130
  C        2.6439510    -1.0589150    -0.3056920
  C       -1.9560750    -0.6909180     0.4160040
  C       -0.8071132     0.0824210    -0.1435955
  C       -3.2763650    -0.0323590     0.0421060
  H        1.4292650     0.4552490    -1.2581690
  H        2.9411400     1.6393830     0.3731600
  H        1.2237650     1.9545110     0.6843630
  H        2.1165080     0.7943580     1.7011000
  H        3.6013200    -0.6740400    -0.6688000
  H        2.3119000    -1.8571380    -0.9736080
  H        2.7925020    -1.4784670     0.6929400
  H       -1.8998650    -1.7205910     0.0458690
  H       -1.8337900    -0.7582950     1.5029030
  H       -3.3906490     0.0180570    -1.0424220
  H       -4.1145290    -0.5997430     0.4548680
  H       -3.3230440     0.9880080     0.4273560
units angstrom
no_reorient  #important for SAPT in psi4, default
symmetry c1  #important for SAPT in psi4, default
}

set PROPERTIES_ORIGIN ["COM"]
properties('MP2/aug-cc-pvtz', properties = ['dipole'])
--------------------------------------------------------------------------

    Molecular point group: c1
  Charge       = 0
  Multiplicity = 1
  Basis Set: AUG-CC-PVTZ
    Blend: AUG-CC-PVTZ
  Basis Set: (AUG-CC-PVTZ AUX)
    Blend: AUG-CC-PVTZ-JKFIT

    Orbital Energies [Eh]
    ---------------------

    Doubly Occupied:

       1A    -20.582586     2A    -20.550389     3A    -11.377694
       4A    -11.284547     5A    -11.245156     6A    -11.221212
       7A    -11.217401     8A    -11.213769     9A     -1.442263
      10A     -1.352183    11A     -1.078292    12A     -1.044013
      13A     -0.940880    14A     -0.902955    15A     -0.807313
      16A     -0.753838    17A     -0.703406    18A     -0.665577
      19A     -0.654973    20A     -0.619724    21A     -0.603236
      22A     -0.571132    23A     -0.556178    24A     -0.544949
      25A     -0.536301    26A     -0.524267    27A     -0.508405
      28A     -0.506756    29A     -0.498316    30A     -0.478987
      31A     -0.449531    32A     -0.440615

  @DF-RHF Final Energy:  -384.08723245275689

   => Energetics <=

    Nuclear Repulsion Energy =            395.6898949199500066
    One-Electron Energy =               -1307.8005724784586619
    Two-Electron Energy =                 528.0234451057517617
    Total Energy =                       -384.0872324527568935
  Basis Set: (AUG-CC-PVTZ AUX)
    Blend: AUG-CC-PVTZ-RI
    Molecular point group: c1

    Geometry (in Angstrom), charge = 0, multiplicity = 1:

       Center              X                  Y                   Z               Mass
    ------------   -----------------  -----------------  -----------------  -----------------
         O            0.409386013756    -0.582196779023     0.228166907387    15.994914619570
         O           -0.798533986244     1.073008220977    -0.772339092613    15.994914619570
         C            1.640380013756     0.043704220977    -0.239749092613    12.000000000000
         C            2.016885013756     1.170783220977     0.703964907387    12.000000000000
         C            2.664176013756    -1.071872779023    -0.287840092613    12.000000000000
         C           -1.935849986244    -0.703875779023     0.433855907387    12.000000000000
         C           -0.786888186244     0.069463220977    -0.125743592613    12.000000000000
         C           -3.256139986244    -0.045316779023     0.059957907387    12.000000000000
         H            1.449490013756     0.442291220977    -1.240317092613     1.007825032230
         H            2.961365013756     1.626425220977     0.391011907387     1.007825032230
         H            1.243990013756     1.941553220977     0.702214907387     1.007825032230
         H            2.136733013756     0.781400220977     1.718951907387     1.007825032230
         H            3.621545013756    -0.686997779023    -0.650948092613     1.007825032230
         H            2.332125013756    -1.870095779023    -0.955756092613     1.007825032230
         H            2.812727013756    -1.491424779023     0.710791907387     1.007825032230
         H           -1.879639986244    -1.733548779023     0.063720907387     1.007825032230
         H           -1.813564986244    -0.771252779023     1.520754907387     1.007825032230
         H           -3.370423986244     0.005099220977    -1.024570092613     1.007825032230
         H           -4.094303986244    -0.612700779023     0.472719907387     1.007825032230
         H           -3.302818986244     0.975050220977     0.445207907387     1.007825032230

  Basis Set: AUG-CC-PVTZ
    Blend: AUG-CC-PVTZ
  Basis Set: (AUG-CC-PVTZ AUX)
    Blend: AUG-CC-PVTZ-JKFIT
	 Reference Energy          =    -384.0872324527568935 [Eh]
	 Singles Energy            =      -0.0000000000000000 [Eh]
	 Same-Spin Energy          =      -0.3840773296551827 [Eh]
	 Opposite-Spin Energy      =      -1.2866616090680643 [Eh]
	 Correlation Energy        =      -1.6707389387232470 [Eh]
	 Total Energy              =    -385.7579713914801687 [Eh]

	 ================> DF-SCS-MP2 Energies <==================
	-----------------------------------------------------------
	 SCS Same-Spin Scale       =       0.3333333333333333 [-]
	 SCS Opposite-Spin Scale   =       1.2000000000000000 [-]
	 SCS Same-Spin Energy      =      -0.1280257765517275 [Eh]
	 SCS Opposite-Spin Energy  =      -1.5439939308816770 [Eh]
	 SCS Correlation Energy    =      -1.6720197074334047 [Eh]
	 SCS Total Energy          =    -385.7592521601902718 [Eh]
	-----------------------------------------------------------

  Dipole Moment: [D]
     X:     0.3200      Y:    -1.1154      Z:     0.7219     Total:     1.3666

*** Psi4 exiting successfully. Buy a developer a beer!
