                               Psi4 1.3.2 release

  ==> Input File <==

--------------------------------------------------------------------------
#psi4
#
memory 32 gb

molecule  {
0 1
  O        0.4332560    -0.5778250     0.1734540
  O       -0.8831698     1.0868586    -0.7081088
  C        1.6346250     0.1623570    -0.1778450
  C        1.8980320     1.2173290     0.8789650
  C        2.7308080    -0.8763490    -0.2789480
  C       -1.9345530    -0.8429752     0.2153211
  C       -0.7451280     0.0062060    -0.1586260
  C       -3.2456700    -0.1986960     0.0285890
  H        1.4602790     0.6397420    -1.1462310
  H        2.8221420     1.7571320     0.6526510
  H        1.0777360     1.9358120     0.9100720
  H        2.0019030     0.7445150     1.8590670
  H        3.6747750    -0.4011320    -0.5598750
  H        2.4805410    -1.6278800    -1.0306640
  H        2.8646540    -1.3764140     0.6835210
  H       -1.8254340    -1.7987290    -0.3567280
  H       -1.7546250    -1.1827800     1.2758720
  H       -3.3759370     0.0860600    -1.0167370
  H       -4.0604800    -0.8690500     0.3134070
  H       -3.3166340     0.7089420     0.6308410
units angstrom
no_reorient  #important for SAPT in psi4, default
symmetry c1  #important for SAPT in psi4, default
}

set PROPERTIES_ORIGIN ["COM"]
properties('MP2/aug-cc-pvtz', properties = ['dipole'])
--------------------------------------------------------------------------

    Molecular point group: c1
  Charge       = 0
  Multiplicity = 1
  Basis Set: AUG-CC-PVTZ
    Blend: AUG-CC-PVTZ
  Basis Set: (AUG-CC-PVTZ AUX)
    Blend: AUG-CC-PVTZ-JKFIT

    Orbital Energies [Eh]
    ---------------------

    Doubly Occupied:

       1A    -20.598829     2A    -20.539679     3A    -11.376748
       4A    -11.291941     5A    -11.243166     6A    -11.222094
       7A    -11.217665     8A    -11.215217     9A     -1.447701
      10A     -1.352294    11A     -1.081623    12A     -1.049943
      13A     -0.946247    14A     -0.903372    15A     -0.814792
      16A     -0.761325    17A     -0.697271    18A     -0.665962
      19A     -0.655821    20A     -0.620769    21A     -0.603172
      22A     -0.574135    23A     -0.563454    24A     -0.550893
      25A     -0.540123    26A     -0.521942    27A     -0.513349
      28A     -0.505869    29A     -0.488058    30A     -0.477285
      31A     -0.451868    32A     -0.436996

  @DF-RHF Final Energy:  -384.08612975479923

   => Energetics <=

    Nuclear Repulsion Energy =            396.3997034326176845
    One-Electron Energy =               -1309.1124664525368644
    Two-Electron Energy =                 528.6266332651199491
    Total Energy =                       -384.0861297547992308
  Basis Set: (AUG-CC-PVTZ AUX)
    Blend: AUG-CC-PVTZ-RI
    Molecular point group: c1

    Geometry (in Angstrom), charge = 0, multiplicity = 1:

       Center              X                  Y                   Z               Mass
    ------------   -----------------  -----------------  -----------------  -----------------
         O            0.442508045533    -0.580941719569     0.175433215327    15.994914619570
         O           -0.873917754467     1.083741880431    -0.706129584673    15.994914619570
         C            1.643877045533     0.159240280431    -0.175865784673    12.000000000000
         C            1.907284045533     1.214212280431     0.880944215327    12.000000000000
         C            2.740060045533    -0.879465719569    -0.276968784673    12.000000000000
         C           -1.925300954467    -0.846091919569     0.217300315327    12.000000000000
         C           -0.735875954467     0.003089280431    -0.156646784673    12.000000000000
         C           -3.236417954467    -0.201812719569     0.030568215327    12.000000000000
         H            1.469531045533     0.636625280431    -1.144251784673     1.007825032230
         H            2.831394045533     1.754015280431     0.654630215327     1.007825032230
         H            1.086988045533     1.932695280431     0.912051215327     1.007825032230
         H            2.011155045533     0.741398280431     1.861046215327     1.007825032230
         H            3.684027045533    -0.404248719569    -0.557895784673     1.007825032230
         H            2.489793045533    -1.630996719569    -1.028684784673     1.007825032230
         H            2.873906045533    -1.379530719569     0.685500215327     1.007825032230
         H           -1.816181954467    -1.801845719569    -0.354748784673     1.007825032230
         H           -1.745372954467    -1.185896719569     1.277851215327     1.007825032230
         H           -3.366684954467     0.082943280431    -1.014757784673     1.007825032230
         H           -4.051227954467    -0.872166719569     0.315386215327     1.007825032230
         H           -3.307381954467     0.705825280431     0.632820215327     1.007825032230

  Basis Set: AUG-CC-PVTZ
    Blend: AUG-CC-PVTZ
  Basis Set: (AUG-CC-PVTZ AUX)
    Blend: AUG-CC-PVTZ-JKFIT
	 Reference Energy          =    -384.0861297547992308 [Eh]
	 Singles Energy            =      -0.0000000000000000 [Eh]
	 Same-Spin Energy          =      -0.3843763821683724 [Eh]
	 Opposite-Spin Energy      =      -1.2866078047494887 [Eh]
	 Correlation Energy        =      -1.6709841869178610 [Eh]
	 Total Energy              =    -385.7571139417170798 [Eh]

	 ================> DF-SCS-MP2 Energies <==================
	-----------------------------------------------------------
	 SCS Same-Spin Scale       =       0.3333333333333333 [-]
	 SCS Opposite-Spin Scale   =       1.2000000000000000 [-]
	 SCS Same-Spin Energy      =      -0.1281254607227908 [Eh]
	 SCS Opposite-Spin Energy  =      -1.5439293656993864 [Eh]
	 SCS Correlation Energy    =      -1.6720548264221773 [Eh]
	 SCS Total Energy          =    -385.7581845812214283 [Eh]
	-----------------------------------------------------------

  Dipole Moment: [D]
     X:     0.9411      Y:    -1.2848      Z:     0.6791     Total:     1.7314

*** Psi4 exiting successfully. Buy a developer a beer!
