                               Psi4 1.4a3.dev225

  ==> Input File <==

--------------------------------------------------------------------------
#psi4
#
memory 32 gb

molecule  {
0 1
  O        0.3891610    -0.5692390     0.2103150
  O       -0.8187590     1.0859660    -0.7901910
  C        1.6201550     0.0566620    -0.2576010
  C        1.9966600     1.1837410     0.6861130
  C        2.6439510    -1.0589150    -0.3056920
  C       -1.9560750    -0.6909180     0.4160040
  C       -0.7623994     0.0172376    -0.1040363
  C       -3.2763650    -0.0323590     0.0421060
  H        1.4292650     0.4552490    -1.2581690
  H        2.9411400     1.6393830     0.3731600
  H        1.2237650     1.9545110     0.6843630
  H        2.1165080     0.7943580     1.7011000
  H        3.6013200    -0.6740400    -0.6688000
  H        2.3119000    -1.8571380    -0.9736080
  H        2.7925020    -1.4784670     0.6929400
  H       -1.8998650    -1.7205910     0.0458690
  H       -1.8337900    -0.7582950     1.5029030
  H       -3.3906490     0.0180570    -1.0424220
  H       -4.1145290    -0.5997430     0.4548680
  H       -3.3230440     0.9880080     0.4273560
units angstrom
no_reorient  #important for SAPT in psi4, default
symmetry c1  #important for SAPT in psi4, default
}

set PROPERTIES_ORIGIN ["COM"]
properties('MP2/aug-cc-pvtz', properties = ['dipole'])
--------------------------------------------------------------------------

    Molecular point group: c1
  Charge       = 0
  Multiplicity = 1
  Basis Set: AUG-CC-PVTZ
    Blend: AUG-CC-PVTZ
  Basis Set: (AUG-CC-PVTZ AUX)
    Blend: AUG-CC-PVTZ-JKFIT

    Orbital Energies [Eh]
    ---------------------

    Doubly Occupied:

       1A    -20.602465     2A    -20.530566     3A    -11.380399
       4A    -11.293854     5A    -11.244184     6A    -11.223355
       7A    -11.219545     8A    -11.218110     9A     -1.450804
      10A     -1.321244    11A     -1.085761    12A     -1.048515
      13A     -0.946351    14A     -0.909730    15A     -0.822069
      16A     -0.762527    17A     -0.693777    18A     -0.668911
      19A     -0.652839    20A     -0.623151    21A     -0.600320
      22A     -0.569381    23A     -0.560514    24A     -0.550217
      25A     -0.536161    26A     -0.519305    27A     -0.509291
      28A     -0.506961    29A     -0.490896    30A     -0.479824
      31A     -0.443747    32A     -0.436541

  @DF-RHF Final Energy:  -384.08284297652023

   => Energetics <=

    Nuclear Repulsion Energy =            395.7571409047990869
    One-Electron Energy =               -1307.8773351959125648
    Two-Electron Energy =                 528.0373513145931383
    Total Energy =                       -384.0828429765202827
  Basis Set: (AUG-CC-PVTZ AUX)
    Blend: AUG-CC-PVTZ-RI
    Molecular point group: c1

    Geometry (in Angstrom), charge = 0, multiplicity = 1:

       Center              X                  Y                   Z               Mass
    ------------   -----------------  -----------------  -----------------  -----------------
         O            0.404763784596    -0.575458532392     0.224077528096    15.994914619570
         O           -0.803156215404     1.079746467608    -0.776428471904    15.994914619570
         C            1.635757784596     0.050442467608    -0.243838471904    12.000000000000
         C            2.012262784596     1.177521467608     0.699875528096    12.000000000000
         C            2.659553784596    -1.065134532392    -0.291929471904    12.000000000000
         C           -1.940472215404    -0.697137532392     0.429766528096    12.000000000000
         C           -0.746796615404     0.011018067608    -0.090273771904    12.000000000000
         C           -3.260762215404    -0.038578532392     0.055868528096    12.000000000000
         H            1.444867784596     0.449029467608    -1.244406471904     1.007825032230
         H            2.956742784596     1.633163467608     0.386922528096     1.007825032230
         H            1.239367784596     1.948291467608     0.698125528096     1.007825032230
         H            2.132110784596     0.788138467608     1.714862528096     1.007825032230
         H            3.616922784596    -0.680259532392    -0.655037471904     1.007825032230
         H            2.327502784596    -1.863357532392    -0.959845471904     1.007825032230
         H            2.808104784596    -1.484686532392     0.706702528096     1.007825032230
         H           -1.884262215404    -1.726810532392     0.059631528096     1.007825032230
         H           -1.818187215404    -0.764514532392     1.516665528096     1.007825032230
         H           -3.375046215404     0.011837467608    -1.028659471904     1.007825032230
         H           -4.098926215404    -0.605962532392     0.468630528096     1.007825032230
         H           -3.307441215404     0.981788467608     0.441118528096     1.007825032230

  Basis Set: AUG-CC-PVTZ
    Blend: AUG-CC-PVTZ
  Basis Set: (AUG-CC-PVTZ AUX)
    Blend: AUG-CC-PVTZ-JKFIT
	 Reference Energy          =    -384.0828429765202259 [Eh]
	 Singles Energy            =      -0.0000000000000000 [Eh]
	 Same-Spin Energy          =      -0.3849351802651086 [Eh]
	 Opposite-Spin Energy      =      -1.2879393926613565 [Eh]
	 Correlation Energy        =      -1.6728745729264651 [Eh]
	 Total Energy              =    -385.7557175494466719 [Eh]

	 ================> DF-SCS-MP2 Energies <==================
	-----------------------------------------------------------
	 SCS Same-Spin Scale       =       0.3333333333333333 [-]
	 SCS Opposite-Spin Scale   =       1.2000000000000000 [-]
	 SCS Same-Spin Energy      =      -0.1283117267550362 [Eh]
	 SCS Opposite-Spin Energy  =      -1.5455272711936276 [Eh]
	 SCS Correlation Energy    =      -1.6738389979486639 [Eh]
	 SCS Total Energy          =    -385.7566819744689042 [Eh]
	-----------------------------------------------------------

  Dipole Moment: [D]
     X:     0.9320      Y:    -1.5031      Z:     0.9710     Total:     2.0176

*** Psi4 exiting successfully. Buy a developer a beer!
