                               Psi4 1.4a3.dev225

  ==> Input File <==

--------------------------------------------------------------------------
#psi4
#
memory 32 gb

molecule  {
0 1
  O        0.3891610    -0.5692390     0.2103150
  O       -0.8187590     1.0859660    -0.7901910
  C        1.5779426     0.0351990    -0.2415556
  C        1.9966600     1.1837410     0.6861130
  C        2.6439510    -1.0589150    -0.3056920
  C       -1.9560750    -0.6909180     0.4160040
  C       -0.7646160     0.0592710    -0.1310230
  C       -3.2763650    -0.0323590     0.0421060
  H        1.4292650     0.4552490    -1.2581690
  H        2.9411400     1.6393830     0.3731600
  H        1.2237650     1.9545110     0.6843630
  H        2.1165080     0.7943580     1.7011000
  H        3.6013200    -0.6740400    -0.6688000
  H        2.3119000    -1.8571380    -0.9736080
  H        2.7925020    -1.4784670     0.6929400
  H       -1.8998650    -1.7205910     0.0458690
  H       -1.8337900    -0.7582950     1.5029030
  H       -3.3906490     0.0180570    -1.0424220
  H       -4.1145290    -0.5997430     0.4548680
  H       -3.3230440     0.9880080     0.4273560
units angstrom
no_reorient  #important for SAPT in psi4, default
symmetry c1  #important for SAPT in psi4, default
}

set PROPERTIES_ORIGIN ["COM"]
properties('MP2/aug-cc-pvtz', properties = ['dipole'])
--------------------------------------------------------------------------

    Molecular point group: c1
  Charge       = 0
  Multiplicity = 1
  Basis Set: AUG-CC-PVTZ
    Blend: AUG-CC-PVTZ
  Basis Set: (AUG-CC-PVTZ AUX)
    Blend: AUG-CC-PVTZ-JKFIT

    Orbital Energies [Eh]
    ---------------------

    Doubly Occupied:

       1A    -20.601490     2A    -20.544504     3A    -11.381135
       4A    -11.288777     5A    -11.245391     6A    -11.220304
       7A    -11.219550     8A    -11.215265     9A     -1.459205
      10A     -1.357014    11A     -1.078802    12A     -1.042207
      13A     -0.940587    14A     -0.907926    15A     -0.819795
      16A     -0.762682    17A     -0.701153    18A     -0.672894
      19A     -0.658218    20A     -0.620610    21A     -0.603090
      22A     -0.573748    23A     -0.560202    24A     -0.545080
      25A     -0.536330    26A     -0.521798    27A     -0.517320
      28A     -0.505960    29A     -0.493549    30A     -0.473206
      31A     -0.449907    32A     -0.440038

  @DF-RHF Final Energy:  -384.08858794757708

   => Energetics <=

    Nuclear Repulsion Energy =            396.5387499405397307
    One-Electron Energy =               -1309.3392066346759748
    Two-Electron Energy =                 528.7118687465591620
    Total Energy =                       -384.0885879475771389
  Basis Set: (AUG-CC-PVTZ AUX)
    Blend: AUG-CC-PVTZ-RI
    Molecular point group: c1

    Geometry (in Angstrom), charge = 0, multiplicity = 1:

       Center              X                  Y                   Z               Mass
    ------------   -----------------  -----------------  -----------------  -----------------
         O            0.409356572937    -0.577584969928     0.225208570322    15.994914619570
         O           -0.798563427063     1.077620030072    -0.775297429678    15.994914619570
         C            1.598138172937     0.026853030072    -0.226662029678    12.000000000000
         C            2.016855572937     1.175395030072     0.701006570322    12.000000000000
         C            2.664146572937    -1.067260969928    -0.290798429678    12.000000000000
         C           -1.935879427063    -0.699263969928     0.430897570322    12.000000000000
         C           -0.744420427063     0.050925030072    -0.116129429678    12.000000000000
         C           -3.256169427063    -0.040704969928     0.056999570322    12.000000000000
         H            1.449460572937     0.446903030072    -1.243275429678     1.007825032230
         H            2.961335572937     1.631037030072     0.388053570322     1.007825032230
         H            1.243960572937     1.946165030072     0.699256570322     1.007825032230
         H            2.136703572937     0.786012030072     1.715993570322     1.007825032230
         H            3.621515572937    -0.682385969928    -0.653906429678     1.007825032230
         H            2.332095572937    -1.865483969928    -0.958714429678     1.007825032230
         H            2.812697572937    -1.486812969928     0.707833570322     1.007825032230
         H           -1.879669427063    -1.728936969928     0.060762570322     1.007825032230
         H           -1.813594427063    -0.766640969928     1.517796570322     1.007825032230
         H           -3.370453427063     0.009711030072    -1.027528429678     1.007825032230
         H           -4.094333427063    -0.608088969928     0.469761570322     1.007825032230
         H           -3.302848427063     0.979662030072     0.442249570322     1.007825032230

  Basis Set: AUG-CC-PVTZ
    Blend: AUG-CC-PVTZ
  Basis Set: (AUG-CC-PVTZ AUX)
    Blend: AUG-CC-PVTZ-JKFIT
	 Reference Energy          =    -384.0885879475770821 [Eh]
	 Singles Energy            =      -0.0000000000000000 [Eh]
	 Same-Spin Energy          =      -0.3839143413864350 [Eh]
	 Opposite-Spin Energy      =      -1.2859718385561913 [Eh]
	 Correlation Energy        =      -1.6698861799426263 [Eh]
	 Total Energy              =    -385.7584741275197189 [Eh]

	 ================> DF-SCS-MP2 Energies <==================
	-----------------------------------------------------------
	 SCS Same-Spin Scale       =       0.3333333333333333 [-]
	 SCS Opposite-Spin Scale   =       1.2000000000000000 [-]
	 SCS Same-Spin Energy      =      -0.1279714471288116 [Eh]
	 SCS Opposite-Spin Energy  =      -1.5431662062674296 [Eh]
	 SCS Correlation Energy    =      -1.6711376533962412 [Eh]
	 SCS Total Energy          =    -385.7597256009732973 [Eh]
	-----------------------------------------------------------

  Dipole Moment: [D]
     X:     0.5517      Y:    -1.3009      Z:     0.8284     Total:     1.6379

*** Psi4 exiting successfully. Buy a developer a beer!
