                               Psi4 1.3.2 release

  ==> Input File <==

--------------------------------------------------------------------------
#psi4
#
memory 32 gb

molecule  {
0 1
  O        0.3965385    -0.6325749     0.1998637
  O       -0.9043143     1.0844829    -0.7070561
  C        1.6346250     0.1623570    -0.1778450
  C        1.8980320     1.2173290     0.8789650
  C        2.7308080    -0.8763490    -0.2789480
  C       -1.9015140    -0.8789960     0.2349040
  C       -0.7451280     0.0062060    -0.1586260
  C       -3.2456700    -0.1986960     0.0285890
  H        1.4602790     0.6397420    -1.1462310
  H        2.8221420     1.7571320     0.6526510
  H        1.0777360     1.9358120     0.9100720
  H        2.0019030     0.7445150     1.8590670
  H        3.6747750    -0.4011320    -0.5598750
  H        2.4805410    -1.6278800    -1.0306640
  H        2.8646540    -1.3764140     0.6835210
  H       -1.8254340    -1.7987290    -0.3567280
  H       -1.7546250    -1.1827800     1.2758720
  H       -3.3759370     0.0860600    -1.0167370
  H       -4.0604800    -0.8690500     0.3134070
  H       -3.3166340     0.7089420     0.6308410
units angstrom
no_reorient  #important for SAPT in psi4, default
symmetry c1  #important for SAPT in psi4, default
}

set PROPERTIES_ORIGIN ["COM"]
properties('MP2/aug-cc-pvtz', properties = ['dipole'])
--------------------------------------------------------------------------

    Molecular point group: c1
  Charge       = 0
  Multiplicity = 1
  Basis Set: AUG-CC-PVTZ
    Blend: AUG-CC-PVTZ
  Basis Set: (AUG-CC-PVTZ AUX)
    Blend: AUG-CC-PVTZ-JKFIT

    Orbital Energies [Eh]
    ---------------------

    Doubly Occupied:

       1A    -20.600947     2A    -20.542154     3A    -11.374762
       4A    -11.299285     5A    -11.233631     6A    -11.224905
       7A    -11.222128     8A    -11.212811     9A     -1.438254
      10A     -1.350191    11A     -1.080271    12A     -1.041557
      13A     -0.948617    14A     -0.896224    15A     -0.808959
      16A     -0.761044    17A     -0.693413    18A     -0.663297
      19A     -0.654966    20A     -0.620454    21A     -0.600406
      22A     -0.577682    23A     -0.556513    24A     -0.552494
      25A     -0.539954    26A     -0.515256    27A     -0.507861
      28A     -0.500370    29A     -0.495550    30A     -0.485072
      31A     -0.457668    32A     -0.435379

  @DF-RHF Final Energy:  -384.08220571465591

   => Energetics <=

    Nuclear Repulsion Energy =            394.9276009577119453
    One-Electron Energy =               -1306.2354679707843843
    Two-Electron Energy =                 527.2256612984164121
    Total Energy =                       -384.0822057146559700
  Basis Set: (AUG-CC-PVTZ AUX)
    Blend: AUG-CC-PVTZ-RI
    Molecular point group: c1

    Geometry (in Angstrom), charge = 0, multiplicity = 1:

       Center              X                  Y                   Z               Mass
    ------------   -----------------  -----------------  -----------------  -----------------
         O            0.410347857323    -0.624096810383     0.196034577281    15.994914619570
         O           -0.890504942677     1.092960989617    -0.710885222719    15.994914619570
         C            1.648434357323     0.170835089617    -0.181674122719    12.000000000000
         C            1.911841357323     1.225807089617     0.875135877281    12.000000000000
         C            2.744617357323    -0.867870910383    -0.282777122719    12.000000000000
         C           -1.887704642677    -0.870517910383     0.231074877281    12.000000000000
         C           -0.731318642677     0.014684089617    -0.162455122719    12.000000000000
         C           -3.231860642677    -0.190217910383     0.024759877281    12.000000000000
         H            1.474088357323     0.648220089617    -1.150060122719     1.007825032230
         H            2.835951357323     1.765610089617     0.648821877281     1.007825032230
         H            1.091545357323     1.944290089617     0.906242877281     1.007825032230
         H            2.015712357323     0.752993089617     1.855237877281     1.007825032230
         H            3.688584357323    -0.392653910383    -0.563704122719     1.007825032230
         H            2.494350357323    -1.619401910383    -1.034493122719     1.007825032230
         H            2.878463357323    -1.367935910383     0.679691877281     1.007825032230
         H           -1.811624642677    -1.790250910383    -0.360557122719     1.007825032230
         H           -1.740815642677    -1.174301910383     1.272042877281     1.007825032230
         H           -3.362127642677     0.094538089617    -1.020566122719     1.007825032230
         H           -4.046670642677    -0.860571910383     0.309577877281     1.007825032230
         H           -3.302824642677     0.717420089617     0.627011877281     1.007825032230

  Basis Set: AUG-CC-PVTZ
    Blend: AUG-CC-PVTZ
  Basis Set: (AUG-CC-PVTZ AUX)
    Blend: AUG-CC-PVTZ-JKFIT
	 Reference Energy          =    -384.0822057146559132 [Eh]
	 Singles Energy            =      -0.0000000000000000 [Eh]
	 Same-Spin Energy          =      -0.3847072007499507 [Eh]
	 Opposite-Spin Energy      =      -1.2885729906418919 [Eh]
	 Correlation Energy        =      -1.6732801913918425 [Eh]
	 Total Energy              =    -385.7554859060477384 [Eh]

	 ================> DF-SCS-MP2 Energies <==================
	-----------------------------------------------------------
	 SCS Same-Spin Scale       =       0.3333333333333333 [-]
	 SCS Opposite-Spin Scale   =       1.2000000000000000 [-]
	 SCS Same-Spin Energy      =      -0.1282357335833169 [Eh]
	 SCS Opposite-Spin Energy  =      -1.5462875887702703 [Eh]
	 SCS Correlation Energy    =      -1.6745233223535871 [Eh]
	 SCS Total Energy          =    -385.7567290370095066 [Eh]
	-----------------------------------------------------------

  Dipole Moment: [D]
     X:     1.3211      Y:    -1.1329      Z:     0.6385     Total:     1.8538

*** Psi4 exiting successfully. Buy a developer a beer!
