                               Psi4 1.3.2 release

  ==> Input File <==

--------------------------------------------------------------------------
#psi4
#
memory 32 gb

molecule  {
0 1
  O        0.4224915    -0.5702105     0.1517684
  O       -0.8408100     1.0912640    -0.7084360
  C        1.6346250     0.1623570    -0.1778450
  C        1.8980320     1.2173290     0.8789650
  C        2.7308080    -0.8763490    -0.2789480
  C       -1.9015140    -0.8789960     0.2349040
  C       -0.7451280     0.0062060    -0.1586260
  C       -3.2456700    -0.1986960     0.0285890
  H        1.4427788     0.6321323    -1.1466435
  H        2.8221420     1.7571320     0.6526510
  H        1.0777360     1.9358120     0.9100720
  H        2.0019030     0.7445150     1.8590670
  H        3.6747750    -0.4011320    -0.5598750
  H        2.4805410    -1.6278800    -1.0306640
  H        2.8646540    -1.3764140     0.6835210
  H       -1.8254340    -1.7987290    -0.3567280
  H       -1.7546250    -1.1827800     1.2758720
  H       -3.3759370     0.0860600    -1.0167370
  H       -4.0604800    -0.8690500     0.3134070
  H       -3.3166340     0.7089420     0.6308410
units angstrom
no_reorient  #important for SAPT in psi4, default
symmetry c1  #important for SAPT in psi4, default
}

set PROPERTIES_ORIGIN ["COM"]
properties('MP2/aug-cc-pvtz', properties = ['dipole'])
--------------------------------------------------------------------------

    Molecular point group: c1
  Charge       = 0
  Multiplicity = 1
  Basis Set: AUG-CC-PVTZ
    Blend: AUG-CC-PVTZ
  Basis Set: (AUG-CC-PVTZ AUX)
    Blend: AUG-CC-PVTZ-JKFIT

    Orbital Energies [Eh]
    ---------------------

    Doubly Occupied:

       1A    -20.594998     2A    -20.536932     3A    -11.374214
       4A    -11.290886     5A    -11.241682     6A    -11.221977
       7A    -11.217830     8A    -11.217442     9A     -1.453128
      10A     -1.348329    11A     -1.081766    12A     -1.044962
      13A     -0.945772    14A     -0.903818    15A     -0.818807
      16A     -0.760459    17A     -0.697243    18A     -0.668246
      19A     -0.657148    20A     -0.621801    21A     -0.603218
      22A     -0.572966    23A     -0.558629    24A     -0.549648
      25A     -0.537960    26A     -0.519201    27A     -0.509836
      28A     -0.506036    29A     -0.493710    30A     -0.480404
      31A     -0.450599    32A     -0.438421

  @DF-RHF Final Energy:  -384.09127094499047

   => Energetics <=

    Nuclear Repulsion Energy =            396.7859592902149188
    One-Electron Energy =               -1309.9183264574280656
    Two-Electron Energy =                 529.0410962222226772
    Total Energy =                       -384.0912709449904696
  Basis Set: (AUG-CC-PVTZ AUX)
    Blend: AUG-CC-PVTZ-RI
    Molecular point group: c1

    Geometry (in Angstrom), charge = 0, multiplicity = 1:

       Center              X                  Y                   Z               Mass
    ------------   -----------------  -----------------  -----------------  -----------------
         O            0.424126672875    -0.571193745974     0.154759934493    15.994914619570
         O           -0.839174827125     1.090280754026    -0.705444465507    15.994914619570
         C            1.636260172875     0.161373754026    -0.174853465507    12.000000000000
         C            1.899667172875     1.216345754026     0.881956534493    12.000000000000
         C            2.732443172875    -0.877332245974    -0.275956465507    12.000000000000
         C           -1.899878827125    -0.879979245974     0.237895534493    12.000000000000
         C           -0.743492827125     0.005222754026    -0.155634465507    12.000000000000
         C           -3.244034827125    -0.199679245974     0.031580534493    12.000000000000
         H            1.444413972875     0.631149054026    -1.143651965507     1.007825032230
         H            2.823777172875     1.756148754026     0.655642534493     1.007825032230
         H            1.079371172875     1.934828754026     0.913063534493     1.007825032230
         H            2.003538172875     0.743531754026     1.862058534493     1.007825032230
         H            3.676410172875    -0.402115245974    -0.556883465507     1.007825032230
         H            2.482176172875    -1.628863245974    -1.027672465507     1.007825032230
         H            2.866289172875    -1.377397245974     0.686512534493     1.007825032230
         H           -1.823798827125    -1.799712245974    -0.353736465507     1.007825032230
         H           -1.752989827125    -1.183763245974     1.278863534493     1.007825032230
         H           -3.374301827125     0.085076754026    -1.013745465507     1.007825032230
         H           -4.058844827125    -0.870033245974     0.316398534493     1.007825032230
         H           -3.314998827125     0.707958754026     0.633832534493     1.007825032230

  Basis Set: AUG-CC-PVTZ
    Blend: AUG-CC-PVTZ
  Basis Set: (AUG-CC-PVTZ AUX)
    Blend: AUG-CC-PVTZ-JKFIT
	 Reference Energy          =    -384.0912709449904696 [Eh]
	 Singles Energy            =      -0.0000000000000000 [Eh]
	 Same-Spin Energy          =      -0.3837727561302169 [Eh]
	 Opposite-Spin Energy      =      -1.2854239232894233 [Eh]
	 Correlation Energy        =      -1.6691966794196402 [Eh]
	 Total Energy              =    -385.7604676244101256 [Eh]

	 ================> DF-SCS-MP2 Energies <==================
	-----------------------------------------------------------
	 SCS Same-Spin Scale       =       0.3333333333333333 [-]
	 SCS Opposite-Spin Scale   =       1.2000000000000000 [-]
	 SCS Same-Spin Energy      =      -0.1279242520434056 [Eh]
	 SCS Opposite-Spin Energy  =      -1.5425087079473079 [Eh]
	 SCS Correlation Energy    =      -1.6704329599907135 [Eh]
	 SCS Total Energy          =    -385.7617039049811751 [Eh]
	-----------------------------------------------------------

  Dipole Moment: [D]
     X:     0.9347      Y:    -1.3556      Z:     0.7380     Total:     1.8044

*** Psi4 exiting successfully. Buy a developer a beer!
