                               Psi4 1.3.2 release

  ==> Input File <==

--------------------------------------------------------------------------
#psi4
#
memory 32 gb

molecule  {
0 1
  O        0.4332560    -0.5778250     0.1734540
  O       -0.8408100     1.0912640    -0.7084360
  C        1.6346250     0.1623570    -0.1778450
  C        1.8980320     1.2173290     0.8789650
  C        2.7308080    -0.8763490    -0.2789480
  C       -1.9015140    -0.8789960     0.2349040
  C       -0.7529697     0.0951333    -0.2036864
  C       -3.2456700    -0.1986960     0.0285890
  H        1.4602790     0.6397420    -1.1462310
  H        2.8221420     1.7571320     0.6526510
  H        1.0777360     1.9358120     0.9100720
  H        2.0019030     0.7445150     1.8590670
  H        3.6747750    -0.4011320    -0.5598750
  H        2.4805410    -1.6278800    -1.0306640
  H        2.8646540    -1.3764140     0.6835210
  H       -1.8254340    -1.7987290    -0.3567280
  H       -1.7546250    -1.1827800     1.2758720
  H       -3.3759370     0.0860600    -1.0167370
  H       -4.0604800    -0.8690500     0.3134070
  H       -3.3166340     0.7089420     0.6308410
units angstrom
no_reorient  #important for SAPT in psi4, default
symmetry c1  #important for SAPT in psi4, default
}

set PROPERTIES_ORIGIN ["COM"]
properties('MP2/aug-cc-pvtz', properties = ['dipole'])
--------------------------------------------------------------------------

    Molecular point group: c1
  Charge       = 0
  Multiplicity = 1
  Basis Set: AUG-CC-PVTZ
    Blend: AUG-CC-PVTZ
  Basis Set: (AUG-CC-PVTZ AUX)
    Blend: AUG-CC-PVTZ-JKFIT

    Orbital Energies [Eh]
    ---------------------

    Doubly Occupied:

       1A    -20.579206     2A    -20.560631     3A    -11.369073
       4A    -11.282595     5A    -11.239809     6A    -11.216853
       7A    -11.216371     8A    -11.214281     9A     -1.483956
      10A     -1.369426    11A     -1.068171    12A     -1.037062
      13A     -0.941598    14A     -0.888389    15A     -0.803507
      16A     -0.758267    17A     -0.713304    18A     -0.675984
      19A     -0.660793    20A     -0.617384    21A     -0.605663
      22A     -0.580130    23A     -0.556468    24A     -0.547316
      25A     -0.542904    26A     -0.525698    27A     -0.511785
      28A     -0.507708    29A     -0.497664    30A     -0.481480
      31A     -0.449340    32A     -0.430087

  @DF-RHF Final Energy:  -384.07680502203920

   => Energetics <=

    Nuclear Repulsion Energy =            396.8478364632954367
    One-Electron Energy =               -1309.9834756311704496
    Two-Electron Energy =                 529.0588341458358173
    Total Energy =                       -384.0768050220392524
  Basis Set: (AUG-CC-PVTZ AUX)
    Blend: AUG-CC-PVTZ-RI
    Molecular point group: c1

    Geometry (in Angstrom), charge = 0, multiplicity = 1:

       Center              X                  Y                   Z               Mass
    ------------   -----------------  -----------------  -----------------  -----------------
         O            0.434066647350    -0.587017868217     0.178112001898    15.994914619570
         O           -0.839999352650     1.082071131783    -0.703777998102    15.994914619570
         C            1.635435647350     0.153164131783    -0.173186998102    12.000000000000
         C            1.898842647350     1.208136131783     0.883623001898    12.000000000000
         C            2.731618647350    -0.885541868217    -0.274289998102    12.000000000000
         C           -1.900703352650    -0.888188868217     0.239562001898    12.000000000000
         C           -0.752159052650     0.085940431783    -0.199028398102    12.000000000000
         C           -3.244859352650    -0.207888868217     0.033247001898    12.000000000000
         H            1.461089647350     0.630549131783    -1.141572998102     1.007825032230
         H            2.822952647350     1.747939131783     0.657309001898     1.007825032230
         H            1.078546647350     1.926619131783     0.914730001898     1.007825032230
         H            2.002713647350     0.735322131783     1.863725001898     1.007825032230
         H            3.675585647350    -0.410324868217    -0.555216998102     1.007825032230
         H            2.481351647350    -1.637072868217    -1.026005998102     1.007825032230
         H            2.865464647350    -1.385606868217     0.688179001898     1.007825032230
         H           -1.824623352650    -1.807921868217    -0.352069998102     1.007825032230
         H           -1.753814352650    -1.191972868217     1.280530001898     1.007825032230
         H           -3.375126352650     0.076867131783    -1.012078998102     1.007825032230
         H           -4.059669352650    -0.878242868217     0.318065001898     1.007825032230
         H           -3.315823352650     0.699749131783     0.635499001898     1.007825032230

  Basis Set: AUG-CC-PVTZ
    Blend: AUG-CC-PVTZ
  Basis Set: (AUG-CC-PVTZ AUX)
    Blend: AUG-CC-PVTZ-JKFIT
	 Reference Energy          =    -384.0768050220391956 [Eh]
	 Singles Energy            =      -0.0000000000000000 [Eh]
	 Same-Spin Energy          =      -0.3825579965760740 [Eh]
	 Opposite-Spin Energy      =      -1.2837915740130001 [Eh]
	 Correlation Energy        =      -1.6663495705890741 [Eh]
	 Total Energy              =    -385.7431545926282865 [Eh]

	 ================> DF-SCS-MP2 Energies <==================
	-----------------------------------------------------------
	 SCS Same-Spin Scale       =       0.3333333333333333 [-]
	 SCS Opposite-Spin Scale   =       1.2000000000000000 [-]
	 SCS Same-Spin Energy      =      -0.1275193321920247 [Eh]
	 SCS Opposite-Spin Energy  =      -1.5405498888156002 [Eh]
	 SCS Correlation Energy    =      -1.6680692210076249 [Eh]
	 SCS Total Energy          =    -385.7448742430468087 [Eh]
	-----------------------------------------------------------

  Dipole Moment: [D]
     X:     0.4829      Y:    -0.7832      Z:     0.3922     Total:     1.0002

*** Psi4 exiting successfully. Buy a developer a beer!
