                               Psi4 1.4a3.dev225

  ==> Input File <==

--------------------------------------------------------------------------
#psi4
#
memory 32 gb

molecule  {
0 1
  O        0.3891610    -0.5692390     0.2103150
  O       -0.8187590     1.0859660    -0.7901910
  C        1.6623674     0.0781250    -0.2736464
  C        1.9966600     1.1837410     0.6861130
  C        2.6439510    -1.0589150    -0.3056920
  C       -1.9560750    -0.6909180     0.4160040
  C       -0.7646160     0.0592710    -0.1310230
  C       -3.2763650    -0.0323590     0.0421060
  H        1.4292650     0.4552490    -1.2581690
  H        2.9411400     1.6393830     0.3731600
  H        1.2237650     1.9545110     0.6843630
  H        2.1165080     0.7943580     1.7011000
  H        3.6013200    -0.6740400    -0.6688000
  H        2.3119000    -1.8571380    -0.9736080
  H        2.7925020    -1.4784670     0.6929400
  H       -1.8998650    -1.7205910     0.0458690
  H       -1.8337900    -0.7582950     1.5029030
  H       -3.3906490     0.0180570    -1.0424220
  H       -4.1145290    -0.5997430     0.4548680
  H       -3.3230440     0.9880080     0.4273560
units angstrom
no_reorient  #important for SAPT in psi4, default
symmetry c1  #important for SAPT in psi4, default
}

set PROPERTIES_ORIGIN ["COM"]
properties('MP2/aug-cc-pvtz', properties = ['dipole'])
--------------------------------------------------------------------------

    Molecular point group: c1
  Charge       = 0
  Multiplicity = 1
  Basis Set: AUG-CC-PVTZ
    Blend: AUG-CC-PVTZ
  Basis Set: (AUG-CC-PVTZ AUX)
    Blend: AUG-CC-PVTZ-JKFIT

    Orbital Energies [Eh]
    ---------------------

    Doubly Occupied:

       1A    -20.588322     2A    -20.537203     3A    -11.373278
       4A    -11.292818     5A    -11.240469     6A    -11.223248
       7A    -11.219055     8A    -11.216852     9A     -1.435568
      10A     -1.340524    11A     -1.081827    12A     -1.045139
      13A     -0.949208    14A     -0.897976    15A     -0.812102
      16A     -0.757162    17A     -0.693662    18A     -0.661654
      19A     -0.650887    20A     -0.623378    21A     -0.601103
      22A     -0.571776    23A     -0.557513    24A     -0.551401
      25A     -0.535927    26A     -0.517894    27A     -0.510517
      28A     -0.502086    29A     -0.493344    30A     -0.486585
      31A     -0.450929    32A     -0.436457

  @DF-RHF Final Energy:  -384.08703338352717

   => Energetics <=

    Nuclear Repulsion Energy =            395.2792760974224393
    One-Electron Energy =               -1307.0208932345121866
    Two-Electron Energy =                 527.6545837535625196
    Total Energy =                       -384.0870333835272277
  Basis Set: (AUG-CC-PVTZ AUX)
    Blend: AUG-CC-PVTZ-RI
    Molecular point group: c1

    Geometry (in Angstrom), charge = 0, multiplicity = 1:

       Center              X                  Y                   Z               Mass
    ------------   -----------------  -----------------  -----------------  -----------------
         O            0.400629272365    -0.582022387658     0.228525913771    15.994914619570
         O           -0.807290727635     1.073182612342    -0.771980086229    15.994914619570
         C            1.673835672365     0.065341612342    -0.255435486229    12.000000000000
         C            2.008128272365     1.170957612342     0.704323913771    12.000000000000
         C            2.655419272365    -1.071698387658    -0.287481086229    12.000000000000
         C           -1.944606727635    -0.703701387658     0.434214913771    12.000000000000
         C           -0.753147727635     0.046487612342    -0.112812086229    12.000000000000
         C           -3.264896727635    -0.045142387658     0.060316913771    12.000000000000
         H            1.440733272365     0.442465612342    -1.239958086229     1.007825032230
         H            2.952608272365     1.626599612342     0.391370913771     1.007825032230
         H            1.235233272365     1.941727612342     0.702573913771     1.007825032230
         H            2.127976272365     0.781574612342     1.719310913771     1.007825032230
         H            3.612788272365    -0.686823387658    -0.650589086229     1.007825032230
         H            2.323368272365    -1.869921387658    -0.955397086229     1.007825032230
         H            2.803970272365    -1.491250387658     0.711150913771     1.007825032230
         H           -1.888396727635    -1.733374387658     0.064079913771     1.007825032230
         H           -1.822321727635    -0.771078387658     1.521113913771     1.007825032230
         H           -3.379180727635     0.005273612342    -1.024211086229     1.007825032230
         H           -4.103060727635    -0.612526387658     0.473078913771     1.007825032230
         H           -3.311575727635     0.975224612342     0.445566913771     1.007825032230

  Basis Set: AUG-CC-PVTZ
    Blend: AUG-CC-PVTZ
  Basis Set: (AUG-CC-PVTZ AUX)
    Blend: AUG-CC-PVTZ-JKFIT
	 Reference Energy          =    -384.0870333835271708 [Eh]
	 Singles Energy            =      -0.0000000000000000 [Eh]
	 Same-Spin Energy          =      -0.3843061541692991 [Eh]
	 Opposite-Spin Energy      =      -1.2871228204665028 [Eh]
	 Correlation Energy        =      -1.6714289746358020 [Eh]
	 Total Energy              =    -385.7584623581630012 [Eh]

	 ================> DF-SCS-MP2 Energies <==================
	-----------------------------------------------------------
	 SCS Same-Spin Scale       =       0.3333333333333333 [-]
	 SCS Opposite-Spin Scale   =       1.2000000000000000 [-]
	 SCS Same-Spin Energy      =      -0.1281020513897664 [Eh]
	 SCS Opposite-Spin Energy  =      -1.5445473845598034 [Eh]
	 SCS Correlation Energy    =      -1.6726494359495698 [Eh]
	 SCS Total Energy          =    -385.7596828194767227 [Eh]
	-----------------------------------------------------------

  Dipole Moment: [D]
     X:     1.0127      Y:    -1.2343      Z:     0.8058     Total:     1.7884

*** Psi4 exiting successfully. Buy a developer a beer!
