                               Psi4 1.3.2 release

  ==> Input File <==

--------------------------------------------------------------------------
#psi4
#
memory 32 gb

molecule  {
0 1
  O        0.4287029    -0.5489884     0.2149750
  O       -0.8408100     1.0912640    -0.7084360
  C        1.6346250     0.1623570    -0.1778450
  C        1.8547759     1.2009991     0.9047227
  C        2.7308080    -0.8763490    -0.2789480
  C       -1.9015140    -0.8789960     0.2349040
  C       -0.7451280     0.0062060    -0.1586260
  C       -3.2456700    -0.1986960     0.0285890
  H        1.4602790     0.6397420    -1.1462310
  H        2.8221420     1.7571320     0.6526510
  H        1.0777360     1.9358120     0.9100720
  H        2.0019030     0.7445150     1.8590670
  H        3.6747750    -0.4011320    -0.5598750
  H        2.4805410    -1.6278800    -1.0306640
  H        2.8646540    -1.3764140     0.6835210
  H       -1.8254340    -1.7987290    -0.3567280
  H       -1.7546250    -1.1827800     1.2758720
  H       -3.3759370     0.0860600    -1.0167370
  H       -4.0604800    -0.8690500     0.3134070
  H       -3.3166340     0.7089420     0.6308410
units angstrom
no_reorient  #important for SAPT in psi4, default
symmetry c1  #important for SAPT in psi4, default
}

set PROPERTIES_ORIGIN ["COM"]
properties('MP2/aug-cc-pvtz', properties = ['dipole'])
--------------------------------------------------------------------------

    Molecular point group: c1
  Charge       = 0
  Multiplicity = 1
  Basis Set: AUG-CC-PVTZ
    Blend: AUG-CC-PVTZ
  Basis Set: (AUG-CC-PVTZ AUX)
    Blend: AUG-CC-PVTZ-JKFIT

    Orbital Energies [Eh]
    ---------------------

    Doubly Occupied:

       1A    -20.593749     2A    -20.539271     3A    -11.375932
       4A    -11.290481     5A    -11.242241     6A    -11.222508
       7A    -11.218309     8A    -11.215669     9A     -1.449245
      10A     -1.349108    11A     -1.080711    12A     -1.044426
      13A     -0.945770    14A     -0.902738    15A     -0.816378
      16A     -0.762503    17A     -0.698009    18A     -0.665811
      19A     -0.656553    20A     -0.621210    21A     -0.603802
      22A     -0.573624    23A     -0.557388    24A     -0.554616
      25A     -0.531539    26A     -0.519653    27A     -0.509860
      28A     -0.502976    29A     -0.494561    30A     -0.484321
      31A     -0.447058    32A     -0.440248

  @DF-RHF Final Energy:  -384.08673119280365

   => Energetics <=

    Nuclear Repulsion Energy =            396.8863942030100702
    One-Electron Energy =               -1310.1257132663404263
    Two-Electron Energy =                 529.1525878705267587
    Total Energy =                       -384.0867311928036543
  Basis Set: (AUG-CC-PVTZ AUX)
    Blend: AUG-CC-PVTZ-RI
    Molecular point group: c1

    Geometry (in Angstrom), charge = 0, multiplicity = 1:

       Center              X                  Y                   Z               Mass
    ------------   -----------------  -----------------  -----------------  -----------------
         O            0.433801824849    -0.551273776119     0.206591191002    15.994914619570
         O           -0.835711075151     1.088978623881    -0.716819808998    15.994914619570
         C            1.639723924849     0.160071623881    -0.186228808998    12.000000000000
         C            1.859874824849     1.198713723881     0.896338891002    12.000000000000
         C            2.735906924849    -0.878634376119    -0.287331808998    12.000000000000
         C           -1.896415075151    -0.881281376119     0.226520191002    12.000000000000
         C           -0.740029075151     0.003920623881    -0.167009808998    12.000000000000
         C           -3.240571075151    -0.200981376119     0.020205191002    12.000000000000
         H            1.465377924849     0.637456623881    -1.154614808998     1.007825032230
         H            2.827240924849     1.754846623881     0.644267191002     1.007825032230
         H            1.082834924849     1.933526623881     0.901688191002     1.007825032230
         H            2.007001924849     0.742229623881     1.850683191002     1.007825032230
         H            3.679873924849    -0.403417376119    -0.568258808998     1.007825032230
         H            2.485639924849    -1.630165376119    -1.039047808998     1.007825032230
         H            2.869752924849    -1.378699376119     0.675137191002     1.007825032230
         H           -1.820335075151    -1.801014376119    -0.365111808998     1.007825032230
         H           -1.749526075151    -1.185065376119     1.267488191002     1.007825032230
         H           -3.370838075151     0.083774623881    -1.025120808998     1.007825032230
         H           -4.055381075151    -0.871335376119     0.305023191002     1.007825032230
         H           -3.311535075151     0.706656623881     0.622457191002     1.007825032230

  Basis Set: AUG-CC-PVTZ
    Blend: AUG-CC-PVTZ
  Basis Set: (AUG-CC-PVTZ AUX)
    Blend: AUG-CC-PVTZ-JKFIT
	 Reference Energy          =    -384.0867311928036543 [Eh]
	 Singles Energy            =      -0.0000000000000000 [Eh]
	 Same-Spin Energy          =      -0.3840726785061908 [Eh]
	 Opposite-Spin Energy      =      -1.2862579200701989 [Eh]
	 Correlation Energy        =      -1.6703305985763897 [Eh]
	 Total Energy              =    -385.7570617913800675 [Eh]

	 ================> DF-SCS-MP2 Energies <==================
	-----------------------------------------------------------
	 SCS Same-Spin Scale       =       0.3333333333333333 [-]
	 SCS Opposite-Spin Scale   =       1.2000000000000000 [-]
	 SCS Same-Spin Energy      =      -0.1280242261687302 [Eh]
	 SCS Opposite-Spin Energy  =      -1.5435095040842386 [Eh]
	 SCS Correlation Energy    =      -1.6715337302529689 [Eh]
	 SCS Total Energy          =    -385.7582649230566290 [Eh]
	-----------------------------------------------------------

  Dipole Moment: [D]
     X:     0.8598      Y:    -1.4051      Z:     0.6426     Total:     1.7682

*** Psi4 exiting successfully. Buy a developer a beer!
