                               Psi4 1.3.2 release

  ==> Input File <==

--------------------------------------------------------------------------
#psi4
#
memory 32 gb

molecule  {
0 1
  O        0.4307961    -0.5635172     0.1942712
  O       -0.8408100     1.0912640    -0.7084360
  C        1.6346250     0.1623570    -0.1778450
  C        1.8764408     1.2093235     0.8920068
  C        2.7308080    -0.8763490    -0.2789480
  C       -1.9015140    -0.8789960     0.2349040
  C       -0.7451280     0.0062060    -0.1586260
  C       -3.2456700    -0.1986960     0.0285890
  H        1.4602790     0.6397420    -1.1462310
  H        2.8221420     1.7571320     0.6526510
  H        1.0777360     1.9358120     0.9100720
  H        2.0019030     0.7445150     1.8590670
  H        3.6747750    -0.4011320    -0.5598750
  H        2.4805410    -1.6278800    -1.0306640
  H        2.8646540    -1.3764140     0.6835210
  H       -1.8254340    -1.7987290    -0.3567280
  H       -1.7546250    -1.1827800     1.2758720
  H       -3.3759370     0.0860600    -1.0167370
  H       -4.0604800    -0.8690500     0.3134070
  H       -3.3166340     0.7089420     0.6308410
units angstrom
no_reorient  #important for SAPT in psi4, default
symmetry c1  #important for SAPT in psi4, default
}

set PROPERTIES_ORIGIN ["COM"]
properties('MP2/aug-cc-pvtz', properties = ['dipole'])
--------------------------------------------------------------------------

    Molecular point group: c1
  Charge       = 0
  Multiplicity = 1
  Basis Set: AUG-CC-PVTZ
    Blend: AUG-CC-PVTZ
  Basis Set: (AUG-CC-PVTZ AUX)
    Blend: AUG-CC-PVTZ-JKFIT

    Orbital Energies [Eh]
    ---------------------

    Doubly Occupied:

       1A    -20.594489     2A    -20.539928     3A    -11.376379
       4A    -11.290035     5A    -11.242370     6A    -11.221642
       7A    -11.218405     8A    -11.215863     9A     -1.448607
      10A     -1.349404    11A     -1.080540    12A     -1.044591
      13A     -0.945231    14A     -0.902994    15A     -0.816008
      16A     -0.761566    17A     -0.697981    18A     -0.666158
      19A     -0.656505    20A     -0.620842    21A     -0.603263
      22A     -0.573336    23A     -0.557163    24A     -0.551974
      25A     -0.534149    26A     -0.519783    27A     -0.509711
      28A     -0.505046    29A     -0.494761    30A     -0.482617
      31A     -0.449256    32A     -0.439951

  @DF-RHF Final Energy:  -384.08940410557648

   => Energetics <=

    Nuclear Repulsion Energy =            396.6327958036069958
    One-Electron Energy =               -1309.6232955681157364
    Two-Electron Energy =                 528.9010956589322632
    Total Energy =                       -384.0894041055764774
  Basis Set: (AUG-CC-PVTZ AUX)
    Blend: AUG-CC-PVTZ-RI
    Molecular point group: c1

    Geometry (in Angstrom), charge = 0, multiplicity = 1:

       Center              X                  Y                   Z               Mass
    ------------   -----------------  -----------------  -----------------  -----------------
         O            0.433367027547    -0.564661209315     0.190054609912    15.994914619570
         O           -0.838239072453     1.090119990685    -0.712652590088    15.994914619570
         C            1.637195927547     0.161212990685    -0.182061590088    12.000000000000
         C            1.879011727547     1.208179490685     0.887790209912    12.000000000000
         C            2.733378927547    -0.877493009315    -0.283164590088    12.000000000000
         C           -1.898943072453    -0.880140009315     0.230687409912    12.000000000000
         C           -0.742557072453     0.005061990685    -0.162842590088    12.000000000000
         C           -3.243099072453    -0.199840009315     0.024372409912    12.000000000000
         H            1.462849927547     0.638597990685    -1.150447590088     1.007825032230
         H            2.824712927547     1.755987990685     0.648434409912     1.007825032230
         H            1.080306927547     1.934667990685     0.905855409912     1.007825032230
         H            2.004473927547     0.743370990685     1.854850409912     1.007825032230
         H            3.677345927547    -0.402276009315    -0.564091590088     1.007825032230
         H            2.483111927547    -1.629024009315    -1.034880590088     1.007825032230
         H            2.867224927547    -1.377558009315     0.679304409912     1.007825032230
         H           -1.822863072453    -1.799873009315    -0.360944590088     1.007825032230
         H           -1.752054072453    -1.183924009315     1.271655409912     1.007825032230
         H           -3.373366072453     0.084915990685    -1.020953590088     1.007825032230
         H           -4.057909072453    -0.870194009315     0.309190409912     1.007825032230
         H           -3.314063072453     0.707797990685     0.626624409912     1.007825032230

  Basis Set: AUG-CC-PVTZ
    Blend: AUG-CC-PVTZ
  Basis Set: (AUG-CC-PVTZ AUX)
    Blend: AUG-CC-PVTZ-JKFIT
	 Reference Energy          =    -384.0894041055764774 [Eh]
	 Singles Energy            =      -0.0000000000000000 [Eh]
	 Same-Spin Energy          =      -0.3840397677912325 [Eh]
	 Opposite-Spin Energy      =      -1.2862001497070168 [Eh]
	 Correlation Energy        =      -1.6702399174982494 [Eh]
	 Total Energy              =    -385.7596440230747135 [Eh]

	 ================> DF-SCS-MP2 Energies <==================
	-----------------------------------------------------------
	 SCS Same-Spin Scale       =       0.3333333333333333 [-]
	 SCS Opposite-Spin Scale   =       1.2000000000000000 [-]
	 SCS Same-Spin Energy      =      -0.1280132559304108 [Eh]
	 SCS Opposite-Spin Energy  =      -1.5434401796484201 [Eh]
	 SCS Correlation Energy    =      -1.6714534355788309 [Eh]
	 SCS Total Energy          =    -385.7608575411553034 [Eh]
	-----------------------------------------------------------

  Dipole Moment: [D]
     X:     0.8437      Y:    -1.3591      Z:     0.6651     Total:     1.7324

*** Psi4 exiting successfully. Buy a developer a beer!
