                               Psi4 1.3.2 release

  ==> Input File <==

--------------------------------------------------------------------------
#psi4
#
memory 32 gb

molecule  {
0 1
  O        0.4332560    -0.5778250     0.1734540
  O       -0.8408100     1.0912640    -0.7084360
  C        1.6417231     0.1530869    -0.1728736
  C        1.8980320     1.2173290     0.8789650
  C        2.7308080    -0.8763490    -0.2789480
  C       -1.9015140    -0.8789960     0.2349040
  C       -0.7509397    -0.0030167    -0.1540124
  C       -3.2456700    -0.1986960     0.0285890
  H        1.4602790     0.6397420    -1.1462310
  H        2.8221420     1.7571320     0.6526510
  H        1.0777360     1.9358120     0.9100720
  H        2.0019030     0.7445150     1.8590670
  H        3.6747750    -0.4011320    -0.5598750
  H        2.4805410    -1.6278800    -1.0306640
  H        2.8646540    -1.3764140     0.6835210
  H       -1.8254340    -1.7987290    -0.3567280
  H       -1.7546250    -1.1827800     1.2758720
  H       -3.3759370     0.0860600    -1.0167370
  H       -4.0604800    -0.8690500     0.3134070
  H       -3.3166340     0.7089420     0.6308410
units angstrom
no_reorient  #important for SAPT in psi4, default
symmetry c1  #important for SAPT in psi4, default
}

set PROPERTIES_ORIGIN ["COM"]
properties('MP2/aug-cc-pvtz', properties = ['dipole'])
--------------------------------------------------------------------------

    Molecular point group: c1
  Charge       = 0
  Multiplicity = 1
  Basis Set: AUG-CC-PVTZ
    Blend: AUG-CC-PVTZ
  Basis Set: (AUG-CC-PVTZ AUX)
    Blend: AUG-CC-PVTZ-JKFIT

    Orbital Energies [Eh]
    ---------------------

    Doubly Occupied:

       1A    -20.594939     2A    -20.539243     3A    -11.378028
       4A    -11.290132     5A    -11.243227     6A    -11.220696
       7A    -11.219195     8A    -11.216157     9A     -1.445477
      10A     -1.344141    11A     -1.082443    12A     -1.046738
      13A     -0.945564    14A     -0.905366    15A     -0.815974
      16A     -0.758626    17A     -0.697720    18A     -0.665710
      19A     -0.655719    20A     -0.621938    21A     -0.603098
      22A     -0.572192    23A     -0.558407    24A     -0.548600
      25A     -0.536935    26A     -0.520059    27A     -0.511099
      28A     -0.505940    29A     -0.494383    30A     -0.477899
      31A     -0.449551    32A     -0.439827

  @DF-RHF Final Energy:  -384.08877890365028

   => Energetics <=

    Nuclear Repulsion Energy =            396.2889268091721533
    One-Electron Energy =               -1308.9453611793101118
    Two-Electron Energy =                 528.5676554664876221
    Total Energy =                       -384.0887789036503364
  Basis Set: (AUG-CC-PVTZ AUX)
    Blend: AUG-CC-PVTZ-RI
    Molecular point group: c1

    Geometry (in Angstrom), charge = 0, multiplicity = 1:

       Center              X                  Y                   Z               Mass
    ------------   -----------------  -----------------  -----------------  -----------------
         O            0.433123042244    -0.575913459321     0.172463106897    15.994914619570
         O           -0.840942957756     1.093175540679    -0.709426893103    15.994914619570
         C            1.641590142244     0.154998440679    -0.173864493103    12.000000000000
         C            1.897899042244     1.219240540679     0.877974106897    12.000000000000
         C            2.730675042244    -0.874437459321    -0.279938893103    12.000000000000
         C           -1.901646957756    -0.877084459321     0.233913106897    12.000000000000
         C           -0.751072657756    -0.001105159321    -0.155003293103    12.000000000000
         C           -3.245802957756    -0.196784459321     0.027598106897    12.000000000000
         H            1.460146042244     0.641653540679    -1.147221893103     1.007825032230
         H            2.822009042244     1.759043540679     0.651660106897     1.007825032230
         H            1.077603042244     1.937723540679     0.909081106897     1.007825032230
         H            2.001770042244     0.746426540679     1.858076106897     1.007825032230
         H            3.674642042244    -0.399220459321    -0.560865893103     1.007825032230
         H            2.480408042244    -1.625968459321    -1.031654893103     1.007825032230
         H            2.864521042244    -1.374502459321     0.682530106897     1.007825032230
         H           -1.825566957756    -1.796817459321    -0.357718893103     1.007825032230
         H           -1.754757957756    -1.180868459321     1.274881106897     1.007825032230
         H           -3.376069957756     0.087971540679    -1.017727893103     1.007825032230
         H           -4.060612957756    -0.867138459321     0.312416106897     1.007825032230
         H           -3.316766957756     0.710853540679     0.629850106897     1.007825032230

  Basis Set: AUG-CC-PVTZ
    Blend: AUG-CC-PVTZ
  Basis Set: (AUG-CC-PVTZ AUX)
    Blend: AUG-CC-PVTZ-JKFIT
	 Reference Energy          =    -384.0887789036502795 [Eh]
	 Singles Energy            =      -0.0000000000000000 [Eh]
	 Same-Spin Energy          =      -0.3843679451406665 [Eh]
	 Opposite-Spin Energy      =      -1.2867468668293198 [Eh]
	 Correlation Energy        =      -1.6711148119699863 [Eh]
	 Total Energy              =    -385.7598937156202510 [Eh]

	 ================> DF-SCS-MP2 Energies <==================
	-----------------------------------------------------------
	 SCS Same-Spin Scale       =       0.3333333333333333 [-]
	 SCS Opposite-Spin Scale   =       1.2000000000000000 [-]
	 SCS Same-Spin Energy      =      -0.1281226483802221 [Eh]
	 SCS Opposite-Spin Energy  =      -1.5440962401951837 [Eh]
	 SCS Correlation Energy    =      -1.6722188885754057 [Eh]
	 SCS Total Energy          =    -385.7609977922256803 [Eh]
	-----------------------------------------------------------

  Dipole Moment: [D]
     X:     0.8074      Y:    -1.3787      Z:     0.7108     Total:     1.7487

*** Psi4 exiting successfully. Buy a developer a beer!
