                               Psi4 1.3.2 release

  ==> Input File <==

--------------------------------------------------------------------------
#psi4
#
memory 32 gb

molecule  {
0 1
  O        0.4443864    -0.5852140     0.1950325
  O       -0.8408100     1.0912640    -0.7084360
  C        1.6346250     0.1623570    -0.1778450
  C        1.8980320     1.2173290     0.8789650
  C        2.7308080    -0.8763490    -0.2789480
  C       -1.9015140    -0.8789960     0.2349040
  C       -0.7451280     0.0062060    -0.1586260
  C       -3.2456700    -0.1986960     0.0285890
  H        1.4778323     0.6472063    -1.1455235
  H        2.8221420     1.7571320     0.6526510
  H        1.0777360     1.9358120     0.9100720
  H        2.0019030     0.7445150     1.8590670
  H        3.6747750    -0.4011320    -0.5598750
  H        2.4805410    -1.6278800    -1.0306640
  H        2.8646540    -1.3764140     0.6835210
  H       -1.8254340    -1.7987290    -0.3567280
  H       -1.7546250    -1.1827800     1.2758720
  H       -3.3759370     0.0860600    -1.0167370
  H       -4.0604800    -0.8690500     0.3134070
  H       -3.3166340     0.7089420     0.6308410
units angstrom
no_reorient  #important for SAPT in psi4, default
symmetry c1  #important for SAPT in psi4, default
}

set PROPERTIES_ORIGIN ["COM"]
properties('MP2/aug-cc-pvtz', properties = ['dipole'])
--------------------------------------------------------------------------

    Molecular point group: c1
  Charge       = 0
  Multiplicity = 1
  Basis Set: AUG-CC-PVTZ
    Blend: AUG-CC-PVTZ
  Basis Set: (AUG-CC-PVTZ AUX)
    Blend: AUG-CC-PVTZ-JKFIT

    Orbital Energies [Eh]
    ---------------------

    Doubly Occupied:

       1A    -20.595374     2A    -20.544561     3A    -11.379697
       4A    -11.288428     5A    -11.243544     6A    -11.219529
       7A    -11.219320     8A    -11.215154     9A     -1.443039
      10A     -1.350945    11A     -1.079109    12A     -1.044599
      13A     -0.943888    14A     -0.902797    15A     -0.812560
      16A     -0.760818    17A     -0.698826    18A     -0.665231
      19A     -0.655730    20A     -0.619718    21A     -0.603189
      22A     -0.573123    23A     -0.556500    24A     -0.548115
      25A     -0.536458    26A     -0.520779    27A     -0.510830
      28A     -0.506176    29A     -0.495486    30A     -0.480269
      31A     -0.451239    32A     -0.440516

  @DF-RHF Final Energy:  -384.08815581255823

   => Energetics <=

    Nuclear Repulsion Energy =            395.9647875163233834
    One-Electron Energy =               -1308.2947879593980360
    Two-Electron Energy =                 528.2418446305163116
    Total Energy =                       -384.0881558125582842
  Basis Set: (AUG-CC-PVTZ AUX)
    Blend: AUG-CC-PVTZ-RI
    Molecular point group: c1

    Geometry (in Angstrom), charge = 0, multiplicity = 1:

       Center              X                  Y                   Z               Mass
    ------------   -----------------  -----------------  -----------------  -----------------
         O            0.442700393825    -0.584260818297     0.192053048276    15.994914619570
         O           -0.842496006175     1.092217181703    -0.711415451724    15.994914619570
         C            1.632938993825     0.163310181703    -0.180824451724    12.000000000000
         C            1.896345993825     1.218282181703     0.875985548276    12.000000000000
         C            2.729121993825    -0.875395818297    -0.281927451724    12.000000000000
         C           -1.903200006175    -0.878042818297     0.231924548276    12.000000000000
         C           -0.746814006175     0.007159181703    -0.161605451724    12.000000000000
         C           -3.247356006175    -0.197742818297     0.025609548276    12.000000000000
         H            1.476146293825     0.648159481703    -1.148502951724     1.007825032230
         H            2.820455993825     1.758085181703     0.649671548276     1.007825032230
         H            1.076049993825     1.936765181703     0.907092548276     1.007825032230
         H            2.000216993825     0.745468181703     1.856087548276     1.007825032230
         H            3.673088993825    -0.400178818297    -0.562854451724     1.007825032230
         H            2.478854993825    -1.626926818297    -1.033643451724     1.007825032230
         H            2.862967993825    -1.375460818297     0.680541548276     1.007825032230
         H           -1.827120006175    -1.797775818297    -0.359707451724     1.007825032230
         H           -1.756311006175    -1.181826818297     1.272892548276     1.007825032230
         H           -3.377623006175     0.087013181703    -1.019716451724     1.007825032230
         H           -4.062166006175    -0.868096818297     0.310427548276     1.007825032230
         H           -3.318320006175     0.709895181703     0.627861548276     1.007825032230

  Basis Set: AUG-CC-PVTZ
    Blend: AUG-CC-PVTZ
  Basis Set: (AUG-CC-PVTZ AUX)
    Blend: AUG-CC-PVTZ-JKFIT
	 Reference Energy          =    -384.0881558125582274 [Eh]
	 Singles Energy            =      -0.0000000000000000 [Eh]
	 Same-Spin Energy          =      -0.3843707682073400 [Eh]
	 Opposite-Spin Energy      =      -1.2871851596976780 [Eh]
	 Correlation Energy        =      -1.6715559279050178 [Eh]
	 Total Energy              =    -385.7597117404632172 [Eh]

	 ================> DF-SCS-MP2 Energies <==================
	-----------------------------------------------------------
	 SCS Same-Spin Scale       =       0.3333333333333333 [-]
	 SCS Opposite-Spin Scale   =       1.2000000000000000 [-]
	 SCS Same-Spin Energy      =      -0.1281235894024466 [Eh]
	 SCS Opposite-Spin Energy  =      -1.5446221916372136 [Eh]
	 SCS Correlation Energy    =      -1.6727457810396602 [Eh]
	 SCS Total Energy          =    -385.7609015935979073 [Eh]
	-----------------------------------------------------------

  Dipole Moment: [D]
     X:     0.6979      Y:    -1.2773      Z:     0.6334     Total:     1.5874

*** Psi4 exiting successfully. Buy a developer a beer!
