                               Psi4 1.4a3.dev225

  ==> Input File <==

--------------------------------------------------------------------------
#psi4
#
memory 32 gb

molecule  {
0 1
  O        0.3891610    -0.5692390     0.2103150
  O       -0.8187590     1.0859660    -0.7901910
  C        1.6201550     0.0566620    -0.2576010
  C        1.9966600     1.1837410     0.6861130
  C        2.6439510    -1.0589150    -0.3056920
  C       -1.9560750    -0.6909180     0.4160040
  C       -0.7488403     0.0692040    -0.1382660
  C       -3.2763650    -0.0323590     0.0421060
  H        1.4292650     0.4552490    -1.2581690
  H        2.9411400     1.6393830     0.3731600
  H        1.2237650     1.9545110     0.6843630
  H        2.1165080     0.7943580     1.7011000
  H        3.6013200    -0.6740400    -0.6688000
  H        2.3119000    -1.8571380    -0.9736080
  H        2.7925020    -1.4784670     0.6929400
  H       -1.8998650    -1.7205910     0.0458690
  H       -1.8337900    -0.7582950     1.5029030
  H       -3.3906490     0.0180570    -1.0424220
  H       -4.1145290    -0.5997430     0.4548680
  H       -3.3230440     0.9880080     0.4273560
units angstrom
no_reorient  #important for SAPT in psi4, default
symmetry c1  #important for SAPT in psi4, default
}

set PROPERTIES_ORIGIN ["COM"]
properties('MP2/aug-cc-pvtz', properties = ['dipole'])
--------------------------------------------------------------------------

    Molecular point group: c1
  Charge       = 0
  Multiplicity = 1
  Basis Set: AUG-CC-PVTZ
    Blend: AUG-CC-PVTZ
  Basis Set: (AUG-CC-PVTZ AUX)
    Blend: AUG-CC-PVTZ-JKFIT

    Orbital Energies [Eh]
    ---------------------

    Doubly Occupied:

       1A    -20.596709     2A    -20.541663     3A    -11.375611
       4A    -11.291056     5A    -11.241552     6A    -11.221833
       7A    -11.217915     8A    -11.217208     9A     -1.451383
      10A     -1.356008    11A     -1.078332    12A     -1.041749
      13A     -0.945617    14A     -0.899596    15A     -0.815120
      16A     -0.762452    17A     -0.697128    18A     -0.668476
      19A     -0.655854    20A     -0.620555    21A     -0.602393
      22A     -0.574649    23A     -0.558348    24A     -0.549490
      25A     -0.537369    26A     -0.519078    27A     -0.509580
      28A     -0.506980    29A     -0.494363    30A     -0.482565
      31A     -0.452565    32A     -0.437659

  @DF-RHF Final Energy:  -384.09065804552569

   => Energetics <=

    Nuclear Repulsion Energy =            396.0683727687874693
    One-Electron Energy =               -1308.4763524204561236
    Two-Electron Energy =                 528.3173216061429684
    Total Energy =                       -384.0906580455257426
  Basis Set: (AUG-CC-PVTZ AUX)
    Blend: AUG-CC-PVTZ-RI
    Molecular point group: c1

    Geometry (in Angstrom), charge = 0, multiplicity = 1:

       Center              X                  Y                   Z               Mass
    ------------   -----------------  -----------------  -----------------  -----------------
         O            0.403362130803    -0.580830489358     0.227615977466    15.994914619570
         O           -0.804557869197     1.074374510642    -0.772890022534    15.994914619570
         C            1.634356130803     0.045070510642    -0.240300022534    12.000000000000
         C            2.010861130803     1.172149510642     0.703413977466    12.000000000000
         C            2.658152130803    -1.070506489358    -0.288391022534    12.000000000000
         C           -1.941873869197    -0.702509489358     0.433304977466    12.000000000000
         C           -0.734639169197     0.057612510642    -0.120965022534    12.000000000000
         C           -3.262163869197    -0.043950489358     0.059406977466    12.000000000000
         H            1.443466130803     0.443657510642    -1.240868022534     1.007825032230
         H            2.955341130803     1.627791510642     0.390460977466     1.007825032230
         H            1.237966130803     1.942919510642     0.701663977466     1.007825032230
         H            2.130709130803     0.782766510642     1.718400977466     1.007825032230
         H            3.615521130803    -0.685631489358    -0.651499022534     1.007825032230
         H            2.326101130803    -1.868729489358    -0.956307022534     1.007825032230
         H            2.806703130803    -1.490058489358     0.710240977466     1.007825032230
         H           -1.885663869197    -1.732182489358     0.063169977466     1.007825032230
         H           -1.819588869197    -0.769886489358     1.520203977466     1.007825032230
         H           -3.376447869197     0.006465510642    -1.025121022534     1.007825032230
         H           -4.100327869197    -0.611334489358     0.472168977466     1.007825032230
         H           -3.308842869197     0.976416510642     0.444656977466     1.007825032230

  Basis Set: AUG-CC-PVTZ
    Blend: AUG-CC-PVTZ
  Basis Set: (AUG-CC-PVTZ AUX)
    Blend: AUG-CC-PVTZ-JKFIT
	 Reference Energy          =    -384.0906580455256858 [Eh]
	 Singles Energy            =      -0.0000000000000000 [Eh]
	 Same-Spin Energy          =      -0.3836750361212058 [Eh]
	 Opposite-Spin Energy      =      -1.2857934673821414 [Eh]
	 Correlation Energy        =      -1.6694685035033472 [Eh]
	 Total Energy              =    -385.7601265490290530 [Eh]

	 ================> DF-SCS-MP2 Energies <==================
	-----------------------------------------------------------
	 SCS Same-Spin Scale       =       0.3333333333333333 [-]
	 SCS Opposite-Spin Scale   =       1.2000000000000000 [-]
	 SCS Same-Spin Energy      =      -0.1278916787070686 [Eh]
	 SCS Opposite-Spin Energy  =      -1.5429521608585697 [Eh]
	 SCS Correlation Energy    =      -1.6708438395656382 [Eh]
	 SCS Total Energy          =    -385.7615018850913202 [Eh]
	-----------------------------------------------------------

  Dipole Moment: [D]
     X:     0.8945      Y:    -1.2157      Z:     0.7812     Total:     1.6995

*** Psi4 exiting successfully. Buy a developer a beer!
