                               Psi4 1.3.2 release

  ==> Input File <==

--------------------------------------------------------------------------
#psi4
#
memory 32 gb

molecule  {
0 1
  O        0.4667222    -0.5211661     0.1467523
  O       -0.8408100     1.0912640    -0.7084360
  C        1.6346250     0.1623570    -0.1778450
  C        1.8980320     1.2173290     0.8789650
  C        2.7308080    -0.8763490    -0.2789480
  C       -1.9505601    -0.8242264     0.2060554
  C       -0.7451280     0.0062060    -0.1586260
  C       -3.2456700    -0.1986960     0.0285890
  H        1.4602790     0.6397420    -1.1462310
  H        2.8221420     1.7571320     0.6526510
  H        1.0777360     1.9358120     0.9100720
  H        2.0019030     0.7445150     1.8590670
  H        3.6747750    -0.4011320    -0.5598750
  H        2.4805410    -1.6278800    -1.0306640
  H        2.8646540    -1.3764140     0.6835210
  H       -1.8254340    -1.7987290    -0.3567280
  H       -1.7546250    -1.1827800     1.2758720
  H       -3.3759370     0.0860600    -1.0167370
  H       -4.0604800    -0.8690500     0.3134070
  H       -3.3166340     0.7089420     0.6308410
units angstrom
no_reorient  #important for SAPT in psi4, default
symmetry c1  #important for SAPT in psi4, default
}

set PROPERTIES_ORIGIN ["COM"]
properties('MP2/aug-cc-pvtz', properties = ['dipole'])
--------------------------------------------------------------------------

    Molecular point group: c1
  Charge       = 0
  Multiplicity = 1
  Basis Set: AUG-CC-PVTZ
    Blend: AUG-CC-PVTZ
  Basis Set: (AUG-CC-PVTZ AUX)
    Blend: AUG-CC-PVTZ-JKFIT

    Orbital Energies [Eh]
    ---------------------

    Doubly Occupied:

       1A    -20.593671     2A    -20.537621     3A    -11.379486
       4A    -11.283851     5A    -11.252668     6A    -11.219039
       7A    -11.218705     8A    -11.212494     9A     -1.459156
      10A     -1.353483    11A     -1.085081    12A     -1.053741
      13A     -0.943376    14A     -0.910782    15A     -0.823691
      16A     -0.760324    17A     -0.701223    18A     -0.669804
      19A     -0.656822    20A     -0.622543    21A     -0.606910
      22A     -0.571106    23A     -0.569446    24A     -0.547581
      25A     -0.542009    26A     -0.526960    27A     -0.515341
      28A     -0.506322    29A     -0.481682    30A     -0.471786
      31A     -0.445558    32A     -0.436740

  @DF-RHF Final Energy:  -384.08105952705358

   => Energetics <=

    Nuclear Repulsion Energy =            397.9685232463071429
    One-Electron Energy =               -1312.1811573592292461
    Two-Electron Energy =                 530.1315745858685204
    Total Energy =                       -384.0810595270536396
  Basis Set: (AUG-CC-PVTZ AUX)
    Blend: AUG-CC-PVTZ-RI
    Molecular point group: c1

    Geometry (in Angstrom), charge = 0, multiplicity = 1:

       Center              X                  Y                   Z               Mass
    ------------   -----------------  -----------------  -----------------  -----------------
         O            0.467181064962    -0.534634863466     0.153413595662    15.994914619570
         O           -0.840351135038     1.077795236534    -0.701774704338    15.994914619570
         C            1.635083864962     0.148888236534    -0.171183704338    12.000000000000
         C            1.898490864962     1.203860236534     0.885626295662    12.000000000000
         C            2.731266864962    -0.889817763466    -0.272286704338    12.000000000000
         C           -1.950101235038    -0.837695163466     0.212716695662    12.000000000000
         C           -0.744669135038    -0.007262763466    -0.151964704338    12.000000000000
         C           -3.245211135038    -0.212164763466     0.035250295662    12.000000000000
         H            1.460737864962     0.626273236534    -1.139569704338     1.007825032230
         H            2.822600864962     1.743663236534     0.659312295662     1.007825032230
         H            1.078194864962     1.922343236534     0.916733295662     1.007825032230
         H            2.002361864962     0.731046236534     1.865728295662     1.007825032230
         H            3.675233864962    -0.414600763466    -0.553213704338     1.007825032230
         H            2.480999864962    -1.641348763466    -1.024002704338     1.007825032230
         H            2.865112864962    -1.389882763466     0.690182295662     1.007825032230
         H           -1.824975135038    -1.812197763466    -0.350066704338     1.007825032230
         H           -1.754166135038    -1.196248763466     1.282533295662     1.007825032230
         H           -3.375478135038     0.072591236534    -1.010075704338     1.007825032230
         H           -4.060021135038    -0.882518763466     0.320068295662     1.007825032230
         H           -3.316175135038     0.695473236534     0.637502295662     1.007825032230

  Basis Set: AUG-CC-PVTZ
    Blend: AUG-CC-PVTZ
  Basis Set: (AUG-CC-PVTZ AUX)
    Blend: AUG-CC-PVTZ-JKFIT
	 Reference Energy          =    -384.0810595270535828 [Eh]
	 Singles Energy            =      -0.0000000000000000 [Eh]
	 Same-Spin Energy          =      -0.3843221889833165 [Eh]
	 Opposite-Spin Energy      =      -1.2852652103490312 [Eh]
	 Correlation Energy        =      -1.6695873993323476 [Eh]
	 Total Energy              =    -385.7506469263859117 [Eh]

	 ================> DF-SCS-MP2 Energies <==================
	-----------------------------------------------------------
	 SCS Same-Spin Scale       =       0.3333333333333333 [-]
	 SCS Opposite-Spin Scale   =       1.2000000000000000 [-]
	 SCS Same-Spin Energy      =      -0.1281073963277722 [Eh]
	 SCS Opposite-Spin Energy  =      -1.5423182524188375 [Eh]
	 SCS Correlation Energy    =      -1.6704256487466096 [Eh]
	 SCS Total Energy          =    -385.7514851758002123 [Eh]
	-----------------------------------------------------------

  Dipole Moment: [D]
     X:     0.4899      Y:    -1.4635      Z:     0.7277     Total:     1.7063

*** Psi4 exiting successfully. Buy a developer a beer!
