                               Psi4 1.3.2 release

  ==> Input File <==

--------------------------------------------------------------------------
#psi4
#
memory 32 gb

molecule  {
0 1
  O        0.4677315    -0.5993066     0.2378424
  O       -0.8408100     1.0912640    -0.7084360
  C        1.6346250     0.1623570    -0.1778450
  C        1.8980320     1.2173290     0.8789650
  C        2.7308080    -0.8763490    -0.2789480
  C       -1.9015140    -0.8789960     0.2349040
  C       -0.7451280     0.0062060    -0.1586260
  C       -3.2456700    -0.1986960     0.0285890
  H        1.5130767     0.6616895    -1.1432244
  H        2.8221420     1.7571320     0.6526510
  H        1.0777360     1.9358120     0.9100720
  H        2.0019030     0.7445150     1.8590670
  H        3.6747750    -0.4011320    -0.5598750
  H        2.4805410    -1.6278800    -1.0306640
  H        2.8646540    -1.3764140     0.6835210
  H       -1.8254340    -1.7987290    -0.3567280
  H       -1.7546250    -1.1827800     1.2758720
  H       -3.3759370     0.0860600    -1.0167370
  H       -4.0604800    -0.8690500     0.3134070
  H       -3.3166340     0.7089420     0.6308410
units angstrom
no_reorient  #important for SAPT in psi4, default
symmetry c1  #important for SAPT in psi4, default
}

set PROPERTIES_ORIGIN ["COM"]
properties('MP2/aug-cc-pvtz', properties = ['dipole'])
--------------------------------------------------------------------------

    Molecular point group: c1
  Charge       = 0
  Multiplicity = 1
  Basis Set: AUG-CC-PVTZ
    Blend: AUG-CC-PVTZ
  Basis Set: (AUG-CC-PVTZ AUX)
    Blend: AUG-CC-PVTZ-JKFIT

    Orbital Energies [Eh]
    ---------------------

    Doubly Occupied:

       1A    -20.595383     2A    -20.552041     3A    -11.385118
       4A    -11.286056     5A    -11.245561     6A    -11.220880
       7A    -11.217073     8A    -11.212859     9A     -1.434732
      10A     -1.352330    11A     -1.076962    12A     -1.043898
      13A     -0.942013    14A     -0.902343    15A     -0.806518
      16A     -0.760858    17A     -0.700225    18A     -0.663237
      19A     -0.654210    20A     -0.617604    21A     -0.603063
      22A     -0.573395    23A     -0.554506    24A     -0.546563
      25A     -0.535431    26A     -0.522496    27A     -0.511926
      28A     -0.506577    29A     -0.497178    30A     -0.479151
      31A     -0.450841    32A     -0.441617

  @DF-RHF Final Energy:  -384.08157274479561

   => Energetics <=

    Nuclear Repulsion Energy =            395.1532605133460265
    One-Electron Energy =               -1306.6843798220822919
    Two-Electron Energy =                 527.4495465639406575
    Total Energy =                       -384.0815727447956078
  Basis Set: (AUG-CC-PVTZ AUX)
    Blend: AUG-CC-PVTZ-RI
    Molecular point group: c1

    Geometry (in Angstrom), charge = 0, multiplicity = 1:

       Center              X                  Y                   Z               Mass
    ------------   -----------------  -----------------  -----------------  -----------------
         O            0.462522837625    -0.596537372216     0.228944308444    15.994914619570
         O           -0.846018662375     1.094033227784    -0.717334091556    15.994914619570
         C            1.629416337625     0.165126227784    -0.186743091556    12.000000000000
         C            1.892823337625     1.220098227784     0.870066908444    12.000000000000
         C            2.725599337625    -0.873579772216    -0.287846091556    12.000000000000
         C           -1.906722662375    -0.876226772216     0.226005908444    12.000000000000
         C           -0.750336662375     0.008975227784    -0.167524091556    12.000000000000
         C           -3.250878662375    -0.195926772216     0.019690908444    12.000000000000
         H            1.507868037625     0.664458727784    -1.152122491556     1.007825032230
         H            2.816933337625     1.759901227784     0.643752908444     1.007825032230
         H            1.072527337625     1.938581227784     0.901173908444     1.007825032230
         H            1.996694337625     0.747284227784     1.850168908444     1.007825032230
         H            3.669566337625    -0.398362772216    -0.568773091556     1.007825032230
         H            2.475332337625    -1.625110772216    -1.039562091556     1.007825032230
         H            2.859445337625    -1.373644772216     0.674622908444     1.007825032230
         H           -1.830642662375    -1.795959772216    -0.365626091556     1.007825032230
         H           -1.759833662375    -1.180010772216     1.266973908444     1.007825032230
         H           -3.381145662375     0.088829227784    -1.025635091556     1.007825032230
         H           -4.065688662375    -0.866280772216     0.304508908444     1.007825032230
         H           -3.321842662375     0.711711227784     0.621942908444     1.007825032230

  Basis Set: AUG-CC-PVTZ
    Blend: AUG-CC-PVTZ
  Basis Set: (AUG-CC-PVTZ AUX)
    Blend: AUG-CC-PVTZ-JKFIT
	 Reference Energy          =    -384.0815727447956078 [Eh]
	 Singles Energy            =      -0.0000000000000000 [Eh]
	 Same-Spin Energy          =      -0.3850936322509445 [Eh]
	 Opposite-Spin Energy      =      -1.2891981158004140 [Eh]
	 Correlation Energy        =      -1.6742917480513584 [Eh]
	 Total Energy              =    -385.7558644928469676 [Eh]

	 ================> DF-SCS-MP2 Energies <==================
	-----------------------------------------------------------
	 SCS Same-Spin Scale       =       0.3333333333333333 [-]
	 SCS Opposite-Spin Scale   =       1.2000000000000000 [-]
	 SCS Same-Spin Energy      =      -0.1283645440836482 [Eh]
	 SCS Opposite-Spin Energy  =      -1.5470377389604968 [Eh]
	 SCS Correlation Energy    =      -1.6754022830441451 [Eh]
	 SCS Total Energy          =    -385.7569750278397578 [Eh]
	-----------------------------------------------------------

  Dipole Moment: [D]
     X:     0.4501      Y:    -1.2035      Z:     0.5292     Total:     1.3897

*** Psi4 exiting successfully. Buy a developer a beer!
