                               Psi4 1.3.2 release

  ==> Input File <==

--------------------------------------------------------------------------
#psi4
#
memory 32 gb

molecule  {
0 1
  O        0.4559315    -0.5402208     0.1557495
  O       -0.8408100     1.0912640    -0.7084360
  C        1.6346250     0.1623570    -0.1778450
  C        1.8980320     1.2173290     0.8789650
  C        2.7308080    -0.8763490    -0.2789480
  C       -1.9345721    -0.8427434     0.2157866
  C       -0.7451280     0.0062060    -0.1586260
  C       -3.2456700    -0.1986960     0.0285890
  H        1.4602790     0.6397420    -1.1462310
  H        2.8221420     1.7571320     0.6526510
  H        1.0777360     1.9358120     0.9100720
  H        2.0019030     0.7445150     1.8590670
  H        3.6747750    -0.4011320    -0.5598750
  H        2.4805410    -1.6278800    -1.0306640
  H        2.8646540    -1.3764140     0.6835210
  H       -1.8254340    -1.7987290    -0.3567280
  H       -1.7546250    -1.1827800     1.2758720
  H       -3.3759370     0.0860600    -1.0167370
  H       -4.0604800    -0.8690500     0.3134070
  H       -3.3166340     0.7089420     0.6308410
units angstrom
no_reorient  #important for SAPT in psi4, default
symmetry c1  #important for SAPT in psi4, default
}

set PROPERTIES_ORIGIN ["COM"]
properties('MP2/aug-cc-pvtz', properties = ['dipole'])
--------------------------------------------------------------------------

    Molecular point group: c1
  Charge       = 0
  Multiplicity = 1
  Basis Set: AUG-CC-PVTZ
    Blend: AUG-CC-PVTZ
  Basis Set: (AUG-CC-PVTZ AUX)
    Blend: AUG-CC-PVTZ-JKFIT

    Orbital Energies [Eh]
    ---------------------

    Doubly Occupied:

       1A    -20.594279     2A    -20.538654     3A    -11.378494
       4A    -11.285727     5A    -11.249110     6A    -11.219384
       7A    -11.218919     8A    -11.213762     9A     -1.455110
      10A     -1.352157    11A     -1.082954    12A     -1.050957
      13A     -0.943834    14A     -0.908197    15A     -0.820795
      16A     -0.760378    17A     -0.700301    18A     -0.668483
      19A     -0.656576    20A     -0.621718    21A     -0.605453
      22A     -0.571345    23A     -0.564654    24A     -0.547811
      25A     -0.539873    26A     -0.525197    27A     -0.515292
      28A     -0.506263    29A     -0.486260    30A     -0.475040
      31A     -0.447420    32A     -0.438033

  @DF-RHF Final Energy:  -384.08675583592185

   => Energetics <=

    Nuclear Repulsion Energy =            397.4202923961394731
    One-Electron Energy =               -1311.1292410264361479
    Two-Electron Energy =                 529.6221927943747687
    Total Energy =                       -384.0867558359218492
  Basis Set: (AUG-CC-PVTZ AUX)
    Blend: AUG-CC-PVTZ-RI
    Molecular point group: c1

    Geometry (in Angstrom), charge = 0, multiplicity = 1:

       Center              X                  Y                   Z               Mass
    ------------   -----------------  -----------------  -----------------  -----------------
         O            0.456224453039    -0.549149889376     0.160165142058    15.994914619570
         O           -0.840517046961     1.082334910624    -0.704020357942    15.994914619570
         C            1.634917953039     0.153427910624    -0.173429357942    12.000000000000
         C            1.898324953039     1.208399910624     0.883380642058    12.000000000000
         C            2.731100953039    -0.885278089376    -0.274532357942    12.000000000000
         C           -1.934279146961    -0.851672489376     0.220202242058    12.000000000000
         C           -0.744835046961    -0.002723089376    -0.154210357942    12.000000000000
         C           -3.245377046961    -0.207625089376     0.033004642058    12.000000000000
         H            1.460571953039     0.630812910624    -1.141815357942     1.007825032230
         H            2.822434953039     1.748202910624     0.657066642058     1.007825032230
         H            1.078028953039     1.926882910624     0.914487642058     1.007825032230
         H            2.002195953039     0.735585910624     1.863482642058     1.007825032230
         H            3.675067953039    -0.410061089376    -0.555459357942     1.007825032230
         H            2.480833953039    -1.636809089376    -1.026248357942     1.007825032230
         H            2.864946953039    -1.385343089376     0.687936642058     1.007825032230
         H           -1.825141046961    -1.807658089376    -0.352312357942     1.007825032230
         H           -1.754332046961    -1.191709089376     1.280287642058     1.007825032230
         H           -3.375644046961     0.077130910624    -1.012321357942     1.007825032230
         H           -4.060187046961    -0.877979089376     0.317822642058     1.007825032230
         H           -3.316341046961     0.700012910624     0.635256642058     1.007825032230

  Basis Set: AUG-CC-PVTZ
    Blend: AUG-CC-PVTZ
  Basis Set: (AUG-CC-PVTZ AUX)
    Blend: AUG-CC-PVTZ-JKFIT
	 Reference Energy          =    -384.0867558359218492 [Eh]
	 Singles Energy            =      -0.0000000000000000 [Eh]
	 Same-Spin Energy          =      -0.3841396686152508 [Eh]
	 Opposite-Spin Energy      =      -1.2854216561090219 [Eh]
	 Correlation Energy        =      -1.6695613247242727 [Eh]
	 Total Energy              =    -385.7563171606461196 [Eh]

	 ================> DF-SCS-MP2 Energies <==================
	-----------------------------------------------------------
	 SCS Same-Spin Scale       =       0.3333333333333333 [-]
	 SCS Opposite-Spin Scale   =       1.2000000000000000 [-]
	 SCS Same-Spin Energy      =      -0.1280465562050836 [Eh]
	 SCS Opposite-Spin Energy  =      -1.5425059873308262 [Eh]
	 SCS Correlation Energy    =      -1.6705525435359099 [Eh]
	 SCS Total Energy          =    -385.7573083794577542 [Eh]
	-----------------------------------------------------------

  Dipole Moment: [D]
     X:     0.6012      Y:    -1.4144      Z:     0.7138     Total:     1.6945

*** Psi4 exiting successfully. Buy a developer a beer!
