                               Psi4 1.3.2 release

  ==> Input File <==

--------------------------------------------------------------------------
#psi4
#
memory 32 gb

molecule  {
0 1
  O        0.4332560    -0.5778250     0.1734540
  O       -0.8408100     1.0912640    -0.7084360
  C        1.6346250     0.1623570    -0.1778450
  C        1.8980320     1.2173290     0.8789650
  C        2.7308080    -0.8763490    -0.2789480
  C       -1.9015140    -0.8789960     0.2349040
  C       -0.8984405    -0.1111532    -0.1064522
  C       -3.2456700    -0.1986960     0.0285890
  H        1.4602790     0.6397420    -1.1462310
  H        2.8221420     1.7571320     0.6526510
  H        1.0777360     1.9358120     0.9100720
  H        2.0019030     0.7445150     1.8590670
  H        3.6747750    -0.4011320    -0.5598750
  H        2.4805410    -1.6278800    -1.0306640
  H        2.8646540    -1.3764140     0.6835210
  H       -1.8254340    -1.7987290    -0.3567280
  H       -1.7546250    -1.1827800     1.2758720
  H       -3.3759370     0.0860600    -1.0167370
  H       -4.0604800    -0.8690500     0.3134070
  H       -3.3166340     0.7089420     0.6308410
units angstrom
no_reorient  #important for SAPT in psi4, default
symmetry c1  #important for SAPT in psi4, default
}

set PROPERTIES_ORIGIN ["COM"]
properties('MP2/aug-cc-pvtz', properties = ['dipole'])
--------------------------------------------------------------------------

    Molecular point group: c1
  Charge       = 0
  Multiplicity = 1
  Basis Set: AUG-CC-PVTZ
    Blend: AUG-CC-PVTZ
  Basis Set: (AUG-CC-PVTZ AUX)
    Blend: AUG-CC-PVTZ-JKFIT

    Orbital Energies [Eh]
    ---------------------

    Doubly Occupied:

       1A    -20.578801     2A    -20.532127     3A    -11.394967
       4A    -11.282113     5A    -11.251028     6A    -11.234320
       7A    -11.214627     8A    -11.207535     9A     -1.398891
      10A     -1.281085    11A     -1.128328    12A     -1.047970
      13A     -0.938048    14A     -0.935807    15A     -0.809316
      16A     -0.746260    17A     -0.710022    18A     -0.674705
      19A     -0.637114    20A     -0.620306    21A     -0.593542
      22A     -0.570545    23A     -0.550131    24A     -0.541076
      25A     -0.535377    26A     -0.523706    27A     -0.517767
      28A     -0.505776    29A     -0.477385    30A     -0.461908
      31A     -0.433922    32A     -0.422114

  @DF-RHF Final Energy:  -384.01338830874641

   => Energetics <=

    Nuclear Repulsion Energy =            394.9641193444669511
    One-Electron Energy =               -1306.4417741609734094
    Two-Electron Energy =                 527.4642665077600441
    Total Energy =                       -384.0133883087463573
  Basis Set: (AUG-CC-PVTZ AUX)
    Blend: AUG-CC-PVTZ-RI
    Molecular point group: c1

    Geometry (in Angstrom), charge = 0, multiplicity = 1:

       Center              X                  Y                   Z               Mass
    ------------   -----------------  -----------------  -----------------  -----------------
         O            0.449104496372    -0.565693277700     0.168060546765    15.994914619570
         O           -0.824961503628     1.103395722300    -0.713829453235    15.994914619570
         C            1.650473496372     0.174488722300    -0.183238453235    12.000000000000
         C            1.913880496372     1.229460722300     0.873571546765    12.000000000000
         C            2.746656496372    -0.864217277700    -0.284341453235    12.000000000000
         C           -1.885665503628    -0.866864277700     0.229510546765    12.000000000000
         C           -0.882592003628    -0.099021477700    -0.111845653235    12.000000000000
         C           -3.229821503628    -0.186564277700     0.023195546765    12.000000000000
         H            1.476127496372     0.651873722300    -1.151624453235     1.007825032230
         H            2.837990496372     1.769263722300     0.647257546765     1.007825032230
         H            1.093584496372     1.947943722300     0.904678546765     1.007825032230
         H            2.017751496372     0.756646722300     1.853673546765     1.007825032230
         H            3.690623496372    -0.389000277700    -0.565268453235     1.007825032230
         H            2.496389496372    -1.615748277700    -1.036057453235     1.007825032230
         H            2.880502496372    -1.364282277700     0.678127546765     1.007825032230
         H           -1.809585503628    -1.786597277700    -0.362121453235     1.007825032230
         H           -1.738776503628    -1.170648277700     1.270478546765     1.007825032230
         H           -3.360088503628     0.098191722300    -1.022130453235     1.007825032230
         H           -4.044631503628    -0.856918277700     0.308013546765     1.007825032230
         H           -3.300785503628     0.721073722300     0.625447546765     1.007825032230

  Basis Set: AUG-CC-PVTZ
    Blend: AUG-CC-PVTZ
  Basis Set: (AUG-CC-PVTZ AUX)
    Blend: AUG-CC-PVTZ-JKFIT
	 Reference Energy          =    -384.0133883087464142 [Eh]
	 Singles Energy            =      -0.0000000000000000 [Eh]
	 Same-Spin Energy          =      -0.3902794961031837 [Eh]
	 Opposite-Spin Energy      =      -1.2974563647306585 [Eh]
	 Correlation Energy        =      -1.6877358608338422 [Eh]
	 Total Energy              =    -385.7011241695802823 [Eh]

	 ================> DF-SCS-MP2 Energies <==================
	-----------------------------------------------------------
	 SCS Same-Spin Scale       =       0.3333333333333333 [-]
	 SCS Opposite-Spin Scale   =       1.2000000000000000 [-]
	 SCS Same-Spin Energy      =      -0.1300931653677279 [Eh]
	 SCS Opposite-Spin Energy  =      -1.5569476376767901 [Eh]
	 SCS Correlation Energy    =      -1.6870408030445181 [Eh]
	 SCS Total Energy          =    -385.7004291117909247 [Eh]
	-----------------------------------------------------------

  Dipole Moment: [D]
     X:    -0.3182      Y:    -1.8891      Z:     0.8934     Total:     2.1138

*** Psi4 exiting successfully. Buy a developer a beer!
