                               Psi4 1.3.2 release

  ==> Input File <==

--------------------------------------------------------------------------
#psi4
#
memory 32 gb

molecule  {
0 1
  O        0.4332560    -0.5778250     0.1734540
  O       -0.8408100     1.0912640    -0.7084360
  C        1.6346250     0.1623570    -0.1778450
  C        1.8980320     1.2173290     0.8789650
  C        2.7308080    -0.8763490    -0.2789480
  C       -1.9015140    -0.8789960     0.2349040
  C       -0.5713828    -0.0799057    -0.1096629
  C       -3.2456700    -0.1986960     0.0285890
  H        1.4602790     0.6397420    -1.1462310
  H        2.8221420     1.7571320     0.6526510
  H        1.0777360     1.9358120     0.9100720
  H        2.0019030     0.7445150     1.8590670
  H        3.6747750    -0.4011320    -0.5598750
  H        2.4805410    -1.6278800    -1.0306640
  H        2.8646540    -1.3764140     0.6835210
  H       -1.8254340    -1.7987290    -0.3567280
  H       -1.7546250    -1.1827800     1.2758720
  H       -3.3759370     0.0860600    -1.0167370
  H       -4.0604800    -0.8690500     0.3134070
  H       -3.3166340     0.7089420     0.6308410
units angstrom
no_reorient  #important for SAPT in psi4, default
symmetry c1  #important for SAPT in psi4, default
}

set PROPERTIES_ORIGIN ["COM"]
properties('MP2/aug-cc-pvtz', properties = ['dipole'])
--------------------------------------------------------------------------

    Molecular point group: c1
  Charge       = 0
  Multiplicity = 1
  Basis Set: AUG-CC-PVTZ
    Blend: AUG-CC-PVTZ
  Basis Set: (AUG-CC-PVTZ AUX)
    Blend: AUG-CC-PVTZ-JKFIT

    Orbital Energies [Eh]
    ---------------------

    Doubly Occupied:

       1A    -20.643227     2A    -20.499213     3A    -11.372636
       4A    -11.313762     5A    -11.236902     6A    -11.235875
       7A    -11.230221     8A    -11.208643     9A     -1.558726
      10A     -1.270413    11A     -1.109603    12A     -1.029628
      13A     -0.961489    14A     -0.916918    15A     -0.841356
      16A     -0.799042    17A     -0.713435    18A     -0.687494
      19A     -0.661446    20A     -0.625294    21A     -0.600582
      22A     -0.575226    23A     -0.568934    24A     -0.557589
      25A     -0.551054    26A     -0.514497    27A     -0.509277
      28A     -0.504300    29A     -0.485594    30A     -0.475468
      31A     -0.419239    32A     -0.399193

  @DF-RHF Final Energy:  -384.03098138823390

   => Energetics <=

    Nuclear Repulsion Energy =            397.8142965524689316
    One-Electron Energy =               -1311.5380002420017718
    Two-Electron Energy =                 529.6927223012988861
    Total Energy =                       -384.0309813882339540
  Basis Set: (AUG-CC-PVTZ AUX)
    Blend: AUG-CC-PVTZ-RI
    Molecular point group: c1

    Geometry (in Angstrom), charge = 0, multiplicity = 1:

       Center              X                  Y                   Z               Mass
    ------------   -----------------  -----------------  -----------------  -----------------
         O            0.415295344886    -0.568923446141     0.168392448575    15.994914619570
         O           -0.858770655114     1.100165553859    -0.713497551425    15.994914619570
         C            1.616664344886     0.171258553859    -0.182906551425    12.000000000000
         C            1.880071344886     1.226230553859     0.873903448575    12.000000000000
         C            2.712847344886    -0.867447446141    -0.284009551425    12.000000000000
         C           -1.919474655114    -0.870094446141     0.229842448575    12.000000000000
         C           -0.589343455114    -0.071004146141    -0.114724451425    12.000000000000
         C           -3.263630655114    -0.189794446141     0.023527448575    12.000000000000
         H            1.442318344886     0.648643553859    -1.151292551425     1.007825032230
         H            2.804181344886     1.766033553859     0.647589448575     1.007825032230
         H            1.059775344886     1.944713553859     0.905010448575     1.007825032230
         H            1.983942344886     0.753416553859     1.854005448575     1.007825032230
         H            3.656814344886    -0.392230446141    -0.564936551425     1.007825032230
         H            2.462580344886    -1.618978446141    -1.035725551425     1.007825032230
         H            2.846693344886    -1.367512446141     0.678459448575     1.007825032230
         H           -1.843394655114    -1.789827446141    -0.361789551425     1.007825032230
         H           -1.772585655114    -1.173878446141     1.270810448575     1.007825032230
         H           -3.393897655114     0.094961553859    -1.021798551425     1.007825032230
         H           -4.078440655114    -0.860148446141     0.308345448575     1.007825032230
         H           -3.334594655114     0.717843553859     0.625779448575     1.007825032230

  Basis Set: AUG-CC-PVTZ
    Blend: AUG-CC-PVTZ
  Basis Set: (AUG-CC-PVTZ AUX)
    Blend: AUG-CC-PVTZ-JKFIT
	 Reference Energy          =    -384.0309813882338972 [Eh]
	 Singles Energy            =      -0.0000000000000000 [Eh]
	 Same-Spin Energy          =      -0.3847424317692071 [Eh]
	 Opposite-Spin Energy      =      -1.2869577975811048 [Eh]
	 Correlation Energy        =      -1.6717002293503120 [Eh]
	 Total Energy              =    -385.7026816175842328 [Eh]

	 ================> DF-SCS-MP2 Energies <==================
	-----------------------------------------------------------
	 SCS Same-Spin Scale       =       0.3333333333333333 [-]
	 SCS Opposite-Spin Scale   =       1.2000000000000000 [-]
	 SCS Same-Spin Energy      =      -0.1282474772564023 [Eh]
	 SCS Opposite-Spin Energy  =      -1.5443493570973257 [Eh]
	 SCS Correlation Energy    =      -1.6725968343537281 [Eh]
	 SCS Total Energy          =    -385.7035782225876233 [Eh]
	-----------------------------------------------------------

  Dipole Moment: [D]
     X:     2.6189      Y:    -1.8825      Z:     1.1171     Total:     3.4133

*** Psi4 exiting successfully. Buy a developer a beer!
