                               Psi4 1.3.2 release

  ==> Input File <==

--------------------------------------------------------------------------
#psi4
#
memory 32 gb

molecule  {
0 1
  O        0.4332560    -0.5778250     0.1734540
  O       -0.8514129     1.0902864    -0.7084170
  C        1.6346250     0.1623570    -0.1778450
  C        1.8980320     1.2173290     0.8789650
  C        2.7308080    -0.8763490    -0.2789480
  C       -1.9099074    -0.8700902     0.2300523
  C       -0.7451280     0.0062060    -0.1586260
  C       -3.2456700    -0.1986960     0.0285890
  H        1.4602790     0.6397420    -1.1462310
  H        2.8221420     1.7571320     0.6526510
  H        1.0777360     1.9358120     0.9100720
  H        2.0019030     0.7445150     1.8590670
  H        3.6747750    -0.4011320    -0.5598750
  H        2.4805410    -1.6278800    -1.0306640
  H        2.8646540    -1.3764140     0.6835210
  H       -1.8254340    -1.7987290    -0.3567280
  H       -1.7546250    -1.1827800     1.2758720
  H       -3.3759370     0.0860600    -1.0167370
  H       -4.0604800    -0.8690500     0.3134070
  H       -3.3166340     0.7089420     0.6308410
units angstrom
no_reorient  #important for SAPT in psi4, default
symmetry c1  #important for SAPT in psi4, default
}

set PROPERTIES_ORIGIN ["COM"]
properties('MP2/aug-cc-pvtz', properties = ['dipole'])
--------------------------------------------------------------------------

    Molecular point group: c1
  Charge       = 0
  Multiplicity = 1
  Basis Set: AUG-CC-PVTZ
    Blend: AUG-CC-PVTZ
  Basis Set: (AUG-CC-PVTZ AUX)
    Blend: AUG-CC-PVTZ-JKFIT

    Orbital Energies [Eh]
    ---------------------

    Doubly Occupied:

       1A    -20.596131     2A    -20.540493     3A    -11.376873
       4A    -11.290222     5A    -11.242665     6A    -11.221090
       7A    -11.217734     8A    -11.216639     9A     -1.447809
      10A     -1.350390    11A     -1.080643    12A     -1.046023
      13A     -0.945183    14A     -0.903267    15A     -0.815434
      16A     -0.760836    17A     -0.697871    18A     -0.666378
      19A     -0.656237    20A     -0.620711    21A     -0.603153
      22A     -0.573288    23A     -0.558770    24A     -0.549390
      25A     -0.537842    26A     -0.520036    27A     -0.511722
      28A     -0.505908    29A     -0.492676    30A     -0.480388
      31A     -0.451220    32A     -0.439088

  @DF-RHF Final Energy:  -384.08986374261548

   => Energetics <=

    Nuclear Repulsion Energy =            396.3739408840899046
    One-Electron Energy =               -1309.0953933267337561
    Two-Electron Energy =                 528.6315887000282601
    Total Energy =                       -384.0898637426155346
  Basis Set: (AUG-CC-PVTZ AUX)
    Blend: AUG-CC-PVTZ-RI
    Molecular point group: c1

    Geometry (in Angstrom), charge = 0, multiplicity = 1:

       Center              X                  Y                   Z               Mass
    ------------   -----------------  -----------------  -----------------  -----------------
         O            0.435584628214    -0.578611051589     0.173952863447    15.994914619570
         O           -0.849084271786     1.089500348411    -0.707918136553    15.994914619570
         C            1.636953628214     0.161570948411    -0.177346136553    12.000000000000
         C            1.900360628214     1.216542948411     0.879463863447    12.000000000000
         C            2.733136628214    -0.877135051589    -0.278449136553    12.000000000000
         C           -1.907578771786    -0.870876251589     0.230551163447    12.000000000000
         C           -0.742799371786     0.005419948411    -0.158127136553    12.000000000000
         C           -3.243341371786    -0.199482051589     0.029087863447    12.000000000000
         H            1.462607628214     0.638955948411    -1.145732136553     1.007825032230
         H            2.824470628214     1.756345948411     0.653149863447     1.007825032230
         H            1.080064628214     1.935025948411     0.910570863447     1.007825032230
         H            2.004231628214     0.743728948411     1.859565863447     1.007825032230
         H            3.677103628214    -0.401918051589    -0.559376136553     1.007825032230
         H            2.482869628214    -1.628666051589    -1.030165136553     1.007825032230
         H            2.866982628214    -1.377200051589     0.684019863447     1.007825032230
         H           -1.823105371786    -1.799515051589    -0.356229136553     1.007825032230
         H           -1.752296371786    -1.183566051589     1.276370863447     1.007825032230
         H           -3.373608371786     0.085273948411    -1.016238136553     1.007825032230
         H           -4.058151371786    -0.869836051589     0.313905863447     1.007825032230
         H           -3.314305371786     0.708155948411     0.631339863447     1.007825032230

  Basis Set: AUG-CC-PVTZ
    Blend: AUG-CC-PVTZ
  Basis Set: (AUG-CC-PVTZ AUX)
    Blend: AUG-CC-PVTZ-JKFIT
	 Reference Energy          =    -384.0898637426154778 [Eh]
	 Singles Energy            =      -0.0000000000000000 [Eh]
	 Same-Spin Energy          =      -0.3841117102392517 [Eh]
	 Opposite-Spin Energy      =      -1.2863074732346989 [Eh]
	 Correlation Energy        =      -1.6704191834739506 [Eh]
	 Total Energy              =    -385.7602829260894168 [Eh]

	 ================> DF-SCS-MP2 Energies <==================
	-----------------------------------------------------------
	 SCS Same-Spin Scale       =       0.3333333333333333 [-]
	 SCS Opposite-Spin Scale   =       1.2000000000000000 [-]
	 SCS Same-Spin Energy      =      -0.1280372367464172 [Eh]
	 SCS Opposite-Spin Energy  =      -1.5435689678816387 [Eh]
	 SCS Correlation Energy    =      -1.6716062046280560 [Eh]
	 SCS Total Energy          =    -385.7614699472435404 [Eh]
	-----------------------------------------------------------

  Dipole Moment: [D]
     X:     0.8489      Y:    -1.3091      Z:     0.6846     Total:     1.7038

*** Psi4 exiting successfully. Buy a developer a beer!
