                               Psi4 1.3.2 release

  ==> Input File <==

--------------------------------------------------------------------------
#psi4
#
memory 32 gb

molecule  {
0 1
  O        0.4332560    -0.5778250     0.1734540
  O       -0.8408100     1.0912640    -0.7084360
  C        1.6487292     0.1437612    -0.1678759
  C        1.8980320     1.2173290     0.8789650
  C        2.7308080    -0.8763490    -0.2789480
  C       -1.9015140    -0.8789960     0.2349040
  C       -0.7566612    -0.0122832    -0.1493738
  C       -3.2456700    -0.1986960     0.0285890
  H        1.4602790     0.6397420    -1.1462310
  H        2.8221420     1.7571320     0.6526510
  H        1.0777360     1.9358120     0.9100720
  H        2.0019030     0.7445150     1.8590670
  H        3.6747750    -0.4011320    -0.5598750
  H        2.4805410    -1.6278800    -1.0306640
  H        2.8646540    -1.3764140     0.6835210
  H       -1.8254340    -1.7987290    -0.3567280
  H       -1.7546250    -1.1827800     1.2758720
  H       -3.3759370     0.0860600    -1.0167370
  H       -4.0604800    -0.8690500     0.3134070
  H       -3.3166340     0.7089420     0.6308410
units angstrom
no_reorient  #important for SAPT in psi4, default
symmetry c1  #important for SAPT in psi4, default
}

set PROPERTIES_ORIGIN ["COM"]
properties('MP2/aug-cc-pvtz', properties = ['dipole'])
--------------------------------------------------------------------------

    Molecular point group: c1
  Charge       = 0
  Multiplicity = 1
  Basis Set: AUG-CC-PVTZ
    Blend: AUG-CC-PVTZ
  Basis Set: (AUG-CC-PVTZ AUX)
    Blend: AUG-CC-PVTZ-JKFIT

    Orbital Energies [Eh]
    ---------------------

    Doubly Occupied:

       1A    -20.594672     2A    -20.537721     3A    -11.379123
       4A    -11.290671     5A    -11.243814     6A    -11.220634
       7A    -11.219824     8A    -11.216049     9A     -1.443277
      10A     -1.338408    11A     -1.084583    12A     -1.048720
      13A     -0.946280    14A     -0.907499    15A     -0.816355
      16A     -0.756578    17A     -0.697563    18A     -0.665032
      19A     -0.654914    20A     -0.623141    21A     -0.602946
      22A     -0.571503    23A     -0.559188    24A     -0.548321
      25A     -0.536826    26A     -0.520188    27A     -0.512160
      28A     -0.506002    29A     -0.494100    30A     -0.474910
      31A     -0.447979    32A     -0.439542

  @DF-RHF Final Energy:  -384.08650409046015

   => Energetics <=

    Nuclear Repulsion Energy =            396.2072498386254438
    One-Electron Energy =               -1308.7904593995947380
    Two-Electron Energy =                 528.4967054705091414
    Total Energy =                       -384.0865040904601528
  Basis Set: (AUG-CC-PVTZ AUX)
    Blend: AUG-CC-PVTZ-RI
    Molecular point group: c1

    Geometry (in Angstrom), charge = 0, multiplicity = 1:

       Center              X                  Y                   Z               Mass
    ------------   -----------------  -----------------  -----------------  -----------------
         O            0.432990248441    -0.573991515559     0.171466967297    15.994914619570
         O           -0.841075751559     1.095097484441    -0.710423032703    15.994914619570
         C            1.648463448441     0.147594684441    -0.169862932703    12.000000000000
         C            1.897766248441     1.221162484441     0.876977967297    12.000000000000
         C            2.730542248441    -0.872515515559    -0.280935032703    12.000000000000
         C           -1.901779751559    -0.875162515559     0.232916967297    12.000000000000
         C           -0.756926951559    -0.008449715559    -0.151360832703    12.000000000000
         C           -3.245935751559    -0.194862515559     0.026601967297    12.000000000000
         H            1.460013248441     0.643575484441    -1.148218032703     1.007825032230
         H            2.821876248441     1.760965484441     0.650663967297     1.007825032230
         H            1.077470248441     1.939645484441     0.908084967297     1.007825032230
         H            2.001637248441     0.748348484441     1.857079967297     1.007825032230
         H            3.674509248441    -0.397298515559    -0.561862032703     1.007825032230
         H            2.480275248441    -1.624046515559    -1.032651032703     1.007825032230
         H            2.864388248441    -1.372580515559     0.681533967297     1.007825032230
         H           -1.825699751559    -1.794895515559    -0.358715032703     1.007825032230
         H           -1.754890751559    -1.178946515559     1.273884967297     1.007825032230
         H           -3.376202751559     0.089893484441    -1.018724032703     1.007825032230
         H           -4.060745751559    -0.865216515559     0.311419967297     1.007825032230
         H           -3.316899751559     0.712775484441     0.628853967297     1.007825032230

  Basis Set: AUG-CC-PVTZ
    Blend: AUG-CC-PVTZ
  Basis Set: (AUG-CC-PVTZ AUX)
    Blend: AUG-CC-PVTZ-JKFIT
	 Reference Energy          =    -384.0865040904601528 [Eh]
	 Singles Energy            =      -0.0000000000000000 [Eh]
	 Same-Spin Energy          =      -0.3847090712183707 [Eh]
	 Opposite-Spin Energy      =      -1.2872764852098708 [Eh]
	 Correlation Energy        =      -1.6719855564282415 [Eh]
	 Total Energy              =    -385.7584896468883926 [Eh]

	 ================> DF-SCS-MP2 Energies <==================
	-----------------------------------------------------------
	 SCS Same-Spin Scale       =       0.3333333333333333 [-]
	 SCS Opposite-Spin Scale   =       1.2000000000000000 [-]
	 SCS Same-Spin Energy      =      -0.1282363570727902 [Eh]
	 SCS Opposite-Spin Energy  =      -1.5447317822518449 [Eh]
	 SCS Correlation Energy    =      -1.6729681393246352 [Eh]
	 SCS Total Energy          =    -385.7594722297847625 [Eh]
	-----------------------------------------------------------

  Dipole Moment: [D]
     X:     0.7981      Y:    -1.4411      Z:     0.7358     Total:     1.8042

*** Psi4 exiting successfully. Buy a developer a beer!
