                               Psi4 1.3.2 release

  ==> Input File <==

--------------------------------------------------------------------------
#psi4
#
memory 32 gb

molecule  {
0 1
  O        0.4332560    -0.5778250     0.1734540
  O       -0.7770678     1.0953921    -0.7076710
  C        1.6346250     0.1623570    -0.1778450
  C        1.8980320     1.2173290     0.8789650
  C        2.7308080    -0.8763490    -0.2789480
  C       -1.8493269    -0.9309917     0.2633720
  C       -0.7451280     0.0062060    -0.1586260
  C       -3.2456700    -0.1986960     0.0285890
  H        1.4602790     0.6397420    -1.1462310
  H        2.8221420     1.7571320     0.6526510
  H        1.0777360     1.9358120     0.9100720
  H        2.0019030     0.7445150     1.8590670
  H        3.6747750    -0.4011320    -0.5598750
  H        2.4805410    -1.6278800    -1.0306640
  H        2.8646540    -1.3764140     0.6835210
  H       -1.8254340    -1.7987290    -0.3567280
  H       -1.7546250    -1.1827800     1.2758720
  H       -3.3759370     0.0860600    -1.0167370
  H       -4.0604800    -0.8690500     0.3134070
  H       -3.3166340     0.7089420     0.6308410
units angstrom
no_reorient  #important for SAPT in psi4, default
symmetry c1  #important for SAPT in psi4, default
}

set PROPERTIES_ORIGIN ["COM"]
properties('MP2/aug-cc-pvtz', properties = ['dipole'])
--------------------------------------------------------------------------

    Molecular point group: c1
  Charge       = 0
  Multiplicity = 1
  Basis Set: AUG-CC-PVTZ
    Blend: AUG-CC-PVTZ
  Basis Set: (AUG-CC-PVTZ AUX)
    Blend: AUG-CC-PVTZ-JKFIT

    Orbital Energies [Eh]
    ---------------------

    Doubly Occupied:

       1A    -20.589881     2A    -20.542313     3A    -11.377927
       4A    -11.286203     5A    -11.243200     6A    -11.223402
       7A    -11.218753     8A    -11.214300     9A     -1.448796
      10A     -1.346177    11A     -1.079344    12A     -1.038627
      13A     -0.942740    14A     -0.903088    15A     -0.817345
      16A     -0.759798    17A     -0.698800    18A     -0.669387
      19A     -0.658560    20A     -0.621805    21A     -0.603890
      22A     -0.571752    23A     -0.552754    24A     -0.546071
      25A     -0.534695    26A     -0.521052    27A     -0.514213
      28A     -0.502582    29A     -0.491551    30A     -0.478803
      31A     -0.450304    32A     -0.440681

  @DF-RHF Final Energy:  -384.08283153203473

   => Energetics <=

    Nuclear Repulsion Energy =            396.4710854369483854
    One-Electron Energy =               -1309.3302525302372032
    Two-Electron Energy =                 528.7763355612540863
    Total Energy =                       -384.0828315320346746
  Basis Set: (AUG-CC-PVTZ AUX)
    Blend: AUG-CC-PVTZ-RI
    Molecular point group: c1

    Geometry (in Angstrom), charge = 0, multiplicity = 1:

       Center              X                  Y                   Z               Mass
    ------------   -----------------  -----------------  -----------------  -----------------
         O            0.419078356982    -0.573018943491     0.170405694454    15.994914619570
         O           -0.791245443018     1.100198156509    -0.710719305546    15.994914619570
         C            1.620447356982     0.167163056509    -0.180893305546    12.000000000000
         C            1.883854356982     1.222135056509     0.875916694454    12.000000000000
         C            2.716630356982    -0.871542943491    -0.281996305546    12.000000000000
         C           -1.863504543018    -0.926185643491     0.260323694454    12.000000000000
         C           -0.759305643018     0.011012056509    -0.161674305546    12.000000000000
         C           -3.259847643018    -0.193889943491     0.025540694454    12.000000000000
         H            1.446101356982     0.644548056509    -1.149279305546     1.007825032230
         H            2.807964356982     1.761938056509     0.649602694454     1.007825032230
         H            1.063558356982     1.940618056509     0.907023694454     1.007825032230
         H            1.987725356982     0.749321056509     1.856018694454     1.007825032230
         H            3.660597356982    -0.396325943491    -0.562923305546     1.007825032230
         H            2.466363356982    -1.623073943491    -1.033712305546     1.007825032230
         H            2.850476356982    -1.371607943491     0.680472694454     1.007825032230
         H           -1.839611643018    -1.793922943491    -0.359776305546     1.007825032230
         H           -1.768802643018    -1.177973943491     1.272823694454     1.007825032230
         H           -3.390114643018     0.090866056509    -1.019785305546     1.007825032230
         H           -4.074657643018    -0.864243943491     0.310358694454     1.007825032230
         H           -3.330811643018     0.713748056509     0.627792694454     1.007825032230

  Basis Set: AUG-CC-PVTZ
    Blend: AUG-CC-PVTZ
  Basis Set: (AUG-CC-PVTZ AUX)
    Blend: AUG-CC-PVTZ-JKFIT
	 Reference Energy          =    -384.0828315320347315 [Eh]
	 Singles Energy            =      -0.0000000000000000 [Eh]
	 Same-Spin Energy          =      -0.3840585985803431 [Eh]
	 Opposite-Spin Energy      =      -1.2867413234281964 [Eh]
	 Correlation Energy        =      -1.6707999220085394 [Eh]
	 Total Energy              =    -385.7536314540432727 [Eh]

	 ================> DF-SCS-MP2 Energies <==================
	-----------------------------------------------------------
	 SCS Same-Spin Scale       =       0.3333333333333333 [-]
	 SCS Opposite-Spin Scale   =       1.2000000000000000 [-]
	 SCS Same-Spin Energy      =      -0.1280195328601144 [Eh]
	 SCS Opposite-Spin Energy  =      -1.5440895881138357 [Eh]
	 SCS Correlation Energy    =      -1.6721091209739500 [Eh]
	 SCS Total Energy          =    -385.7549406530087026 [Eh]
	-----------------------------------------------------------

  Dipole Moment: [D]
     X:     0.6286      Y:    -1.3449      Z:     0.6855     Total:     1.6352

*** Psi4 exiting successfully. Buy a developer a beer!
