                               Psi4 1.3.2 release

  ==> Input File <==

--------------------------------------------------------------------------
#psi4
#
memory 32 gb

molecule  {
0 1
  O        0.4273581    -0.5870653     0.1779208
  O       -0.8514170     1.0903400    -0.7083106
  C        1.6346250     0.1623570    -0.1778450
  C        1.8980320     1.2173290     0.8789650
  C        2.7308080    -0.8763490    -0.2789480
  C       -1.9015140    -0.8789960     0.2349040
  C       -0.7451280     0.0062060    -0.1586260
  C       -3.2456700    -0.1986960     0.0285890
  H        1.4602790     0.6397420    -1.1462310
  H        2.8221420     1.7571320     0.6526510
  H        1.0777360     1.9358120     0.9100720
  H        2.0019030     0.7445150     1.8590670
  H        3.6747750    -0.4011320    -0.5598750
  H        2.4805410    -1.6278800    -1.0306640
  H        2.8646540    -1.3764140     0.6835210
  H       -1.8254340    -1.7987290    -0.3567280
  H       -1.7546250    -1.1827800     1.2758720
  H       -3.3759370     0.0860600    -1.0167370
  H       -4.0604800    -0.8690500     0.3134070
  H       -3.3166340     0.7089420     0.6308410
units angstrom
no_reorient  #important for SAPT in psi4, default
symmetry c1  #important for SAPT in psi4, default
}

set PROPERTIES_ORIGIN ["COM"]
properties('MP2/aug-cc-pvtz', properties = ['dipole'])
--------------------------------------------------------------------------

    Molecular point group: c1
  Charge       = 0
  Multiplicity = 1
  Basis Set: AUG-CC-PVTZ
    Blend: AUG-CC-PVTZ
  Basis Set: (AUG-CC-PVTZ AUX)
    Blend: AUG-CC-PVTZ-JKFIT

    Orbital Energies [Eh]
    ---------------------

    Doubly Occupied:

       1A    -20.596301     2A    -20.541021     3A    -11.376557
       4A    -11.291234     5A    -11.241117     6A    -11.221441
       7A    -11.217618     8A    -11.217270     9A     -1.446162
      10A     -1.349838    11A     -1.080234    12A     -1.044394
      13A     -0.945447    14A     -0.902063    15A     -0.814309
      16A     -0.760915    17A     -0.697246    18A     -0.666029
      19A     -0.656242    20A     -0.620580    21A     -0.602701
      22A     -0.573793    23A     -0.557341    24A     -0.549616
      25A     -0.537546    26A     -0.519165    27A     -0.509548
      28A     -0.505449    29A     -0.494581    30A     -0.481670
      31A     -0.452122    32A     -0.439242

  @DF-RHF Final Energy:  -384.08952265696308

   => Energetics <=

    Nuclear Repulsion Energy =            396.1216837006430751
    One-Electron Energy =               -1308.6048302924339168
    Two-Electron Energy =                 528.3936239348278150
    Total Energy =                       -384.0895226569630267
  Basis Set: (AUG-CC-PVTZ AUX)
    Blend: AUG-CC-PVTZ-RI
    Molecular point group: c1

    Geometry (in Angstrom), charge = 0, multiplicity = 1:

       Center              X                  Y                   Z               Mass
    ------------   -----------------  -----------------  -----------------  -----------------
         O            0.429632294971    -0.585664911827     0.177287994574    15.994914619570
         O           -0.849142805029     1.091740388173    -0.708943405426    15.994914619570
         C            1.636899194971     0.163757388173    -0.178477805426    12.000000000000
         C            1.900306194971     1.218729388173     0.878332194574    12.000000000000
         C            2.733082194971    -0.874948611827    -0.279580805426    12.000000000000
         C           -1.899239805029    -0.877595611827     0.234271194574    12.000000000000
         C           -0.742853805029     0.007606388173    -0.159258805426    12.000000000000
         C           -3.243395805029    -0.197295611827     0.027956194574    12.000000000000
         H            1.462553194971     0.641142388173    -1.146863805426     1.007825032230
         H            2.824416194971     1.758532388173     0.652018194574     1.007825032230
         H            1.080010194971     1.937212388173     0.909439194574     1.007825032230
         H            2.004177194971     0.745915388173     1.858434194574     1.007825032230
         H            3.677049194971    -0.399731611827    -0.560507805426     1.007825032230
         H            2.482815194971    -1.626479611827    -1.031296805426     1.007825032230
         H            2.866928194971    -1.375013611827     0.682888194574     1.007825032230
         H           -1.823159805029    -1.797328611827    -0.357360805426     1.007825032230
         H           -1.752350805029    -1.181379611827     1.275239194574     1.007825032230
         H           -3.373662805029     0.087460388173    -1.017369805426     1.007825032230
         H           -4.058205805029    -0.867649611827     0.312774194574     1.007825032230
         H           -3.314359805029     0.710342388173     0.630208194574     1.007825032230

  Basis Set: AUG-CC-PVTZ
    Blend: AUG-CC-PVTZ
  Basis Set: (AUG-CC-PVTZ AUX)
    Blend: AUG-CC-PVTZ-JKFIT
	 Reference Energy          =    -384.0895226569630836 [Eh]
	 Singles Energy            =      -0.0000000000000000 [Eh]
	 Same-Spin Energy          =      -0.3841356714095390 [Eh]
	 Opposite-Spin Energy      =      -1.2866042449437476 [Eh]
	 Correlation Energy        =      -1.6707399163532866 [Eh]
	 Total Energy              =    -385.7602625733163677 [Eh]

	 ================> DF-SCS-MP2 Energies <==================
	-----------------------------------------------------------
	 SCS Same-Spin Scale       =       0.3333333333333333 [-]
	 SCS Opposite-Spin Scale   =       1.2000000000000000 [-]
	 SCS Same-Spin Energy      =      -0.1280452238031796 [Eh]
	 SCS Opposite-Spin Energy  =      -1.5439250939324971 [Eh]
	 SCS Correlation Energy    =      -1.6719703177356768 [Eh]
	 SCS Total Energy          =    -385.7614929746987400 [Eh]
	-----------------------------------------------------------

  Dipole Moment: [D]
     X:     0.9022      Y:    -1.2851      Z:     0.6776     Total:     1.7102

*** Psi4 exiting successfully. Buy a developer a beer!
