                               Psi4 1.3.2 release

  ==> Input File <==

--------------------------------------------------------------------------
#psi4
#
memory 32 gb

molecule  {
0 1
  O        0.4332560    -0.5778250     0.1734540
  O       -0.8408100     1.0912640    -0.7084360
  C        1.6346250     0.1623570    -0.1778450
  C        1.8980320     1.2173290     0.8789650
  C        2.7308080    -0.8763490    -0.2789480
  C       -1.9015140    -0.8789960     0.2349040
  C       -0.7973136     0.0621895    -0.1781194
  C       -3.2067595    -0.1345372     0.0019993
  H        1.4602790     0.6397420    -1.1462310
  H        2.8221420     1.7571320     0.6526510
  H        1.0777360     1.9358120     0.9100720
  H        2.0019030     0.7445150     1.8590670
  H        3.6747750    -0.4011320    -0.5598750
  H        2.4805410    -1.6278800    -1.0306640
  H        2.8646540    -1.3764140     0.6835210
  H       -1.8254340    -1.7987290    -0.3567280
  H       -1.7546250    -1.1827800     1.2758720
  H       -3.3759370     0.0860600    -1.0167370
  H       -4.0604800    -0.8690500     0.3134070
  H       -3.3166340     0.7089420     0.6308410
units angstrom
no_reorient  #important for SAPT in psi4, default
symmetry c1  #important for SAPT in psi4, default
}

set PROPERTIES_ORIGIN ["COM"]
properties('MP2/aug-cc-pvtz', properties = ['dipole'])
--------------------------------------------------------------------------

    Molecular point group: c1
  Charge       = 0
  Multiplicity = 1
  Basis Set: AUG-CC-PVTZ
    Blend: AUG-CC-PVTZ
  Basis Set: (AUG-CC-PVTZ AUX)
    Blend: AUG-CC-PVTZ-JKFIT

    Orbital Energies [Eh]
    ---------------------

    Doubly Occupied:

       1A    -20.575009     2A    -20.557608     3A    -11.373810
       4A    -11.280465     5A    -11.245576     6A    -11.222134
       7A    -11.214841     8A    -11.211891     9A     -1.458834
      10A     -1.355286    11A     -1.076092    12A     -1.042167
      13A     -0.939300    14A     -0.898698    15A     -0.803673
      16A     -0.753180    17A     -0.707854    18A     -0.669962
      19A     -0.660673    20A     -0.620025    21A     -0.605389
      22A     -0.576147    23A     -0.554329    24A     -0.543435
      25A     -0.538446    26A     -0.521123    27A     -0.512863
      28A     -0.507393    29A     -0.499060    30A     -0.478375
      31A     -0.446076    32A     -0.436073

  @DF-RHF Final Energy:  -384.07630399729555

   => Energetics <=

    Nuclear Repulsion Energy =            396.8134475504504053
    One-Electron Energy =               -1310.0079304694290840
    Two-Electron Energy =                 529.1181789216831248
    Total Energy =                       -384.0763039972955539
  Basis Set: (AUG-CC-PVTZ AUX)
    Blend: AUG-CC-PVTZ-RI
    Molecular point group: c1

    Geometry (in Angstrom), charge = 0, multiplicity = 1:

       Center              X                  Y                   Z               Mass
    ------------   -----------------  -----------------  -----------------  -----------------
         O            0.434628317795    -0.590244677015     0.178217722140    15.994914619570
         O           -0.839437682205     1.078844322985    -0.703672277860    15.994914619570
         C            1.635997317795     0.149937322985    -0.173081277860    12.000000000000
         C            1.899404317795     1.204909322985     0.883728722140    12.000000000000
         C            2.732180317795    -0.888768677015    -0.274184277860    12.000000000000
         C           -1.900141682205    -0.891415677015     0.239667722140    12.000000000000
         C           -0.795941282205     0.049769822985    -0.173355677860    12.000000000000
         C           -3.205387182205    -0.146956877015     0.006763022140    12.000000000000
         H            1.461651317795     0.627322322985    -1.141467277860     1.007825032230
         H            2.823514317795     1.744712322985     0.657414722140     1.007825032230
         H            1.079108317795     1.923392322985     0.914835722140     1.007825032230
         H            2.003275317795     0.732095322985     1.863830722140     1.007825032230
         H            3.676147317795    -0.413551677015    -0.555111277860     1.007825032230
         H            2.481913317795    -1.640299677015    -1.025900277860     1.007825032230
         H            2.866026317795    -1.388833677015     0.688284722140     1.007825032230
         H           -1.824061682205    -1.811148677015    -0.351964277860     1.007825032230
         H           -1.753252682205    -1.195199677015     1.280635722140     1.007825032230
         H           -3.374564682205     0.073640322985    -1.011973277860     1.007825032230
         H           -4.059107682205    -0.881469677015     0.318170722140     1.007825032230
         H           -3.315261682205     0.696522322985     0.635604722140     1.007825032230

  Basis Set: AUG-CC-PVTZ
    Blend: AUG-CC-PVTZ
  Basis Set: (AUG-CC-PVTZ AUX)
    Blend: AUG-CC-PVTZ-JKFIT
	 Reference Energy          =    -384.0763039972955539 [Eh]
	 Singles Energy            =      -0.0000000000000000 [Eh]
	 Same-Spin Energy          =      -0.3838283152646692 [Eh]
	 Opposite-Spin Energy      =      -1.2861686909372532 [Eh]
	 Correlation Energy        =      -1.6699970062019225 [Eh]
	 Total Energy              =    -385.7463010034974786 [Eh]

	 ================> DF-SCS-MP2 Energies <==================
	-----------------------------------------------------------
	 SCS Same-Spin Scale       =       0.3333333333333333 [-]
	 SCS Opposite-Spin Scale   =       1.2000000000000000 [-]
	 SCS Same-Spin Energy      =      -0.1279427717548897 [Eh]
	 SCS Opposite-Spin Energy  =      -1.5434024291247037 [Eh]
	 SCS Correlation Energy    =      -1.6713452008795935 [Eh]
	 SCS Total Energy          =    -385.7476491981751678 [Eh]
	-----------------------------------------------------------

  Dipole Moment: [D]
     X:     0.1957      Y:    -0.9777      Z:     0.4794     Total:     1.1063

*** Psi4 exiting successfully. Buy a developer a beer!
