                               Psi4 1.3.2 release

  ==> Input File <==

--------------------------------------------------------------------------
#psi4
#
memory 32 gb

molecule  {
0 1
  O        0.4332560    -0.5778250     0.1734540
  O       -0.8408100     1.0912640    -0.7084360
  C        1.6346250     0.1623570    -0.1778450
  C        1.8980320     1.2173290     0.8789650
  C        2.7308080    -0.8763490    -0.2789480
  C       -1.9015140    -0.8789960     0.2349040
  C       -0.7294445    -0.1716486    -0.0685052
  C       -3.2456700    -0.1986960     0.0285890
  H        1.4602790     0.6397420    -1.1462310
  H        2.8221420     1.7571320     0.6526510
  H        1.0777360     1.9358120     0.9100720
  H        2.0019030     0.7445150     1.8590670
  H        3.6747750    -0.4011320    -0.5598750
  H        2.4805410    -1.6278800    -1.0306640
  H        2.8646540    -1.3764140     0.6835210
  H       -1.8254340    -1.7987290    -0.3567280
  H       -1.7546250    -1.1827800     1.2758720
  H       -3.3759370     0.0860600    -1.0167370
  H       -4.0604800    -0.8690500     0.3134070
  H       -3.3166340     0.7089420     0.6308410
units angstrom
no_reorient  #important for SAPT in psi4, default
symmetry c1  #important for SAPT in psi4, default
}

set PROPERTIES_ORIGIN ["COM"]
properties('MP2/aug-cc-pvtz', properties = ['dipole'])
--------------------------------------------------------------------------

    Molecular point group: c1
  Charge       = 0
  Multiplicity = 1
  Basis Set: AUG-CC-PVTZ
    Blend: AUG-CC-PVTZ
  Basis Set: (AUG-CC-PVTZ AUX)
    Blend: AUG-CC-PVTZ-JKFIT

    Orbital Energies [Eh]
    ---------------------

    Doubly Occupied:

       1A    -20.622481     2A    -20.497722     3A    -11.385743
       4A    -11.303385     5A    -11.247236     6A    -11.228716
       7A    -11.222495     8A    -11.220310     9A     -1.486707
      10A     -1.235746    11A     -1.103936    12A     -1.063448
      13A     -0.950763    14A     -0.928882    15A     -0.847531
      16A     -0.769807    17A     -0.693400    18A     -0.683182
      19A     -0.660056    20A     -0.630145    21A     -0.599531
      22A     -0.571416    23A     -0.559048    24A     -0.548031
      25A     -0.544665    26A     -0.528081    27A     -0.511039
      28A     -0.499656    29A     -0.483105    30A     -0.472577
      31A     -0.409843    32A     -0.400420

  @DF-RHF Final Energy:  -384.02659579638504

   => Energetics <=

    Nuclear Repulsion Energy =            396.0491050267700643
    One-Electron Energy =               -1308.3331965767840757
    Two-Electron Energy =                 528.2574957536288593
    Total Energy =                       -384.0265957963850951
  Basis Set: (AUG-CC-PVTZ AUX)
    Blend: AUG-CC-PVTZ-RI
    Molecular point group: c1

    Geometry (in Angstrom), charge = 0, multiplicity = 1:

       Center              X                  Y                   Z               Mass
    ------------   -----------------  -----------------  -----------------  -----------------
         O            0.431634761324    -0.559439646788     0.164137826488    15.994914619570
         O           -0.842431238676     1.109649353212    -0.717752173512    15.994914619570
         C            1.633003761324     0.180742353212    -0.187161173512    12.000000000000
         C            1.896410761324     1.235714353212     0.869648826488    12.000000000000
         C            2.729186761324    -0.857963646788    -0.288264173512    12.000000000000
         C           -1.903135238676    -0.860610646788     0.225587826488    12.000000000000
         C           -0.731065738676    -0.153263246788    -0.077821373512    12.000000000000
         C           -3.247291238676    -0.180310646788     0.019272826488    12.000000000000
         H            1.458657761324     0.658127353212    -1.155547173512     1.007825032230
         H            2.820520761324     1.775517353212     0.643334826488     1.007825032230
         H            1.076114761324     1.954197353212     0.900755826488     1.007825032230
         H            2.000281761324     0.762900353212     1.849750826488     1.007825032230
         H            3.673153761324    -0.382746646788    -0.569191173512     1.007825032230
         H            2.478919761324    -1.609494646788    -1.039980173512     1.007825032230
         H            2.863032761324    -1.358028646788     0.674204826488     1.007825032230
         H           -1.827055238676    -1.780343646788    -0.366044173512     1.007825032230
         H           -1.756246238676    -1.164394646788     1.266555826488     1.007825032230
         H           -3.377558238676     0.104445353212    -1.026053173512     1.007825032230
         H           -4.062101238676    -0.850664646788     0.304090826488     1.007825032230
         H           -3.318255238676     0.727327353212     0.621524826488     1.007825032230

  Basis Set: AUG-CC-PVTZ
    Blend: AUG-CC-PVTZ
  Basis Set: (AUG-CC-PVTZ AUX)
    Blend: AUG-CC-PVTZ-JKFIT
	 Reference Energy          =    -384.0265957963850383 [Eh]
	 Singles Energy            =      -0.0000000000000000 [Eh]
	 Same-Spin Energy          =      -0.3879233978052780 [Eh]
	 Opposite-Spin Energy      =      -1.2927964966981398 [Eh]
	 Correlation Energy        =      -1.6807198945034179 [Eh]
	 Total Energy              =    -385.7073156908884357 [Eh]

	 ================> DF-SCS-MP2 Energies <==================
	-----------------------------------------------------------
	 SCS Same-Spin Scale       =       0.3333333333333333 [-]
	 SCS Opposite-Spin Scale   =       1.2000000000000000 [-]
	 SCS Same-Spin Energy      =      -0.1293077992684260 [Eh]
	 SCS Opposite-Spin Energy  =      -1.5513557960377677 [Eh]
	 SCS Correlation Energy    =      -1.6806635953061937 [Eh]
	 SCS Total Energy          =    -385.7072593916912524 [Eh]
	-----------------------------------------------------------

  Dipole Moment: [D]
     X:     1.4110      Y:    -2.2424      Z:     1.2083     Total:     2.9120

*** Psi4 exiting successfully. Buy a developer a beer!
