                               Psi4 1.3.2 release

  ==> Input File <==

--------------------------------------------------------------------------
#psi4
#
memory 32 gb

molecule  {
0 1
  O        0.4667437    -0.5214744     0.1461341
  O       -0.7770434     1.0950710    -0.7083089
  C        1.6346250     0.1623570    -0.1778450
  C        1.8980320     1.2173290     0.8789650
  C        2.7308080    -0.8763490    -0.2789480
  C       -1.9015140    -0.8789960     0.2349040
  C       -0.7451280     0.0062060    -0.1586260
  C       -3.2456700    -0.1986960     0.0285890
  H        1.4602790     0.6397420    -1.1462310
  H        2.8221420     1.7571320     0.6526510
  H        1.0777360     1.9358120     0.9100720
  H        2.0019030     0.7445150     1.8590670
  H        3.6747750    -0.4011320    -0.5598750
  H        2.4805410    -1.6278800    -1.0306640
  H        2.8646540    -1.3764140     0.6835210
  H       -1.8254340    -1.7987290    -0.3567280
  H       -1.7546250    -1.1827800     1.2758720
  H       -3.3759370     0.0860600    -1.0167370
  H       -4.0604800    -0.8690500     0.3134070
  H       -3.3166340     0.7089420     0.6308410
units angstrom
no_reorient  #important for SAPT in psi4, default
symmetry c1  #important for SAPT in psi4, default
}

set PROPERTIES_ORIGIN ["COM"]
properties('MP2/aug-cc-pvtz', properties = ['dipole'])
--------------------------------------------------------------------------

    Molecular point group: c1
  Charge       = 0
  Multiplicity = 1
  Basis Set: AUG-CC-PVTZ
    Blend: AUG-CC-PVTZ
  Basis Set: (AUG-CC-PVTZ AUX)
    Blend: AUG-CC-PVTZ-JKFIT

    Orbital Energies [Eh]
    ---------------------

    Doubly Occupied:

       1A    -20.587878     2A    -20.538980     3A    -11.379741
       4A    -11.280380     5A    -11.251306     6A    -11.224164
       7A    -11.216662     8A    -11.210492     9A     -1.459320
      10A     -1.349487    11A     -1.082279    12A     -1.046394
      13A     -0.941244    14A     -0.910249    15A     -0.825367
      16A     -0.758317    17A     -0.703055    18A     -0.670429
      19A     -0.657441    20A     -0.622966    21A     -0.606536
      22A     -0.569056    23A     -0.558270    24A     -0.544253
      25A     -0.536127    26A     -0.524981    27A     -0.514936
      28A     -0.508578    29A     -0.494912    30A     -0.471707
      31A     -0.446955    32A     -0.436240

  @DF-RHF Final Energy:  -384.08761352080296

   => Energetics <=

    Nuclear Repulsion Energy =            397.9876861618106432
    One-Electron Energy =               -1312.2931928887683171
    Two-Electron Energy =                 530.2178932061547130
    Total Energy =                       -384.0876135208029609
  Basis Set: (AUG-CC-PVTZ AUX)
    Blend: AUG-CC-PVTZ-RI
    Molecular point group: c1

    Geometry (in Angstrom), charge = 0, multiplicity = 1:

       Center              X                  Y                   Z               Mass
    ------------   -----------------  -----------------  -----------------  -----------------
         O            0.453343272032    -0.529763507418     0.149880877852    15.994914619570
         O           -0.790443827968     1.086781892582    -0.704562122148    15.994914619570
         C            1.621224572032     0.154067892582    -0.174098222148    12.000000000000
         C            1.884631572032     1.209039892582     0.882711777852    12.000000000000
         C            2.717407572032    -0.884638107418    -0.275201222148    12.000000000000
         C           -1.914914427968    -0.887285107418     0.238650777852    12.000000000000
         C           -0.758528427968    -0.002083107418    -0.154879222148    12.000000000000
         C           -3.259070427968    -0.206985107418     0.032335777852    12.000000000000
         H            1.446878572032     0.631452892582    -1.142484222148     1.007825032230
         H            2.808741572032     1.748842892582     0.656397777852     1.007825032230
         H            1.064335572032     1.927522892582     0.913818777852     1.007825032230
         H            1.988502572032     0.736225892582     1.862813777852     1.007825032230
         H            3.661374572032    -0.409421107418    -0.556128222148     1.007825032230
         H            2.467140572032    -1.636169107418    -1.026917222148     1.007825032230
         H            2.851253572032    -1.384703107418     0.687267777852     1.007825032230
         H           -1.838834427968    -1.807018107418    -0.352981222148     1.007825032230
         H           -1.768025427968    -1.191069107418     1.279618777852     1.007825032230
         H           -3.389337427968     0.077770892582    -1.012990222148     1.007825032230
         H           -4.073880427968    -0.877339107418     0.317153777852     1.007825032230
         H           -3.330034427968     0.700652892582     0.634587777852     1.007825032230

  Basis Set: AUG-CC-PVTZ
    Blend: AUG-CC-PVTZ
  Basis Set: (AUG-CC-PVTZ AUX)
    Blend: AUG-CC-PVTZ-JKFIT
	 Reference Energy          =    -384.0876135208029609 [Eh]
	 Singles Energy            =      -0.0000000000000000 [Eh]
	 Same-Spin Energy          =      -0.3838357763639713 [Eh]
	 Opposite-Spin Energy      =      -1.2847516860424610 [Eh]
	 Correlation Energy        =      -1.6685874624064323 [Eh]
	 Total Energy              =    -385.7562009832093963 [Eh]

	 ================> DF-SCS-MP2 Energies <==================
	-----------------------------------------------------------
	 SCS Same-Spin Scale       =       0.3333333333333333 [-]
	 SCS Opposite-Spin Scale   =       1.2000000000000000 [-]
	 SCS Same-Spin Energy      =      -0.1279452587879904 [Eh]
	 SCS Opposite-Spin Energy  =      -1.5417020232509533 [Eh]
	 SCS Correlation Energy    =      -1.6696472820389436 [Eh]
	 SCS Total Energy          =    -385.7572608028419268 [Eh]
	-----------------------------------------------------------

  Dipole Moment: [D]
     X:     0.3072      Y:    -1.5030      Z:     0.7367     Total:     1.7018

*** Psi4 exiting successfully. Buy a developer a beer!
