                               Psi4 1.3.2 release

  ==> Input File <==

--------------------------------------------------------------------------
#psi4
#
memory 32 gb

molecule  {
0 1
  O        0.4332560    -0.5778250     0.1734540
  O       -0.8408100     1.0912640    -0.7084360
  C        1.6346250     0.1623570    -0.1778450
  C        1.8980320     1.2173290     0.8789650
  C        2.7308080    -0.8763490    -0.2789480
  C       -1.9015140    -0.8789960     0.2349040
  C       -0.7492834     0.0153295    -0.1500940
  C       -3.2456700    -0.1986960     0.0285890
  H        1.4602790     0.6397420    -1.1462310
  H        2.8221420     1.7571320     0.6526510
  H        1.0777360     1.9358120     0.9100720
  H        2.0019030     0.7445150     1.8590670
  H        3.6747750    -0.4011320    -0.5598750
  H        2.4805410    -1.6278800    -1.0306640
  H        2.8646540    -1.3764140     0.6835210
  H       -1.8333274    -1.8020666    -0.3524771
  H       -1.7546250    -1.1827800     1.2758720
  H       -3.3759370     0.0860600    -1.0167370
  H       -4.0604800    -0.8690500     0.3134070
  H       -3.3166340     0.7089420     0.6308410
units angstrom
no_reorient  #important for SAPT in psi4, default
symmetry c1  #important for SAPT in psi4, default
}

set PROPERTIES_ORIGIN ["COM"]
properties('MP2/aug-cc-pvtz', properties = ['dipole'])
--------------------------------------------------------------------------

    Molecular point group: c1
  Charge       = 0
  Multiplicity = 1
  Basis Set: AUG-CC-PVTZ
    Blend: AUG-CC-PVTZ
  Basis Set: (AUG-CC-PVTZ AUX)
    Blend: AUG-CC-PVTZ-JKFIT

    Orbital Energies [Eh]
    ---------------------

    Doubly Occupied:

       1A    -20.593897     2A    -20.542152     3A    -11.376983
       4A    -11.289013     5A    -11.242673     6A    -11.220363
       7A    -11.218623     8A    -11.216081     9A     -1.447059
      10A     -1.351619    11A     -1.079824    12A     -1.044721
      13A     -0.944518    14A     -0.902700    15A     -0.814777
      16A     -0.759883    17A     -0.699103    18A     -0.666219
      19A     -0.656760    20A     -0.620755    21A     -0.603204
      22A     -0.573084    23A     -0.557240    24A     -0.548537
      25A     -0.537096    26A     -0.520416    27A     -0.510121
      28A     -0.506265    29A     -0.494617    30A     -0.480479
      31A     -0.451261    32A     -0.440085

  @DF-RHF Final Energy:  -384.09013425727647

   => Energetics <=

    Nuclear Repulsion Energy =            396.3584319557224376
    One-Electron Energy =               -1309.0768721262329564
    Two-Electron Energy =                 528.6283059132341577
    Total Energy =                       -384.0901342572764179
  Basis Set: (AUG-CC-PVTZ AUX)
    Blend: AUG-CC-PVTZ-RI
    Molecular point group: c1

    Geometry (in Angstrom), charge = 0, multiplicity = 1:

       Center              X                  Y                   Z               Mass
    ------------   -----------------  -----------------  -----------------  -----------------
         O            0.433754110580    -0.578739280684     0.172535053556    15.994914619570
         O           -0.840311889420     1.090349719316    -0.709354946444    15.994914619570
         C            1.635123110580     0.161442719316    -0.178763946444    12.000000000000
         C            1.898530110580     1.216414719316     0.878046053556    12.000000000000
         C            2.731306110580    -0.877263280684    -0.279866946444    12.000000000000
         C           -1.901015889420    -0.879910280684     0.233985053556    12.000000000000
         C           -0.748785289420     0.014415219316    -0.151012946444    12.000000000000
         C           -3.245171889420    -0.199610280684     0.027670053556    12.000000000000
         H            1.460777110580     0.638827719316    -1.147149946444     1.007825032230
         H            2.822640110580     1.756217719316     0.651732053556     1.007825032230
         H            1.078234110580     1.934897719316     0.909153053556     1.007825032230
         H            2.002401110580     0.743600719316     1.858148053556     1.007825032230
         H            3.675273110580    -0.402046280684    -0.560793946444     1.007825032230
         H            2.481039110580    -1.628794280684    -1.031582946444     1.007825032230
         H            2.865152110580    -1.377328280684     0.682602053556     1.007825032230
         H           -1.832829289420    -1.802980880684    -0.353396046444     1.007825032230
         H           -1.754126889420    -1.183694280684     1.274953053556     1.007825032230
         H           -3.375438889420     0.085145719316    -1.017655946444     1.007825032230
         H           -4.059981889420    -0.869964280684     0.312488053556     1.007825032230
         H           -3.316135889420     0.708027719316     0.629922053556     1.007825032230

  Basis Set: AUG-CC-PVTZ
    Blend: AUG-CC-PVTZ
  Basis Set: (AUG-CC-PVTZ AUX)
    Blend: AUG-CC-PVTZ-JKFIT
	 Reference Energy          =    -384.0901342572764747 [Eh]
	 Singles Energy            =      -0.0000000000000000 [Eh]
	 Same-Spin Energy          =      -0.3840277658101667 [Eh]
	 Opposite-Spin Energy      =      -1.2862505187590525 [Eh]
	 Correlation Energy        =      -1.6702782845692192 [Eh]
	 Total Energy              =    -385.7604125418457102 [Eh]

	 ================> DF-SCS-MP2 Energies <==================
	-----------------------------------------------------------
	 SCS Same-Spin Scale       =       0.3333333333333333 [-]
	 SCS Opposite-Spin Scale   =       1.2000000000000000 [-]
	 SCS Same-Spin Energy      =      -0.1280092552700556 [Eh]
	 SCS Opposite-Spin Energy  =      -1.5435006225108630 [Eh]
	 SCS Correlation Energy    =      -1.6715098777809185 [Eh]
	 SCS Total Energy          =    -385.7616441350573950 [Eh]
	-----------------------------------------------------------

  Dipole Moment: [D]
     X:     0.7745      Y:    -1.2905      Z:     0.6802     Total:     1.6516

*** Psi4 exiting successfully. Buy a developer a beer!
