                               Psi4 1.3.2 release

  ==> Input File <==

--------------------------------------------------------------------------
#psi4
#
memory 32 gb

molecule  {
0 1
  O        0.4332560    -0.5778250     0.1734540
  O       -0.8408100     1.0912640    -0.7084360
  C        1.7998575     0.2641593    -0.2261616
  C        1.8980320     1.2173290     0.8789650
  C        2.7308080    -0.8763490    -0.2789480
  C       -1.9015140    -0.8789960     0.2349040
  C       -0.7451280     0.0062060    -0.1586260
  C       -3.2456700    -0.1986960     0.0285890
  H        1.4602790     0.6397420    -1.1462310
  H        2.8221420     1.7571320     0.6526510
  H        1.0777360     1.9358120     0.9100720
  H        2.0019030     0.7445150     1.8590670
  H        3.6747750    -0.4011320    -0.5598750
  H        2.4805410    -1.6278800    -1.0306640
  H        2.8646540    -1.3764140     0.6835210
  H       -1.8254340    -1.7987290    -0.3567280
  H       -1.7546250    -1.1827800     1.2758720
  H       -3.3759370     0.0860600    -1.0167370
  H       -4.0604800    -0.8690500     0.3134070
  H       -3.3166340     0.7089420     0.6308410
units angstrom
no_reorient  #important for SAPT in psi4, default
symmetry c1  #important for SAPT in psi4, default
}

set PROPERTIES_ORIGIN ["COM"]
properties('MP2/aug-cc-pvtz', properties = ['dipole'])
--------------------------------------------------------------------------

    Molecular point group: c1
  Charge       = 0
  Multiplicity = 1
  Basis Set: AUG-CC-PVTZ
    Blend: AUG-CC-PVTZ
  Basis Set: (AUG-CC-PVTZ AUX)
    Blend: AUG-CC-PVTZ-JKFIT

    Orbital Energies [Eh]
    ---------------------

    Doubly Occupied:

       1A    -20.563903     2A    -20.525731     3A    -11.359999
       4A    -11.304496     5A    -11.231706     6A    -11.230517
       7A    -11.225745     8A    -11.210920     9A     -1.411100
      10A     -1.315753    11A     -1.095121    12A     -1.042714
      13A     -0.963554    14A     -0.885967    15A     -0.812308
      16A     -0.743230    17A     -0.683695    18A     -0.647599
      19A     -0.646082    20A     -0.631694    21A     -0.598055
      22A     -0.574107    23A     -0.567870    24A     -0.545223
      25A     -0.535968    26A     -0.523397    27A     -0.513934
      28A     -0.509104    29A     -0.485403    30A     -0.464572
      31A     -0.441431    32A     -0.423881

  @DF-RHF Final Energy:  -384.06146943254373

   => Energetics <=

    Nuclear Repulsion Energy =            393.9484720124626165
    One-Electron Energy =               -1304.5903272643122364
    Two-Electron Energy =                 526.5803858193058886
    Total Energy =                       -384.0614694325437313
  Basis Set: (AUG-CC-PVTZ AUX)
    Blend: AUG-CC-PVTZ-RI
    Molecular point group: c1

    Geometry (in Angstrom), charge = 0, multiplicity = 1:

       Center              X                  Y                   Z               Mass
    ------------   -----------------  -----------------  -----------------  -----------------
         O            0.416175333842    -0.588348804090     0.178448607210    15.994914619570
         O           -0.857890666158     1.080740195910    -0.703441392790    15.994914619570
         C            1.782776833842     0.253635495910    -0.221166992790    12.000000000000
         C            1.880951333842     1.206805195910     0.883959607210    12.000000000000
         C            2.713727333842    -0.886872804090    -0.273953392790    12.000000000000
         C           -1.918594666158    -0.889519804090     0.239898607210    12.000000000000
         C           -0.762208666158    -0.004317804090    -0.153631392790    12.000000000000
         C           -3.262750666158    -0.209219804090     0.033583607210    12.000000000000
         H            1.443198333842     0.629218195910    -1.141236392790     1.007825032230
         H            2.805061333842     1.746608195910     0.657645607210     1.007825032230
         H            1.060655333842     1.925288195910     0.915066607210     1.007825032230
         H            1.984822333842     0.733991195910     1.864061607210     1.007825032230
         H            3.657694333842    -0.411655804090    -0.554880392790     1.007825032230
         H            2.463460333842    -1.638403804090    -1.025669392790     1.007825032230
         H            2.847573333842    -1.386937804090     0.688515607210     1.007825032230
         H           -1.842514666158    -1.809252804090    -0.351733392790     1.007825032230
         H           -1.771705666158    -1.193303804090     1.280866607210     1.007825032230
         H           -3.393017666158     0.075536195910    -1.011742392790     1.007825032230
         H           -4.077560666158    -0.879573804090     0.318401607210     1.007825032230
         H           -3.333714666158     0.698418195910     0.635835607210     1.007825032230

  Basis Set: AUG-CC-PVTZ
    Blend: AUG-CC-PVTZ
  Basis Set: (AUG-CC-PVTZ AUX)
    Blend: AUG-CC-PVTZ-JKFIT
	 Reference Energy          =    -384.0614694325437313 [Eh]
	 Singles Energy            =      -0.0000000000000000 [Eh]
	 Same-Spin Energy          =      -0.3857890089906579 [Eh]
	 Opposite-Spin Energy      =      -1.2896889336188100 [Eh]
	 Correlation Energy        =      -1.6754779426094679 [Eh]
	 Total Energy              =    -385.7369473751531928 [Eh]

	 ================> DF-SCS-MP2 Energies <==================
	-----------------------------------------------------------
	 SCS Same-Spin Scale       =       0.3333333333333333 [-]
	 SCS Opposite-Spin Scale   =       1.2000000000000000 [-]
	 SCS Same-Spin Energy      =      -0.1285963363302193 [Eh]
	 SCS Opposite-Spin Energy  =      -1.5476267203425720 [Eh]
	 SCS Correlation Energy    =      -1.6762230566727911 [Eh]
	 SCS Total Energy          =    -385.7376924892164993 [Eh]
	-----------------------------------------------------------

  Dipole Moment: [D]
     X:     1.7403      Y:    -1.1241      Z:     0.7015     Total:     2.1873

*** Psi4 exiting successfully. Buy a developer a beer!
