                               Psi4 1.3.2 release

  ==> Input File <==

--------------------------------------------------------------------------
#psi4
#
memory 32 gb

molecule  {
0 1
  O        0.4332560    -0.5778250     0.1734540
  O       -0.8408100     1.0912640    -0.7084360
  C        1.6346250     0.1623570    -0.1778450
  C        1.8980320     1.2173290     0.8789650
  C        2.7308080    -0.8763490    -0.2789480
  C       -1.9015140    -0.8789960     0.2349040
  C       -0.7795749     0.0438075    -0.1717448
  C       -3.2201327    -0.1557053     0.0107952
  H        1.4602790     0.6397420    -1.1462310
  H        2.8221420     1.7571320     0.6526510
  H        1.0777360     1.9358120     0.9100720
  H        2.0019030     0.7445150     1.8590670
  H        3.6747750    -0.4011320    -0.5598750
  H        2.4805410    -1.6278800    -1.0306640
  H        2.8646540    -1.3764140     0.6835210
  H       -1.8254340    -1.7987290    -0.3567280
  H       -1.7546250    -1.1827800     1.2758720
  H       -3.3759370     0.0860600    -1.0167370
  H       -4.0604800    -0.8690500     0.3134070
  H       -3.3166340     0.7089420     0.6308410
units angstrom
no_reorient  #important for SAPT in psi4, default
symmetry c1  #important for SAPT in psi4, default
}

set PROPERTIES_ORIGIN ["COM"]
properties('MP2/aug-cc-pvtz', properties = ['dipole'])
--------------------------------------------------------------------------

    Molecular point group: c1
  Charge       = 0
  Multiplicity = 1
  Basis Set: AUG-CC-PVTZ
    Blend: AUG-CC-PVTZ
  Basis Set: (AUG-CC-PVTZ AUX)
    Blend: AUG-CC-PVTZ-JKFIT

    Orbital Energies [Eh]
    ---------------------

    Doubly Occupied:

       1A    -20.581979     2A    -20.551999     3A    -11.374775
       4A    -11.283545     5A    -11.244265     6A    -11.220603
       7A    -11.216841     8A    -11.213372     9A     -1.449912
      10A     -1.358124    11A     -1.076775    12A     -1.043401
      13A     -0.941164    14A     -0.899823    15A     -0.807456
      16A     -0.754997    17A     -0.704684    18A     -0.667171
      19A     -0.658601    20A     -0.620452    21A     -0.605002
      22A     -0.574291    23A     -0.553746    24A     -0.544764
      25A     -0.537345    26A     -0.522560    27A     -0.509461
      28A     -0.506492    29A     -0.501224    30A     -0.479431
      31A     -0.449183    32A     -0.438791

  @DF-RHF Final Energy:  -384.08438081017800

   => Energetics <=

    Nuclear Repulsion Energy =            396.6489426465581118
    One-Electron Energy =               -1309.6821922404578800
    Two-Electron Energy =                 528.9488687837217640
    Total Energy =                       -384.0843808101780041
  Basis Set: (AUG-CC-PVTZ AUX)
    Blend: AUG-CC-PVTZ-RI
    Molecular point group: c1

    Geometry (in Angstrom), charge = 0, multiplicity = 1:

       Center              X                  Y                   Z               Mass
    ------------   -----------------  -----------------  -----------------  -----------------
         O            0.434177040082    -0.586156238424     0.176649492031    15.994914619570
         O           -0.839888959918     1.082932761576    -0.705240507969    15.994914619570
         C            1.635546040082     0.154025761576    -0.174649507969    12.000000000000
         C            1.898953040082     1.208997761576     0.882160492031    12.000000000000
         C            2.731729040082    -0.884680238424    -0.275752507969    12.000000000000
         C           -1.900592959918    -0.887327238424     0.238099492031    12.000000000000
         C           -0.778653859918     0.035476261576    -0.168549307969    12.000000000000
         C           -3.219211659918    -0.164036538424     0.013990692031    12.000000000000
         H            1.461200040082     0.631410761576    -1.143035507969     1.007825032230
         H            2.823063040082     1.748800761576     0.655846492031     1.007825032230
         H            1.078657040082     1.927480761576     0.913267492031     1.007825032230
         H            2.002824040082     0.736183761576     1.862262492031     1.007825032230
         H            3.675696040082    -0.409463238424    -0.556679507969     1.007825032230
         H            2.481462040082    -1.636211238424    -1.027468507969     1.007825032230
         H            2.865575040082    -1.384745238424     0.686716492031     1.007825032230
         H           -1.824512959918    -1.807060238424    -0.353532507969     1.007825032230
         H           -1.753703959918    -1.191111238424     1.279067492031     1.007825032230
         H           -3.375015959918     0.077728761576    -1.013541507969     1.007825032230
         H           -4.059558959918    -0.877381238424     0.316602492031     1.007825032230
         H           -3.315712959918     0.700610761576     0.634036492031     1.007825032230

  Basis Set: AUG-CC-PVTZ
    Blend: AUG-CC-PVTZ
  Basis Set: (AUG-CC-PVTZ AUX)
    Blend: AUG-CC-PVTZ-JKFIT
	 Reference Energy          =    -384.0843808101780041 [Eh]
	 Singles Energy            =      -0.0000000000000000 [Eh]
	 Same-Spin Energy          =      -0.3838319092199228 [Eh]
	 Opposite-Spin Energy      =      -1.2860543193736147 [Eh]
	 Correlation Energy        =      -1.6698862285935374 [Eh]
	 Total Energy              =    -385.7542670387715589 [Eh]

	 ================> DF-SCS-MP2 Energies <==================
	-----------------------------------------------------------
	 SCS Same-Spin Scale       =       0.3333333333333333 [-]
	 SCS Opposite-Spin Scale   =       1.2000000000000000 [-]
	 SCS Same-Spin Energy      =      -0.1279439697399743 [Eh]
	 SCS Opposite-Spin Energy  =      -1.5432651832483375 [Eh]
	 SCS Correlation Energy    =      -1.6712091529883117 [Eh]
	 SCS Total Energy          =    -385.7555899631663010 [Eh]
	-----------------------------------------------------------

  Dipole Moment: [D]
     X:     0.4069      Y:    -1.0913      Z:     0.5483     Total:     1.2873

*** Psi4 exiting successfully. Buy a developer a beer!
