                               Psi4 1.3.2 release

  ==> Input File <==

--------------------------------------------------------------------------
#psi4
#
memory 32 gb

molecule  {
0 1
  O        0.4332560    -0.5778250     0.1734540
  O       -0.8408100     1.0912640    -0.7084360
  C        1.6346250     0.1623570    -0.1778450
  C        1.8980320     1.2173290     0.8789650
  C        2.7308080    -0.8763490    -0.2789480
  C       -1.9015140    -0.8789960     0.2349040
  C       -0.7120900    -0.0324740    -0.1450277
  C       -3.2695697    -0.2425155     0.0466342
  H        1.4602790     0.6397420    -1.1462310
  H        2.8221420     1.7571320     0.6526510
  H        1.0777360     1.9358120     0.9100720
  H        2.0019030     0.7445150     1.8590670
  H        3.6747750    -0.4011320    -0.5598750
  H        2.4805410    -1.6278800    -1.0306640
  H        2.8646540    -1.3764140     0.6835210
  H       -1.8254340    -1.7987290    -0.3567280
  H       -1.7546250    -1.1827800     1.2758720
  H       -3.3759370     0.0860600    -1.0167370
  H       -4.0604800    -0.8690500     0.3134070
  H       -3.3166340     0.7089420     0.6308410
units angstrom
no_reorient  #important for SAPT in psi4, default
symmetry c1  #important for SAPT in psi4, default
}

set PROPERTIES_ORIGIN ["COM"]
properties('MP2/aug-cc-pvtz', properties = ['dipole'])
--------------------------------------------------------------------------

    Molecular point group: c1
  Charge       = 0
  Multiplicity = 1
  Basis Set: AUG-CC-PVTZ
    Blend: AUG-CC-PVTZ
  Basis Set: (AUG-CC-PVTZ AUX)
    Blend: AUG-CC-PVTZ-JKFIT

    Orbital Energies [Eh]
    ---------------------

    Doubly Occupied:

       1A    -20.607835     2A    -20.529268     3A    -11.379160
       4A    -11.295768     5A    -11.242052     6A    -11.224640
       7A    -11.219242     8A    -11.217755     9A     -1.463773
      10A     -1.326370    11A     -1.086276    12A     -1.045466
      13A     -0.948483    14A     -0.908166    15A     -0.824968
      16A     -0.768024    17A     -0.691541    18A     -0.671946
      19A     -0.657557    20A     -0.620940    21A     -0.600666
      22A     -0.573781    23A     -0.567265    24A     -0.552912
      25A     -0.540088    26A     -0.514978    27A     -0.511829
      28A     -0.501784    29A     -0.490033    30A     -0.478715
      31A     -0.445253    32A     -0.434358

  @DF-RHF Final Energy:  -384.08144260978531

   => Energetics <=

    Nuclear Repulsion Energy =            396.1778693498256985
    One-Electron Energy =               -1308.6368420474132108
    Two-Electron Energy =                 528.3775300878022563
    Total Energy =                       -384.0814426097853129
  Basis Set: (AUG-CC-PVTZ AUX)
    Blend: AUG-CC-PVTZ-RI
    Molecular point group: c1

    Geometry (in Angstrom), charge = 0, multiplicity = 1:

       Center              X                  Y                   Z               Mass
    ------------   -----------------  -----------------  -----------------  -----------------
         O            0.432311362603    -0.569296852476     0.170182839017    15.994914619570
         O           -0.841754637397     1.099792147524    -0.711707160983    15.994914619570
         C            1.633680362603     0.170885147524    -0.181116160983    12.000000000000
         C            1.897087362603     1.225857147524     0.875693839017    12.000000000000
         C            2.729863362603    -0.867820852476    -0.282219160983    12.000000000000
         C           -1.902458637397    -0.870467852476     0.231632839017    12.000000000000
         C           -0.713034637397    -0.023945852476    -0.148298860983    12.000000000000
         C           -3.270514337397    -0.233987352476     0.043363039017    12.000000000000
         H            1.459334362603     0.648270147524    -1.149502160983     1.007825032230
         H            2.821197362603     1.765660147524     0.649379839017     1.007825032230
         H            1.076791362603     1.944340147524     0.906800839017     1.007825032230
         H            2.000958362603     0.753043147524     1.855795839017     1.007825032230
         H            3.673830362603    -0.392603852476    -0.563146160983     1.007825032230
         H            2.479596362603    -1.619351852476    -1.033935160983     1.007825032230
         H            2.863709362603    -1.367885852476     0.680249839017     1.007825032230
         H           -1.826378637397    -1.790200852476    -0.359999160983     1.007825032230
         H           -1.755569637397    -1.174251852476     1.272600839017     1.007825032230
         H           -3.376881637397     0.094588147524    -1.020008160983     1.007825032230
         H           -4.061424637397    -0.860521852476     0.310135839017     1.007825032230
         H           -3.317578637397     0.717470147524     0.627569839017     1.007825032230

  Basis Set: AUG-CC-PVTZ
    Blend: AUG-CC-PVTZ
  Basis Set: (AUG-CC-PVTZ AUX)
    Blend: AUG-CC-PVTZ-JKFIT
	 Reference Energy          =    -384.0814426097853129 [Eh]
	 Singles Energy            =      -0.0000000000000000 [Eh]
	 Same-Spin Energy          =      -0.3845397674613529 [Eh]
	 Opposite-Spin Energy      =      -1.2870499808768048 [Eh]
	 Correlation Energy        =      -1.6715897483381577 [Eh]
	 Total Energy              =    -385.7530323581234484 [Eh]

	 ================> DF-SCS-MP2 Energies <==================
	-----------------------------------------------------------
	 SCS Same-Spin Scale       =       0.3333333333333333 [-]
	 SCS Opposite-Spin Scale   =       1.2000000000000000 [-]
	 SCS Same-Spin Energy      =      -0.1281799224871176 [Eh]
	 SCS Opposite-Spin Energy  =      -1.5444599770521656 [Eh]
	 SCS Correlation Energy    =      -1.6726398995392833 [Eh]
	 SCS Total Energy          =    -385.7540825093245758 [Eh]
	-----------------------------------------------------------

  Dipole Moment: [D]
     X:     1.2194      Y:    -1.5375      Z:     0.8228     Total:     2.1279

*** Psi4 exiting successfully. Buy a developer a beer!
