                               Psi4 1.3.2 release

  ==> Input File <==

--------------------------------------------------------------------------
#psi4
#
memory 32 gb

molecule  {
0 1
  O        0.4332560    -0.5778250     0.1734540
  O       -0.8408100     1.0912640    -0.7084360
  C        1.6346250     0.1623570    -0.1778450
  C        1.8980320     1.2173290     0.8789650
  C        2.7308080    -0.8763490    -0.2789480
  C       -1.9015140    -0.8789960     0.2349040
  C       -0.5918155     0.1235652    -0.2107998
  C       -3.2456700    -0.1986960     0.0285890
  H        1.4602790     0.6397420    -1.1462310
  H        2.8221420     1.7571320     0.6526510
  H        1.0777360     1.9358120     0.9100720
  H        2.0019030     0.7445150     1.8590670
  H        3.6747750    -0.4011320    -0.5598750
  H        2.4805410    -1.6278800    -1.0306640
  H        2.8646540    -1.3764140     0.6835210
  H       -1.8254340    -1.7987290    -0.3567280
  H       -1.7546250    -1.1827800     1.2758720
  H       -3.3759370     0.0860600    -1.0167370
  H       -4.0604800    -0.8690500     0.3134070
  H       -3.3166340     0.7089420     0.6308410
units angstrom
no_reorient  #important for SAPT in psi4, default
symmetry c1  #important for SAPT in psi4, default
}

set PROPERTIES_ORIGIN ["COM"]
properties('MP2/aug-cc-pvtz', properties = ['dipole'])
--------------------------------------------------------------------------

    Molecular point group: c1
  Charge       = 0
  Multiplicity = 1
  Basis Set: AUG-CC-PVTZ
    Blend: AUG-CC-PVTZ
  Basis Set: (AUG-CC-PVTZ AUX)
    Blend: AUG-CC-PVTZ-JKFIT

    Orbital Energies [Eh]
    ---------------------

    Doubly Occupied:

       1A    -20.612007     2A    -20.553815     3A    -11.369191
       4A    -11.298106     5A    -11.227081     6A    -11.225773
       7A    -11.220112     8A    -11.203800     9A     -1.499332
      10A     -1.421489    11A     -1.080618    12A     -1.014098
      13A     -0.954278    14A     -0.878292    15A     -0.810112
      16A     -0.784931    17A     -0.710493    18A     -0.686735
      19A     -0.673027    20A     -0.620368    21A     -0.602824
      22A     -0.585951    23A     -0.563564    24A     -0.555903
      25A     -0.550654    26A     -0.526182    27A     -0.522109
      28A     -0.499027    29A     -0.496669    30A     -0.482807
      31A     -0.467514    32A     -0.389209

  @DF-RHF Final Energy:  -384.04953337898422

   => Energetics <=

    Nuclear Repulsion Energy =            398.1600284850013054
    One-Electron Energy =               -1312.2469806921142208
    Two-Electron Energy =                 530.0374188281286933
    Total Energy =                       -384.0495333789842789
  Basis Set: (AUG-CC-PVTZ AUX)
    Blend: AUG-CC-PVTZ-RI
    Molecular point group: c1

    Geometry (in Angstrom), charge = 0, multiplicity = 1:

       Center              X                  Y                   Z               Mass
    ------------   -----------------  -----------------  -----------------  -----------------
         O            0.417407547869    -0.589956977781     0.178847340091    15.994914619570
         O           -0.856658452131     1.079132022219    -0.703042659909    15.994914619570
         C            1.618776547869     0.150225022219    -0.172451659909    12.000000000000
         C            1.882183547869     1.205197022219     0.884358340091    12.000000000000
         C            2.714959547869    -0.888480977781    -0.273554659909    12.000000000000
         C           -1.917362452131    -0.891127977781     0.240297340091    12.000000000000
         C           -0.607663952131     0.111433222219    -0.205406459909    12.000000000000
         C           -3.261518452131    -0.210827977781     0.033982340091    12.000000000000
         H            1.444430547869     0.627610022219    -1.140837659909     1.007825032230
         H            2.806293547869     1.745000022219     0.658044340091     1.007825032230
         H            1.061887547869     1.923680022219     0.915465340091     1.007825032230
         H            1.986054547869     0.732383022219     1.864460340091     1.007825032230
         H            3.658926547869    -0.413263977781    -0.554481659909     1.007825032230
         H            2.464692547869    -1.640011977781    -1.025270659909     1.007825032230
         H            2.848805547869    -1.388545977781     0.688914340091     1.007825032230
         H           -1.841282452131    -1.810860977781    -0.351334659909     1.007825032230
         H           -1.770473452131    -1.194911977781     1.281265340091     1.007825032230
         H           -3.391785452131     0.073928022219    -1.011343659909     1.007825032230
         H           -4.076328452131    -0.881181977781     0.318800340091     1.007825032230
         H           -3.332482452131     0.696810022219     0.636234340091     1.007825032230

  Basis Set: AUG-CC-PVTZ
    Blend: AUG-CC-PVTZ
  Basis Set: (AUG-CC-PVTZ AUX)
    Blend: AUG-CC-PVTZ-JKFIT
	 Reference Energy          =    -384.0495333789842221 [Eh]
	 Singles Energy            =      -0.0000000000000000 [Eh]
	 Same-Spin Energy          =      -0.3827536923818977 [Eh]
	 Opposite-Spin Energy      =      -1.2839023094561615 [Eh]
	 Correlation Energy        =      -1.6666560018380592 [Eh]
	 Total Energy              =    -385.7161893808222999 [Eh]

	 ================> DF-SCS-MP2 Energies <==================
	-----------------------------------------------------------
	 SCS Same-Spin Scale       =       0.3333333333333333 [-]
	 SCS Opposite-Spin Scale   =       1.2000000000000000 [-]
	 SCS Same-Spin Energy      =      -0.1275845641272992 [Eh]
	 SCS Opposite-Spin Energy  =      -1.5406827713473936 [Eh]
	 SCS Correlation Energy    =      -1.6682673354746929 [Eh]
	 SCS Total Energy          =    -385.7178007144589174 [Eh]
	-----------------------------------------------------------

  Dipole Moment: [D]
     X:     2.0264      Y:    -0.5804      Z:     0.4043     Total:     2.1463

*** Psi4 exiting successfully. Buy a developer a beer!
