                               Psi4 1.3.2 release

  ==> Input File <==

--------------------------------------------------------------------------
#psi4
#
memory 32 gb

molecule  {
0 1
  O        0.4332560    -0.5778250     0.1734540
  O       -0.8408100     1.0912640    -0.7084360
  C        1.6274354     0.1715707    -0.1827896
  C        1.8980320     1.2173290     0.8789650
  C        2.7308080    -0.8763490    -0.2789480
  C       -1.9015140    -0.8789960     0.2349040
  C       -0.7392266     0.0153843    -0.1632143
  C       -3.2456700    -0.1986960     0.0285890
  H        1.4602790     0.6397420    -1.1462310
  H        2.8221420     1.7571320     0.6526510
  H        1.0777360     1.9358120     0.9100720
  H        2.0019030     0.7445150     1.8590670
  H        3.6747750    -0.4011320    -0.5598750
  H        2.4805410    -1.6278800    -1.0306640
  H        2.8646540    -1.3764140     0.6835210
  H       -1.8254340    -1.7987290    -0.3567280
  H       -1.7546250    -1.1827800     1.2758720
  H       -3.3759370     0.0860600    -1.0167370
  H       -4.0604800    -0.8690500     0.3134070
  H       -3.3166340     0.7089420     0.6308410
units angstrom
no_reorient  #important for SAPT in psi4, default
symmetry c1  #important for SAPT in psi4, default
}

set PROPERTIES_ORIGIN ["COM"]
properties('MP2/aug-cc-pvtz', properties = ['dipole'])
--------------------------------------------------------------------------

    Molecular point group: c1
  Charge       = 0
  Multiplicity = 1
  Basis Set: AUG-CC-PVTZ
    Blend: AUG-CC-PVTZ
  Basis Set: (AUG-CC-PVTZ AUX)
    Blend: AUG-CC-PVTZ-JKFIT

    Orbital Energies [Eh]
    ---------------------

    Doubly Occupied:

       1A    -20.595556     2A    -20.542279     3A    -11.375923
       4A    -11.289221     5A    -11.241911     6A    -11.220813
       7A    -11.217935     8A    -11.216479     9A     -1.450527
      10A     -1.355274    11A     -1.078402    12A     -1.042950
      13A     -0.944081    14A     -0.901105    15A     -0.815461
      16A     -0.762732    17A     -0.698549    18A     -0.667718
      19A     -0.657151    20A     -0.619634    21A     -0.603280
      22A     -0.573989    23A     -0.556659    24A     -0.549194
      25A     -0.537494    26A     -0.519926    27A     -0.509823
      28A     -0.506386    29A     -0.494805    30A     -0.482602
      31A     -0.452374    32A     -0.438852

  @DF-RHF Final Energy:  -384.09066959759588

   => Energetics <=

    Nuclear Repulsion Energy =            396.4639158489801503
    One-Electron Energy =               -1309.2710009623704082
    Two-Electron Energy =                 528.7164155157944379
    Total Energy =                       -384.0906695975958201
  Basis Set: (AUG-CC-PVTZ AUX)
    Blend: AUG-CC-PVTZ-RI
    Molecular point group: c1

    Geometry (in Angstrom), charge = 0, multiplicity = 1:

       Center              X                  Y                   Z               Mass
    ------------   -----------------  -----------------  -----------------  -----------------
         O            0.433389188069    -0.579726376096     0.174439394192    15.994914619570
         O           -0.840676811931     1.089362623904    -0.707450605808    15.994914619570
         C            1.627568588069     0.169669323904    -0.181804205808    12.000000000000
         C            1.898165188069     1.215427623904     0.879950394192    12.000000000000
         C            2.730941188069    -0.878250376096    -0.277962605808    12.000000000000
         C           -1.901380811931    -0.880897376096     0.235889394192    12.000000000000
         C           -0.739093411931     0.013482923904    -0.162228905808    12.000000000000
         C           -3.245536811931    -0.200597376096     0.029574394192    12.000000000000
         H            1.460412188069     0.637840623904    -1.145245605808     1.007825032230
         H            2.822275188069     1.755230623904     0.653636394192     1.007825032230
         H            1.077869188069     1.933910623904     0.911057394192     1.007825032230
         H            2.002036188069     0.742613623904     1.860052394192     1.007825032230
         H            3.674908188069    -0.403033376096    -0.558889605808     1.007825032230
         H            2.480674188069    -1.629781376096    -1.029678605808     1.007825032230
         H            2.864787188069    -1.378315376096     0.684506394192     1.007825032230
         H           -1.825300811931    -1.800630376096    -0.355742605808     1.007825032230
         H           -1.754491811931    -1.184681376096     1.276857394192     1.007825032230
         H           -3.375803811931     0.084158623904    -1.015751605808     1.007825032230
         H           -4.060346811931    -0.870951376096     0.314392394192     1.007825032230
         H           -3.316500811931     0.707040623904     0.631826394192     1.007825032230

  Basis Set: AUG-CC-PVTZ
    Blend: AUG-CC-PVTZ
  Basis Set: (AUG-CC-PVTZ AUX)
    Blend: AUG-CC-PVTZ-JKFIT
	 Reference Energy          =    -384.0906695975958769 [Eh]
	 Singles Energy            =      -0.0000000000000000 [Eh]
	 Same-Spin Energy          =      -0.3837737881733509 [Eh]
	 Opposite-Spin Energy      =      -1.2858543486008838 [Eh]
	 Correlation Energy        =      -1.6696281367742347 [Eh]
	 Total Energy              =    -385.7602977343701127 [Eh]

	 ================> DF-SCS-MP2 Energies <==================
	-----------------------------------------------------------
	 SCS Same-Spin Scale       =       0.3333333333333333 [-]
	 SCS Opposite-Spin Scale   =       1.2000000000000000 [-]
	 SCS Same-Spin Energy      =      -0.1279245960577836 [Eh]
	 SCS Opposite-Spin Energy  =      -1.5430252183210604 [Eh]
	 SCS Correlation Energy    =      -1.6709498143788442 [Eh]
	 SCS Total Energy          =    -385.7616194119747206 [Eh]
	-----------------------------------------------------------

  Dipole Moment: [D]
     X:     0.8291      Y:    -1.2527      Z:     0.6604     Total:     1.6410

*** Psi4 exiting successfully. Buy a developer a beer!
