                               Psi4 1.3.2 release

  ==> Input File <==

--------------------------------------------------------------------------
#psi4
#
memory 32 gb

molecule  {
0 1
  O        0.4120962    -0.5623729     0.1299825
  O       -0.8408100     1.0912640    -0.7084360
  C        1.6346250     0.1623570    -0.1778450
  C        1.8980320     1.2173290     0.8789650
  C        2.7308080    -0.8763490    -0.2789480
  C       -1.9015140    -0.8789960     0.2349040
  C       -0.7451280     0.0062060    -0.1586260
  C       -3.2456700    -0.1986960     0.0285890
  H        1.4253371     0.6243795    -1.1467610
  H        2.8221420     1.7571320     0.6526510
  H        1.0777360     1.9358120     0.9100720
  H        2.0019030     0.7445150     1.8590670
  H        3.6747750    -0.4011320    -0.5598750
  H        2.4805410    -1.6278800    -1.0306640
  H        2.8646540    -1.3764140     0.6835210
  H       -1.8254340    -1.7987290    -0.3567280
  H       -1.7546250    -1.1827800     1.2758720
  H       -3.3759370     0.0860600    -1.0167370
  H       -4.0604800    -0.8690500     0.3134070
  H       -3.3166340     0.7089420     0.6308410
units angstrom
no_reorient  #important for SAPT in psi4, default
symmetry c1  #important for SAPT in psi4, default
}

set PROPERTIES_ORIGIN ["COM"]
properties('MP2/aug-cc-pvtz', properties = ['dipole'])
--------------------------------------------------------------------------

    Molecular point group: c1
  Charge       = 0
  Multiplicity = 1
  Basis Set: AUG-CC-PVTZ
    Blend: AUG-CC-PVTZ
  Basis Set: (AUG-CC-PVTZ AUX)
    Blend: AUG-CC-PVTZ-JKFIT

    Orbital Energies [Eh]
    ---------------------

    Doubly Occupied:

       1A    -20.594670     2A    -20.533081     3A    -11.371471
       4A    -11.292138     5A    -11.240810     6A    -11.223191
       7A    -11.218579     8A    -11.217113     9A     -1.458709
      10A     -1.346658    11A     -1.083245    12A     -1.045047
      13A     -0.946711    14A     -0.904561    15A     -0.821931
      16A     -0.760146    17A     -0.696455    18A     -0.670104
      19A     -0.657793    20A     -0.622816    21A     -0.603216
      22A     -0.572925    23A     -0.559722    24A     -0.550393
      25A     -0.538829    26A     -0.518494    27A     -0.509446
      28A     -0.506159    29A     -0.492816    30A     -0.479928
      31A     -0.449895    32A     -0.437056

  @DF-RHF Final Energy:  -384.09141786274313

   => Energetics <=

    Nuclear Repulsion Energy =            397.1984802951688494
    One-Electron Energy =               -1310.7315786107928943
    Two-Electron Energy =                 529.4416804528809735
    Total Energy =                       -384.0914178627431284
  Basis Set: (AUG-CC-PVTZ AUX)
    Blend: AUG-CC-PVTZ-RI
    Molecular point group: c1

    Geometry (in Angstrom), charge = 0, multiplicity = 1:

       Center              X                  Y                   Z               Mass
    ------------   -----------------  -----------------  -----------------  -----------------
         O            0.415315144506    -0.564368762275     0.135976884513    15.994914619570
         O           -0.837591055494     1.089268137725    -0.702441615487    15.994914619570
         C            1.637843944506     0.160361137725    -0.171850615487    12.000000000000
         C            1.901250944506     1.215333137725     0.884959384513    12.000000000000
         C            2.734026944506    -0.878344862275    -0.272953615487    12.000000000000
         C           -1.898295055494    -0.880991862275     0.240898384513    12.000000000000
         C           -0.741909055494     0.004210137725    -0.152631615487    12.000000000000
         C           -3.242451055494    -0.200691862275     0.034583384513    12.000000000000
         H            1.428556044506     0.622383637725    -1.140766615487     1.007825032230
         H            2.825360944506     1.755136137725     0.658645384513     1.007825032230
         H            1.080954944506     1.933816137725     0.916066384513     1.007825032230
         H            2.005121944506     0.742519137725     1.865061384513     1.007825032230
         H            3.677993944506    -0.403127862275    -0.553880615487     1.007825032230
         H            2.483759944506    -1.629875862275    -1.024669615487     1.007825032230
         H            2.867872944506    -1.378409862275     0.689515384513     1.007825032230
         H           -1.822215055494    -1.800724862275    -0.350733615487     1.007825032230
         H           -1.751406055494    -1.184775862275     1.281866384513     1.007825032230
         H           -3.372718055494     0.084064137725    -1.010742615487     1.007825032230
         H           -4.057261055494    -0.871045862275     0.319401384513     1.007825032230
         H           -3.313415055494     0.706946137725     0.636835384513     1.007825032230

  Basis Set: AUG-CC-PVTZ
    Blend: AUG-CC-PVTZ
  Basis Set: (AUG-CC-PVTZ AUX)
    Blend: AUG-CC-PVTZ-JKFIT
	 Reference Energy          =    -384.0914178627431284 [Eh]
	 Singles Energy            =      -0.0000000000000000 [Eh]
	 Same-Spin Energy          =      -0.3835211066557518 [Eh]
	 Opposite-Spin Energy      =      -1.2846407198805450 [Eh]
	 Correlation Energy        =      -1.6681618265362967 [Eh]
	 Total Energy              =    -385.7595796892794056 [Eh]

	 ================> DF-SCS-MP2 Energies <==================
	-----------------------------------------------------------
	 SCS Same-Spin Scale       =       0.3333333333333333 [-]
	 SCS Opposite-Spin Scale   =       1.2000000000000000 [-]
	 SCS Same-Spin Energy      =      -0.1278403688852506 [Eh]
	 SCS Opposite-Spin Energy  =      -1.5415688638566538 [Eh]
	 SCS Correlation Energy    =      -1.6694092327419043 [Eh]
	 SCS Total Energy          =    -385.7608270954850127 [Eh]
	-----------------------------------------------------------

  Dipole Moment: [D]
     X:     1.0486      Y:    -1.3962      Z:     0.7903     Total:     1.9167

*** Psi4 exiting successfully. Buy a developer a beer!
