                               Psi4 1.3.2 release

  ==> Input File <==

--------------------------------------------------------------------------
#psi4
#
memory 32 gb

molecule  {
0 1
  O        0.4332560    -0.5778250     0.1734540
  O       -0.8408100     1.0912640    -0.7084360
  C        1.5901344     0.2167694    -0.2070983
  C        1.8980320     1.2173290     0.8789650
  C        2.7308080    -0.8763490    -0.2789480
  C       -1.9015140    -0.8789960     0.2349040
  C       -0.7083894     0.0605840    -0.1857645
  C       -3.2456700    -0.1986960     0.0285890
  H        1.4602790     0.6397420    -1.1462310
  H        2.8221420     1.7571320     0.6526510
  H        1.0777360     1.9358120     0.9100720
  H        2.0019030     0.7445150     1.8590670
  H        3.6747750    -0.4011320    -0.5598750
  H        2.4805410    -1.6278800    -1.0306640
  H        2.8646540    -1.3764140     0.6835210
  H       -1.8254340    -1.7987290    -0.3567280
  H       -1.7546250    -1.1827800     1.2758720
  H       -3.3759370     0.0860600    -1.0167370
  H       -4.0604800    -0.8690500     0.3134070
  H       -3.3166340     0.7089420     0.6308410
units angstrom
no_reorient  #important for SAPT in psi4, default
symmetry c1  #important for SAPT in psi4, default
}

set PROPERTIES_ORIGIN ["COM"]
properties('MP2/aug-cc-pvtz', properties = ['dipole'])
--------------------------------------------------------------------------

    Molecular point group: c1
  Charge       = 0
  Multiplicity = 1
  Basis Set: AUG-CC-PVTZ
    Blend: AUG-CC-PVTZ
  Basis Set: (AUG-CC-PVTZ AUX)
    Blend: AUG-CC-PVTZ-JKFIT

    Orbital Energies [Eh]
    ---------------------

    Doubly Occupied:

       1A    -20.597689     2A    -20.550004     3A    -11.371448
       4A    -11.288022     5A    -11.237649     6A    -11.221092
       7A    -11.217954     8A    -11.214720     9A     -1.467882
      10A     -1.380136    11A     -1.069805    12A     -1.034263
      13A     -0.940199    14A     -0.890686    15A     -0.816183
      16A     -0.772380    17A     -0.704088    18A     -0.675040
      19A     -0.660942    20A     -0.614821    21A     -0.602891
      22A     -0.579771    23A     -0.552461    24A     -0.551877
      25A     -0.540205    26A     -0.521494    27A     -0.513669
      28A     -0.509224    29A     -0.495360    30A     -0.486421
      31A     -0.454045    32A     -0.429072

  @DF-RHF Final Energy:  -384.07964039211038

   => Energetics <=

    Nuclear Repulsion Energy =            396.9674744210064432
    One-Electron Energy =               -1310.1712483758296912
    Two-Electron Energy =                 529.1241335627128137
    Total Energy =                       -384.0796403921103774
  Basis Set: (AUG-CC-PVTZ AUX)
    Blend: AUG-CC-PVTZ-RI
    Molecular point group: c1

    Geometry (in Angstrom), charge = 0, multiplicity = 1:

       Center              X                  Y                   Z               Mass
    ------------   -----------------  -----------------  -----------------  -----------------
         O            0.434057374733    -0.589071189563     0.179283370189    15.994914619570
         O           -0.840008625267     1.080017810437    -0.702606629811    15.994914619570
         C            1.590935774733     0.205523210437    -0.201268929811    12.000000000000
         C            1.898833374733     1.206082810437     0.884794370189    12.000000000000
         C            2.731609374733    -0.887595189563    -0.273118629811    12.000000000000
         C           -1.900712625267    -0.890242189563     0.240733370189    12.000000000000
         C           -0.707588025267     0.049337810437    -0.179935129811    12.000000000000
         C           -3.244868625267    -0.209942189563     0.034418370189    12.000000000000
         H            1.461080374733     0.628495810437    -1.140401629811     1.007825032230
         H            2.822943374733     1.745885810437     0.658480370189     1.007825032230
         H            1.078537374733     1.924565810437     0.915901370189     1.007825032230
         H            2.002704374733     0.733268810437     1.864896370189     1.007825032230
         H            3.675576374733    -0.412378189563    -0.554045629811     1.007825032230
         H            2.481342374733    -1.639126189563    -1.024834629811     1.007825032230
         H            2.865455374733    -1.387660189563     0.689350370189     1.007825032230
         H           -1.824632625267    -1.809975189563    -0.350898629811     1.007825032230
         H           -1.753823625267    -1.194026189563     1.281701370189     1.007825032230
         H           -3.375135625267     0.074813810437    -1.010907629811     1.007825032230
         H           -4.059678625267    -0.880296189563     0.319236370189     1.007825032230
         H           -3.315832625267     0.697695810437     0.636670370189     1.007825032230

  Basis Set: AUG-CC-PVTZ
    Blend: AUG-CC-PVTZ
  Basis Set: (AUG-CC-PVTZ AUX)
    Blend: AUG-CC-PVTZ-JKFIT
	 Reference Energy          =    -384.0796403921103774 [Eh]
	 Singles Energy            =      -0.0000000000000000 [Eh]
	 Same-Spin Energy          =      -0.3828167264769529 [Eh]
	 Opposite-Spin Energy      =      -1.2846270502772168 [Eh]
	 Correlation Energy        =      -1.6674437767541697 [Eh]
	 Total Energy              =    -385.7470841688645464 [Eh]

	 ================> DF-SCS-MP2 Energies <==================
	-----------------------------------------------------------
	 SCS Same-Spin Scale       =       0.3333333333333333 [-]
	 SCS Opposite-Spin Scale   =       1.2000000000000000 [-]
	 SCS Same-Spin Energy      =      -0.1276055754923176 [Eh]
	 SCS Opposite-Spin Energy  =      -1.5415524603326600 [Eh]
	 SCS Correlation Energy    =      -1.6691580358249776 [Eh]
	 SCS Total Energy          =    -385.7487984279353554 [Eh]
	-----------------------------------------------------------

  Dipole Moment: [D]
     X:     0.9054      Y:    -0.9289      Z:     0.5321     Total:     1.4020

*** Psi4 exiting successfully. Buy a developer a beer!
