                               Psi4 1.3.2 release

  ==> Input File <==

--------------------------------------------------------------------------
#psi4
#
memory 32 gb

molecule  {
0 1
  O        0.4332560    -0.5778250     0.1734540
  O       -0.8408100     1.0912640    -0.7084360
  C        1.6346250     0.1623570    -0.1778450
  C        1.8980320     1.2173290     0.8789650
  C        2.7308080    -0.8763490    -0.2789480
  C       -1.9015140    -0.8789960     0.2349040
  C       -0.7370818    -0.0122426    -0.1755995
  C       -3.2456700    -0.1986960     0.0285890
  H        1.4602790     0.6397420    -1.1462310
  H        2.8221420     1.7571320     0.6526510
  H        1.0777360     1.9358120     0.9100720
  H        2.0019030     0.7445150     1.8590670
  H        3.6747750    -0.4011320    -0.5598750
  H        2.4805410    -1.6278800    -1.0306640
  H        2.8646540    -1.3764140     0.6835210
  H       -1.8096651    -1.7918439    -0.3650942
  H       -1.7546250    -1.1827800     1.2758720
  H       -3.3759370     0.0860600    -1.0167370
  H       -4.0604800    -0.8690500     0.3134070
  H       -3.3166340     0.7089420     0.6308410
units angstrom
no_reorient  #important for SAPT in psi4, default
symmetry c1  #important for SAPT in psi4, default
}

set PROPERTIES_ORIGIN ["COM"]
properties('MP2/aug-cc-pvtz', properties = ['dipole'])
--------------------------------------------------------------------------

    Molecular point group: c1
  Charge       = 0
  Multiplicity = 1
  Basis Set: AUG-CC-PVTZ
    Blend: AUG-CC-PVTZ
  Basis Set: (AUG-CC-PVTZ AUX)
    Blend: AUG-CC-PVTZ-JKFIT

    Orbital Energies [Eh]
    ---------------------

    Doubly Occupied:

       1A    -20.597857     2A    -20.538042     3A    -11.377065
       4A    -11.290888     5A    -11.242525     6A    -11.221523
       7A    -11.218482     8A    -11.216723     9A     -1.449997
      10A     -1.345258    11A     -1.081546    12A     -1.044993
      13A     -0.945433    14A     -0.904349    15A     -0.817461
      16A     -0.762313    17A     -0.695860    18A     -0.667594
      19A     -0.655863    20A     -0.620723    21A     -0.603207
      22A     -0.572866    23A     -0.558168    24A     -0.549558
      25A     -0.537366    26A     -0.519181    27A     -0.510580
      28A     -0.505536    29A     -0.494543    30A     -0.480600
      31A     -0.450165    32A     -0.438324

  @DF-RHF Final Energy:  -384.08930788487697

   => Energetics <=

    Nuclear Repulsion Energy =            396.3928162014092891
    One-Electron Energy =               -1309.1350709271039250
    Two-Electron Energy =                 528.6529468408176626
    Total Energy =                       -384.0893078848770301
  Basis Set: (AUG-CC-PVTZ AUX)
    Blend: AUG-CC-PVTZ-RI
    Molecular point group: c1

    Geometry (in Angstrom), charge = 0, multiplicity = 1:

       Center              X                  Y                   Z               Mass
    ------------   -----------------  -----------------  -----------------  -----------------
         O            0.432287353277    -0.575977804050     0.175281190592    15.994914619570
         O           -0.841778646723     1.093111195950    -0.706608809408    15.994914619570
         C            1.633656353277     0.164204195950    -0.176017809408    12.000000000000
         C            1.897063353277     1.219176195950     0.880792190592    12.000000000000
         C            2.729839353277    -0.874501804050    -0.277120809408    12.000000000000
         C           -1.902482646723    -0.877148804050     0.236731190592    12.000000000000
         C           -0.738050446723    -0.010395404050    -0.173772309408    12.000000000000
         C           -3.246638646723    -0.196848804050     0.030416190592    12.000000000000
         H            1.459310353277     0.641589195950    -1.144403809408     1.007825032230
         H            2.821173353277     1.758979195950     0.654478190592     1.007825032230
         H            1.076767353277     1.937659195950     0.911899190592     1.007825032230
         H            2.000934353277     0.746362195950     1.860894190592     1.007825032230
         H            3.673806353277    -0.399284804050    -0.558047809408     1.007825032230
         H            2.479572353277    -1.626032804050    -1.028836809408     1.007825032230
         H            2.863685353277    -1.374566804050     0.685348190592     1.007825032230
         H           -1.810633746723    -1.789996704050    -0.363267009408     1.007825032230
         H           -1.755593646723    -1.180932804050     1.277699190592     1.007825032230
         H           -3.376905646723     0.087907195950    -1.014909809408     1.007825032230
         H           -4.061448646723    -0.867202804050     0.315234190592     1.007825032230
         H           -3.317602646723     0.710789195950     0.632668190592     1.007825032230

  Basis Set: AUG-CC-PVTZ
    Blend: AUG-CC-PVTZ
  Basis Set: (AUG-CC-PVTZ AUX)
    Blend: AUG-CC-PVTZ-JKFIT
	 Reference Energy          =    -384.0893078848769733 [Eh]
	 Singles Energy            =      -0.0000000000000000 [Eh]
	 Same-Spin Energy          =      -0.3841592498765533 [Eh]
	 Opposite-Spin Energy      =      -1.2864253055323263 [Eh]
	 Correlation Energy        =      -1.6705845554088796 [Eh]
	 Total Energy              =    -385.7598924402858529 [Eh]

	 ================> DF-SCS-MP2 Energies <==================
	-----------------------------------------------------------
	 SCS Same-Spin Scale       =       0.3333333333333333 [-]
	 SCS Opposite-Spin Scale   =       1.2000000000000000 [-]
	 SCS Same-Spin Energy      =      -0.1280530832921844 [Eh]
	 SCS Opposite-Spin Energy  =      -1.5437103666387915 [Eh]
	 SCS Correlation Energy    =      -1.6717634499309759 [Eh]
	 SCS Total Energy          =    -385.7610713348079230 [Eh]
	-----------------------------------------------------------

  Dipole Moment: [D]
     X:     0.9016      Y:    -1.3660      Z:     0.6975     Total:     1.7792

*** Psi4 exiting successfully. Buy a developer a beer!
