                               Psi4 1.3.2 release

  ==> Input File <==

--------------------------------------------------------------------------
#psi4
#
memory 32 gb

molecule  {
0 1
  O        0.4332560    -0.5778250     0.1734540
  O       -0.8408100     1.0912640    -0.7084360
  C        1.6346250     0.1623570    -0.1778450
  C        1.8980320     1.2173290     0.8789650
  C        2.7308080    -0.8763490    -0.2789480
  C       -1.9015140    -0.8789960     0.2349040
  C       -0.6684718     0.0648856    -0.1847129
  C       -3.2456700    -0.1986960     0.0285890
  H        1.4602790     0.6397420    -1.1462310
  H        2.8221420     1.7571320     0.6526510
  H        1.0777360     1.9358120     0.9100720
  H        2.0019030     0.7445150     1.8590670
  H        3.6747750    -0.4011320    -0.5598750
  H        2.4805410    -1.6278800    -1.0306640
  H        2.8646540    -1.3764140     0.6835210
  H       -1.8254340    -1.7987290    -0.3567280
  H       -1.7546250    -1.1827800     1.2758720
  H       -3.3759370     0.0860600    -1.0167370
  H       -4.0604800    -0.8690500     0.3134070
  H       -3.3166340     0.7089420     0.6308410
units angstrom
no_reorient  #important for SAPT in psi4, default
symmetry c1  #important for SAPT in psi4, default
}

set PROPERTIES_ORIGIN ["COM"]
properties('MP2/aug-cc-pvtz', properties = ['dipole'])
--------------------------------------------------------------------------

    Molecular point group: c1
  Charge       = 0
  Multiplicity = 1
  Basis Set: AUG-CC-PVTZ
    Blend: AUG-CC-PVTZ
  Basis Set: (AUG-CC-PVTZ AUX)
    Blend: AUG-CC-PVTZ-JKFIT

    Orbital Energies [Eh]
    ---------------------

    Doubly Occupied:

       1A    -20.602959     2A    -20.545615     3A    -11.370211
       4A    -11.293379     5A    -11.233830     6A    -11.223670
       7A    -11.220698     8A    -11.211472     9A     -1.472776
      10A     -1.385838    11A     -1.077853    12A     -1.030280
      13A     -0.949195    14A     -0.888892    15A     -0.814504
      16A     -0.771924    17A     -0.700098    18A     -0.675568
      19A     -0.663550    20A     -0.618337    21A     -0.603111
      22A     -0.581828    23A     -0.558474    24A     -0.552943
      25A     -0.543486    26A     -0.519690    27A     -0.513111
      28A     -0.506484    29A     -0.493126    30A     -0.486338
      31A     -0.459908    32A     -0.422022

  @DF-RHF Final Energy:  -384.08292128841811

   => Energetics <=

    Nuclear Repulsion Energy =            397.2548249015866872
    One-Electron Energy =               -1310.6931524926030761
    Two-Electron Energy =                 529.3554063025982259
    Total Energy =                       -384.0829212884181061
  Basis Set: (AUG-CC-PVTZ AUX)
    Blend: AUG-CC-PVTZ-RI
    Molecular point group: c1

    Geometry (in Angstrom), charge = 0, multiplicity = 1:

       Center              X                  Y                   Z               Mass
    ------------   -----------------  -----------------  -----------------  -----------------
         O            0.425331790163    -0.583891052761     0.176150641760    15.994914619570
         O           -0.848734209837     1.085197947239    -0.705739358240    15.994914619570
         C            1.626700790163     0.156290947239    -0.175148358240    12.000000000000
         C            1.890107790163     1.211262947239     0.881661641760    12.000000000000
         C            2.722883790163    -0.882415052761    -0.276251358240    12.000000000000
         C           -1.909438209837    -0.885062052761     0.237600641760    12.000000000000
         C           -0.676396009837     0.058819547239    -0.182016258240    12.000000000000
         C           -3.253594209837    -0.204762052761     0.031285641760    12.000000000000
         H            1.452354790163     0.633675947239    -1.143534358240     1.007825032230
         H            2.814217790163     1.751065947239     0.655347641760     1.007825032230
         H            1.069811790163     1.929745947239     0.912768641760     1.007825032230
         H            1.993978790163     0.738448947239     1.861763641760     1.007825032230
         H            3.666850790163    -0.407198052761    -0.557178358240     1.007825032230
         H            2.472616790163    -1.633946052761    -1.027967358240     1.007825032230
         H            2.856729790163    -1.382480052761     0.686217641760     1.007825032230
         H           -1.833358209837    -1.804795052761    -0.354031358240     1.007825032230
         H           -1.762549209837    -1.188846052761     1.278568641760     1.007825032230
         H           -3.383861209837     0.079993947239    -1.014040358240     1.007825032230
         H           -4.068404209837    -0.875116052761     0.316103641760     1.007825032230
         H           -3.324558209837     0.702875947239     0.633537641760     1.007825032230

  Basis Set: AUG-CC-PVTZ
    Blend: AUG-CC-PVTZ
  Basis Set: (AUG-CC-PVTZ AUX)
    Blend: AUG-CC-PVTZ-JKFIT
	 Reference Energy          =    -384.0829212884181061 [Eh]
	 Singles Energy            =      -0.0000000000000000 [Eh]
	 Same-Spin Energy          =      -0.3827778445407815 [Eh]
	 Opposite-Spin Energy      =      -1.2839674104788728 [Eh]
	 Correlation Energy        =      -1.6667452550196542 [Eh]
	 Total Energy              =    -385.7496665434377405 [Eh]

	 ================> DF-SCS-MP2 Energies <==================
	-----------------------------------------------------------
	 SCS Same-Spin Scale       =       0.3333333333333333 [-]
	 SCS Opposite-Spin Scale   =       1.2000000000000000 [-]
	 SCS Same-Spin Energy      =      -0.1275926148469271 [Eh]
	 SCS Opposite-Spin Energy  =      -1.5407608925746472 [Eh]
	 SCS Correlation Energy    =      -1.6683535074215743 [Eh]
	 SCS Total Energy          =    -385.7512747958396631 [Eh]
	-----------------------------------------------------------

  Dipole Moment: [D]
     X:     1.3825      Y:    -0.9826      Z:     0.5595     Total:     1.7860

*** Psi4 exiting successfully. Buy a developer a beer!
