                               Psi4 1.3.2 release

  ==> Input File <==

--------------------------------------------------------------------------
#psi4
#
memory 32 gb

molecule  {
0 1
  O        0.4332560    -0.5778250     0.1734540
  O       -0.8408100     1.0912640    -0.7084360
  C        1.6346250     0.1623570    -0.1778450
  C        1.8980320     1.2173290     0.8789650
  C        2.7308080    -0.8763490    -0.2789480
  C       -1.9015140    -0.8789960     0.2349040
  C       -0.7608115     0.1840606    -0.2487468
  C       -3.2456700    -0.1986960     0.0285890
  H        1.4602790     0.6397420    -1.1462310
  H        2.8221420     1.7571320     0.6526510
  H        1.0777360     1.9358120     0.9100720
  H        2.0019030     0.7445150     1.8590670
  H        3.6747750    -0.4011320    -0.5598750
  H        2.4805410    -1.6278800    -1.0306640
  H        2.8646540    -1.3764140     0.6835210
  H       -1.8254340    -1.7987290    -0.3567280
  H       -1.7546250    -1.1827800     1.2758720
  H       -3.3759370     0.0860600    -1.0167370
  H       -4.0604800    -0.8690500     0.3134070
  H       -3.3166340     0.7089420     0.6308410
units angstrom
no_reorient  #important for SAPT in psi4, default
symmetry c1  #important for SAPT in psi4, default
}

set PROPERTIES_ORIGIN ["COM"]
properties('MP2/aug-cc-pvtz', properties = ['dipole'])
--------------------------------------------------------------------------

    Molecular point group: c1
  Charge       = 0
  Multiplicity = 1
  Basis Set: AUG-CC-PVTZ
    Blend: AUG-CC-PVTZ
  Basis Set: (AUG-CC-PVTZ AUX)
    Blend: AUG-CC-PVTZ-JKFIT

    Orbital Energies [Eh]
    ---------------------

    Doubly Occupied:

       1A    -20.580656     2A    -20.560543     3A    -11.360030
       4A    -11.275375     5A    -11.236753     6A    -11.215578
       7A    -11.212176     8A    -11.211548     9A     -1.567722
      10A     -1.351484    11A     -1.056586    12A     -1.030394
      13A     -0.938071    14A     -0.873452    15A     -0.793571
      16A     -0.765267    17A     -0.738673    18A     -0.695281
      19A     -0.684475    20A     -0.615710    21A     -0.604088
      22A     -0.593638    23A     -0.565351    24A     -0.545901
      25A     -0.539536    26A     -0.529036    27A     -0.511010
      28A     -0.504782    29A     -0.495162    30A     -0.478319
      31A     -0.440053    32A     -0.405682

  @DF-RHF Final Energy:  -384.00724824222800

   => Energetics <=

    Nuclear Repulsion Energy =            397.6641899431280081
    One-Electron Energy =               -1311.3910701786076061
    Two-Electron Energy =                 529.7196319932515962
    Total Energy =                       -384.0072482422280018
  Basis Set: (AUG-CC-PVTZ AUX)
    Blend: AUG-CC-PVTZ-RI
    Molecular point group: c1

    Geometry (in Angstrom), charge = 0, multiplicity = 1:

       Center              X                  Y                   Z               Mass
    ------------   -----------------  -----------------  -----------------  -----------------
         O            0.434877282917    -0.596210608694     0.182770060368    15.994914619570
         O           -0.839188717083     1.072878391306    -0.699119939632    15.994914619570
         C            1.636246282917     0.143971391306    -0.168528939632    12.000000000000
         C            1.899653282917     1.198943391306     0.888281060368    12.000000000000
         C            2.732429282917    -0.894734608694    -0.269631939632    12.000000000000
         C           -1.899892717083    -0.897381608694     0.244220060368    12.000000000000
         C           -0.759190217083     0.165674991306    -0.239430739632    12.000000000000
         C           -3.244048717083    -0.217081608694     0.037905060368    12.000000000000
         H            1.461900282917     0.621356391306    -1.136914939632     1.007825032230
         H            2.823763282917     1.738746391306     0.661967060368     1.007825032230
         H            1.079357282917     1.917426391306     0.919388060368     1.007825032230
         H            2.003524282917     0.726129391306     1.868383060368     1.007825032230
         H            3.676396282917    -0.419517608694    -0.550558939632     1.007825032230
         H            2.482162282917    -1.646265608694    -1.021347939632     1.007825032230
         H            2.866275282917    -1.394799608694     0.692837060368     1.007825032230
         H           -1.823812717083    -1.817114608694    -0.347411939632     1.007825032230
         H           -1.753003717083    -1.201165608694     1.285188060368     1.007825032230
         H           -3.374315717083     0.067674391306    -1.007420939632     1.007825032230
         H           -4.058858717083    -0.887435608694     0.322723060368     1.007825032230
         H           -3.315012717083     0.690556391306     0.640157060368     1.007825032230

  Basis Set: AUG-CC-PVTZ
    Blend: AUG-CC-PVTZ
  Basis Set: (AUG-CC-PVTZ AUX)
    Blend: AUG-CC-PVTZ-JKFIT
	 Reference Energy          =    -384.0072482422280018 [Eh]
	 Singles Energy            =      -0.0000000000000000 [Eh]
	 Same-Spin Energy          =      -0.3815052161696800 [Eh]
	 Opposite-Spin Energy      =      -1.2819895539606960 [Eh]
	 Correlation Energy        =      -1.6634947701303759 [Eh]
	 Total Energy              =    -385.6707430123584004 [Eh]

	 ================> DF-SCS-MP2 Energies <==================
	-----------------------------------------------------------
	 SCS Same-Spin Scale       =       0.3333333333333333 [-]
	 SCS Opposite-Spin Scale   =       1.2000000000000000 [-]
	 SCS Same-Spin Energy      =      -0.1271684053898933 [Eh]
	 SCS Opposite-Spin Energy  =      -1.5383874647528353 [Eh]
	 SCS Correlation Energy    =      -1.6655558701427287 [Eh]
	 SCS Total Energy          =    -385.6728041123707271 [Eh]
	-----------------------------------------------------------

  Dipole Moment: [D]
     X:     0.1195      Y:    -0.1895      Z:     0.0707     Total:     0.2350

*** Psi4 exiting successfully. Buy a developer a beer!
