                               Psi4 1.3.2 release

  ==> Input File <==

--------------------------------------------------------------------------
#psi4
#
memory 32 gb

molecule  {
0 1
  O        0.4332560    -0.5778250     0.1734540
  O       -0.8408100     1.0912640    -0.7084360
  C        1.6346250     0.1623570    -0.1778450
  C        1.8980320     1.2173290     0.8789650
  C        2.7308080    -0.8763490    -0.2789480
  C       -1.9015140    -0.8789960     0.2349040
  C       -0.7372863    -0.0827213    -0.1135656
  C       -3.2456700    -0.1986960     0.0285890
  H        1.4602790     0.6397420    -1.1462310
  H        2.8221420     1.7571320     0.6526510
  H        1.0777360     1.9358120     0.9100720
  H        2.0019030     0.7445150     1.8590670
  H        3.6747750    -0.4011320    -0.5598750
  H        2.4805410    -1.6278800    -1.0306640
  H        2.8646540    -1.3764140     0.6835210
  H       -1.8254340    -1.7987290    -0.3567280
  H       -1.7546250    -1.1827800     1.2758720
  H       -3.3759370     0.0860600    -1.0167370
  H       -4.0604800    -0.8690500     0.3134070
  H       -3.3166340     0.7089420     0.6308410
units angstrom
no_reorient  #important for SAPT in psi4, default
symmetry c1  #important for SAPT in psi4, default
}

set PROPERTIES_ORIGIN ["COM"]
properties('MP2/aug-cc-pvtz', properties = ['dipole'])
--------------------------------------------------------------------------

    Molecular point group: c1
  Charge       = 0
  Multiplicity = 1
  Basis Set: AUG-CC-PVTZ
    Blend: AUG-CC-PVTZ
  Basis Set: (AUG-CC-PVTZ AUX)
    Blend: AUG-CC-PVTZ-JKFIT

    Orbital Energies [Eh]
    ---------------------

    Doubly Occupied:

       1A    -20.609486     2A    -20.519853     3A    -11.382648
       4A    -11.296624     5A    -11.244937     6A    -11.224864
       7A    -11.220490     8A    -11.218323     9A     -1.462178
      10A     -1.291842    11A     -1.092708    12A     -1.053642
      13A     -0.947888    14A     -0.916925    15A     -0.830411
      16A     -0.765179    17A     -0.692912    18A     -0.672597
      19A     -0.655094    20A     -0.625246    21A     -0.598958
      22A     -0.568159    23A     -0.559915    24A     -0.551229
      25A     -0.538829    26A     -0.521458    27A     -0.508016
      28A     -0.506423    29A     -0.488886    30A     -0.479492
      31A     -0.432346    32A     -0.428488

  @DF-RHF Final Energy:  -384.06947696347896

   => Energetics <=

    Nuclear Repulsion Energy =            396.1380859259270437
    One-Electron Energy =               -1308.6030296813730729
    Two-Electron Energy =                 528.3954667919670101
    Total Energy =                       -384.0694769634790191
  Basis Set: (AUG-CC-PVTZ AUX)
    Blend: AUG-CC-PVTZ-RI
    Molecular point group: c1

    Geometry (in Angstrom), charge = 0, multiplicity = 1:

       Center              X                  Y                   Z               Mass
    ------------   -----------------  -----------------  -----------------  -----------------
         O            0.432445396891    -0.568632387264     0.168795884958    15.994914619570
         O           -0.841620603109     1.100456612736    -0.713094115042    15.994914619570
         C            1.633814396891     0.171549612736    -0.182503115042    12.000000000000
         C            1.897221396891     1.226521612736     0.874306884958    12.000000000000
         C            2.729997396891    -0.867156387264    -0.283606115042    12.000000000000
         C           -1.902324603109    -0.869803387264     0.230245884958    12.000000000000
         C           -0.738096903109    -0.073528687264    -0.118223715042    12.000000000000
         C           -3.246480603109    -0.189503387264     0.023930884958    12.000000000000
         H            1.459468396891     0.648934612736    -1.150889115042     1.007825032230
         H            2.821331396891     1.766324612736     0.647992884958     1.007825032230
         H            1.076925396891     1.945004612736     0.905413884958     1.007825032230
         H            2.001092396891     0.753707612736     1.854408884958     1.007825032230
         H            3.673964396891    -0.391939387264    -0.564533115042     1.007825032230
         H            2.479730396891    -1.618687387264    -1.035322115042     1.007825032230
         H            2.863843396891    -1.367221387264     0.678862884958     1.007825032230
         H           -1.826244603109    -1.789536387264    -0.361386115042     1.007825032230
         H           -1.755435603109    -1.173587387264     1.271213884958     1.007825032230
         H           -3.376747603109     0.095252612736    -1.021395115042     1.007825032230
         H           -4.061290603109    -0.859857387264     0.308748884958     1.007825032230
         H           -3.317444603109     0.718134612736     0.626182884958     1.007825032230

  Basis Set: AUG-CC-PVTZ
    Blend: AUG-CC-PVTZ
  Basis Set: (AUG-CC-PVTZ AUX)
    Blend: AUG-CC-PVTZ-JKFIT
	 Reference Energy          =    -384.0694769634789623 [Eh]
	 Singles Energy            =      -0.0000000000000000 [Eh]
	 Same-Spin Energy          =      -0.3859445112331195 [Eh]
	 Opposite-Spin Energy      =      -1.2894240058367763 [Eh]
	 Correlation Energy        =      -1.6753685170698958 [Eh]
	 Total Energy              =    -385.7448454805488609 [Eh]

	 ================> DF-SCS-MP2 Energies <==================
	-----------------------------------------------------------
	 SCS Same-Spin Scale       =       0.3333333333333333 [-]
	 SCS Opposite-Spin Scale   =       1.2000000000000000 [-]
	 SCS Same-Spin Energy      =      -0.1286481704110398 [Eh]
	 SCS Opposite-Spin Energy  =      -1.5473088070041314 [Eh]
	 SCS Correlation Energy    =      -1.6759569774151712 [Eh]
	 SCS Total Energy          =    -385.7454339408941451 [Eh]
	-----------------------------------------------------------

  Dipole Moment: [D]
     X:     1.1264      Y:    -1.7885      Z:     0.9510     Total:     2.3178

*** Psi4 exiting successfully. Buy a developer a beer!
