                               Psi4 1.3.2 release

  ==> Input File <==

--------------------------------------------------------------------------
#psi4
#
memory 32 gb

molecule  {
0 1
  O        0.4332560    -0.5778250     0.1734540
  O       -0.8408100     1.0912640    -0.7084360
  C        1.6346250     0.1623570    -0.1778450
  C        1.8980320     1.2173290     0.8789650
  C        2.7308080    -0.8763490    -0.2789480
  C       -1.9015140    -0.8789960     0.2349040
  C       -0.7410607    -0.0029849    -0.1671281
  C       -3.2456700    -0.1986960     0.0285890
  H        1.4602790     0.6397420    -1.1462310
  H        2.8221420     1.7571320     0.6526510
  H        1.0777360     1.9358120     0.9100720
  H        2.0019030     0.7445150     1.8590670
  H        3.6747750    -0.4011320    -0.5598750
  H        2.4805410    -1.6278800    -1.0306640
  H        2.8646540    -1.3764140     0.6835210
  H       -1.8175463    -1.7953213    -0.3609338
  H       -1.7546250    -1.1827800     1.2758720
  H       -3.3759370     0.0860600    -1.0167370
  H       -4.0604800    -0.8690500     0.3134070
  H       -3.3166340     0.7089420     0.6308410
units angstrom
no_reorient  #important for SAPT in psi4, default
symmetry c1  #important for SAPT in psi4, default
}

set PROPERTIES_ORIGIN ["COM"]
properties('MP2/aug-cc-pvtz', properties = ['dipole'])
--------------------------------------------------------------------------

    Molecular point group: c1
  Charge       = 0
  Multiplicity = 1
  Basis Set: AUG-CC-PVTZ
    Blend: AUG-CC-PVTZ
  Basis Set: (AUG-CC-PVTZ AUX)
    Blend: AUG-CC-PVTZ-JKFIT

    Orbital Energies [Eh]
    ---------------------

    Doubly Occupied:

       1A    -20.596553     2A    -20.539391     3A    -11.376987
       4A    -11.290273     5A    -11.242544     6A    -11.221142
       7A    -11.218519     8A    -11.216514     9A     -1.448871
      10A     -1.347645    11A     -1.080957    12A     -1.044907
      13A     -0.945135    14A     -0.903783    15A     -0.816568
      16A     -0.761492    17A     -0.696960    18A     -0.667078
      19A     -0.656154    20A     -0.620756    21A     -0.603211
      22A     -0.572961    23A     -0.557862    24A     -0.549227
      25A     -0.537252    26A     -0.519548    27A     -0.510465
      28A     -0.505806    29A     -0.494585    30A     -0.480533
      31A     -0.450684    32A     -0.438994

  @DF-RHF Final Energy:  -384.08989507295007

   => Energetics <=

    Nuclear Repulsion Energy =            396.3859410963588630
    One-Electron Energy =               -1309.1249588283915273
    Two-Electron Energy =                 528.6491226590825363
    Total Energy =                       -384.0898950729500712
  Basis Set: (AUG-CC-PVTZ AUX)
    Blend: AUG-CC-PVTZ-RI
    Molecular point group: c1

    Geometry (in Angstrom), charge = 0, multiplicity = 1:

       Center              X                  Y                   Z               Mass
    ------------   -----------------  -----------------  -----------------  -----------------
         O            0.432767090367    -0.576904616012     0.174369350875    15.994914619570
         O           -0.841298909633     1.092184383988    -0.707520649125    15.994914619570
         C            1.634136090367     0.163277383988    -0.176929649125    12.000000000000
         C            1.897543090367     1.218249383988     0.879880350875    12.000000000000
         C            2.730319090367    -0.875428616012    -0.278032649125    12.000000000000
         C           -1.902002909633    -0.878075616012     0.235819350875    12.000000000000
         C           -0.741549609633    -0.002064516012    -0.166212749125    12.000000000000
         C           -3.246158909633    -0.197775616012     0.029504350875    12.000000000000
         H            1.459790090367     0.640662383988    -1.145315649125     1.007825032230
         H            2.821653090367     1.758052383988     0.653566350875     1.007825032230
         H            1.077247090367     1.936732383988     0.910987350875     1.007825032230
         H            2.001414090367     0.745435383988     1.859982350875     1.007825032230
         H            3.674286090367    -0.400211616012    -0.558959649125     1.007825032230
         H            2.480052090367    -1.626959616012    -1.029748649125     1.007825032230
         H            2.864165090367    -1.375493616012     0.684436350875     1.007825032230
         H           -1.818035209633    -1.794400916012    -0.360018449125     1.007825032230
         H           -1.755113909633    -1.181859616012     1.276787350875     1.007825032230
         H           -3.376425909633     0.086980383988    -1.015821649125     1.007825032230
         H           -4.060968909633    -0.868129616012     0.314322350875     1.007825032230
         H           -3.317122909633     0.709862383988     0.631756350875     1.007825032230

  Basis Set: AUG-CC-PVTZ
    Blend: AUG-CC-PVTZ
  Basis Set: (AUG-CC-PVTZ AUX)
    Blend: AUG-CC-PVTZ-JKFIT
	 Reference Energy          =    -384.0898950729500712 [Eh]
	 Singles Energy            =      -0.0000000000000000 [Eh]
	 Same-Spin Energy          =      -0.3840999012683647 [Eh]
	 Opposite-Spin Energy      =      -1.2863308303778829 [Eh]
	 Correlation Energy        =      -1.6704307316462477 [Eh]
	 Total Energy              =    -385.7603258045963344 [Eh]

	 ================> DF-SCS-MP2 Energies <==================
	-----------------------------------------------------------
	 SCS Same-Spin Scale       =       0.3333333333333333 [-]
	 SCS Opposite-Spin Scale   =       1.2000000000000000 [-]
	 SCS Same-Spin Energy      =      -0.1280333004227882 [Eh]
	 SCS Opposite-Spin Energy  =      -1.5435969964534595 [Eh]
	 SCS Correlation Energy    =      -1.6716302968762478 [Eh]
	 SCS Total Energy          =    -385.7615253698263018 [Eh]
	-----------------------------------------------------------

  Dipole Moment: [D]
     X:     0.8601      Y:    -1.3411      Z:     0.6914     Total:     1.7368

*** Psi4 exiting successfully. Buy a developer a beer!
