                               Psi4 1.3.2 release

  ==> Input File <==

--------------------------------------------------------------------------
#psi4
#
memory 32 gb

molecule  {
0 1
  O        0.4319803    -0.5706990     0.1838764
  O       -0.8408100     1.0912640    -0.7084360
  C        1.6346250     0.1623570    -0.1778450
  C        1.8872460     1.2133663     0.8855264
  C        2.7308080    -0.8763490    -0.2789480
  C       -1.9015140    -0.8789960     0.2349040
  C       -0.7451280     0.0062060    -0.1586260
  C       -3.2456700    -0.1986960     0.0285890
  H        1.4602790     0.6397420    -1.1462310
  H        2.8221420     1.7571320     0.6526510
  H        1.0777360     1.9358120     0.9100720
  H        2.0019030     0.7445150     1.8590670
  H        3.6747750    -0.4011320    -0.5598750
  H        2.4805410    -1.6278800    -1.0306640
  H        2.8646540    -1.3764140     0.6835210
  H       -1.8254340    -1.7987290    -0.3567280
  H       -1.7546250    -1.1827800     1.2758720
  H       -3.3759370     0.0860600    -1.0167370
  H       -4.0604800    -0.8690500     0.3134070
  H       -3.3166340     0.7089420     0.6308410
units angstrom
no_reorient  #important for SAPT in psi4, default
symmetry c1  #important for SAPT in psi4, default
}

set PROPERTIES_ORIGIN ["COM"]
properties('MP2/aug-cc-pvtz', properties = ['dipole'])
--------------------------------------------------------------------------

    Molecular point group: c1
  Charge       = 0
  Multiplicity = 1
  Basis Set: AUG-CC-PVTZ
    Blend: AUG-CC-PVTZ
  Basis Set: (AUG-CC-PVTZ AUX)
    Blend: AUG-CC-PVTZ-JKFIT

    Orbital Energies [Eh]
    ---------------------

    Doubly Occupied:

       1A    -20.594861     2A    -20.540323     3A    -11.376653
       4A    -11.289834     5A    -11.242471     6A    -11.221201
       7A    -11.218477     8A    -11.216052     9A     -1.448257
      10A     -1.349580    11A     -1.080460    12A     -1.044697
      13A     -0.945012    14A     -0.903116    15A     -0.815836
      16A     -0.761116    17A     -0.698001    18A     -0.666372
      19A     -0.656481    20A     -0.620762    21A     -0.603178
      22A     -0.573185    23A     -0.557306    24A     -0.550451
      25A     -0.535637    26A     -0.519869    27A     -0.509863
      28A     -0.505747    29A     -0.494712    30A     -0.481603
      31A     -0.450200    32A     -0.439773

  @DF-RHF Final Energy:  -384.09003212621428

   => Energetics <=

    Nuclear Repulsion Energy =            396.5042140431459643
    One-Electron Energy =               -1309.3663191484706658
    Two-Electron Energy =                 528.7720729791103622
    Total Energy =                       -384.0900321262142825
  Basis Set: (AUG-CC-PVTZ AUX)
    Blend: AUG-CC-PVTZ-RI
    Molecular point group: c1

    Geometry (in Angstrom), charge = 0, multiplicity = 1:

       Center              X                  Y                   Z               Mass
    ------------   -----------------  -----------------  -----------------  -----------------
         O            0.433271086236    -0.571271364365     0.181761988566    15.994914619570
         O           -0.839519213764     1.090691635635    -0.710550411434    15.994914619570
         C            1.635915786236     0.161784635635    -0.179959411434    12.000000000000
         C            1.888536786236     1.212793935635     0.883411988566    12.000000000000
         C            2.732098786236    -0.876921364365    -0.281062411434    12.000000000000
         C           -1.900223213764    -0.879568364365     0.232789588566    12.000000000000
         C           -0.743837213764     0.005633635635    -0.160740411434    12.000000000000
         C           -3.244379213764    -0.199268364365     0.026474588566    12.000000000000
         H            1.461569786236     0.639169635635    -1.148345411434     1.007825032230
         H            2.823432786236     1.756559635635     0.650536588566     1.007825032230
         H            1.079026786236     1.935239635635     0.907957588566     1.007825032230
         H            2.003193786236     0.743942635635     1.856952588566     1.007825032230
         H            3.676065786236    -0.401704364365    -0.561989411434     1.007825032230
         H            2.481831786236    -1.628452364365    -1.032778411434     1.007825032230
         H            2.865944786236    -1.376986364365     0.681406588566     1.007825032230
         H           -1.824143213764    -1.799301364365    -0.358842411434     1.007825032230
         H           -1.753334213764    -1.183352364365     1.273757588566     1.007825032230
         H           -3.374646213764     0.085487635635    -1.018851411434     1.007825032230
         H           -4.059189213764    -0.869622364365     0.311292588566     1.007825032230
         H           -3.315343213764     0.708369635635     0.628726588566     1.007825032230

  Basis Set: AUG-CC-PVTZ
    Blend: AUG-CC-PVTZ
  Basis Set: (AUG-CC-PVTZ AUX)
    Blend: AUG-CC-PVTZ-JKFIT
	 Reference Energy          =    -384.0900321262142825 [Eh]
	 Singles Energy            =      -0.0000000000000000 [Eh]
	 Same-Spin Energy          =      -0.3840417900398147 [Eh]
	 Opposite-Spin Energy      =      -1.2862200621990669 [Eh]
	 Correlation Energy        =      -1.6702618522388817 [Eh]
	 Total Energy              =    -385.7602939784531486 [Eh]

	 ================> DF-SCS-MP2 Energies <==================
	-----------------------------------------------------------
	 SCS Same-Spin Scale       =       0.3333333333333333 [-]
	 SCS Opposite-Spin Scale   =       1.2000000000000000 [-]
	 SCS Same-Spin Energy      =      -0.1280139300132715 [Eh]
	 SCS Opposite-Spin Energy  =      -1.5434640746388804 [Eh]
	 SCS Correlation Energy    =      -1.6714780046521520 [Eh]
	 SCS Total Energy          =    -385.7615101308664407 [Eh]
	-----------------------------------------------------------

  Dipole Moment: [D]
     X:     0.8319      Y:    -1.3372      Z:     0.6756     Total:     1.7136

*** Psi4 exiting successfully. Buy a developer a beer!
