                               Psi4 1.3.2 release

  ==> Input File <==

--------------------------------------------------------------------------
#psi4
#
memory 32 gb

molecule  {
0 1
  O        0.4558795    -0.5923753     0.2164975
  O       -0.8408100     1.0912640    -0.7084360
  C        1.6346250     0.1623570    -0.1778450
  C        1.8980320     1.2173290     0.8789650
  C        2.7308080    -0.8763490    -0.2789480
  C       -1.9015140    -0.8789960     0.2349040
  C       -0.7451280     0.0062060    -0.1586260
  C       -3.2456700    -0.1986960     0.0285890
  H        1.4954333     0.6545228    -1.1445212
  H        2.8221420     1.7571320     0.6526510
  H        1.0777360     1.9358120     0.9100720
  H        2.0019030     0.7445150     1.8590670
  H        3.6747750    -0.4011320    -0.5598750
  H        2.4805410    -1.6278800    -1.0306640
  H        2.8646540    -1.3764140     0.6835210
  H       -1.8254340    -1.7987290    -0.3567280
  H       -1.7546250    -1.1827800     1.2758720
  H       -3.3759370     0.0860600    -1.0167370
  H       -4.0604800    -0.8690500     0.3134070
  H       -3.3166340     0.7089420     0.6308410
units angstrom
no_reorient  #important for SAPT in psi4, default
symmetry c1  #important for SAPT in psi4, default
}

set PROPERTIES_ORIGIN ["COM"]
properties('MP2/aug-cc-pvtz', properties = ['dipole'])
--------------------------------------------------------------------------

    Molecular point group: c1
  Charge       = 0
  Multiplicity = 1
  Basis Set: AUG-CC-PVTZ
    Blend: AUG-CC-PVTZ
  Basis Set: (AUG-CC-PVTZ AUX)
    Blend: AUG-CC-PVTZ-JKFIT

    Orbital Energies [Eh]
    ---------------------

    Doubly Occupied:

       1A    -20.595424     2A    -20.548323     3A    -11.382419
       4A    -11.287230     5A    -11.244533     6A    -11.220092
       7A    -11.218301     8A    -11.214006     9A     -1.438638
      10A     -1.351811    11A     -1.077964    12A     -1.044297
      13A     -0.942948    14A     -0.902504    15A     -0.809499
      16A     -0.760874    17A     -0.699563    18A     -0.664106
      19A     -0.654975    20A     -0.618662    21A     -0.603143
      22A     -0.573243    23A     -0.555481    24A     -0.547338
      25A     -0.535873    26A     -0.521627    27A     -0.511375
      28A     -0.506374    29A     -0.496338    30A     -0.479800
      31A     -0.451170    32A     -0.441200

  @DF-RHF Final Energy:  -384.08527500618737

   => Energetics <=

    Nuclear Repulsion Energy =            395.5575054252272480
    One-Electron Energy =               -1307.4872998298965285
    Two-Electron Energy =                 527.8445193984819070
    Total Energy =                       -384.0852750061874303
  Basis Set: (AUG-CC-PVTZ AUX)
    Blend: AUG-CC-PVTZ-RI
    Molecular point group: c1

    Geometry (in Angstrom), charge = 0, multiplicity = 1:

       Center              X                  Y                   Z               Mass
    ------------   -----------------  -----------------  -----------------  -----------------
         O            0.452457075791    -0.590498899939     0.210551732613    15.994914619570
         O           -0.844232424209     1.093140400061    -0.714381767387    15.994914619570
         C            1.631202575791     0.164233400061    -0.183790767387    12.000000000000
         C            1.894609575791     1.219205400061     0.873019232613    12.000000000000
         C            2.727385575791    -0.874472599939    -0.284893767387    12.000000000000
         C           -1.904936424209    -0.877119599939     0.228958232613    12.000000000000
         C           -0.748550424209     0.008082400061    -0.164571767387    12.000000000000
         C           -3.249092424209    -0.196819599939     0.022643232613    12.000000000000
         H            1.492010875791     0.656399200061    -1.150466967387     1.007825032230
         H            2.818719575791     1.759008400061     0.646705232613     1.007825032230
         H            1.074313575791     1.937688400061     0.904126232613     1.007825032230
         H            1.998480575791     0.746391400061     1.853121232613     1.007825032230
         H            3.671352575791    -0.399255599939    -0.565820767387     1.007825032230
         H            2.477118575791    -1.626003599939    -1.036609767387     1.007825032230
         H            2.861231575791    -1.374537599939     0.677575232613     1.007825032230
         H           -1.828856424209    -1.796852599939    -0.362673767387     1.007825032230
         H           -1.758047424209    -1.180903599939     1.269926232613     1.007825032230
         H           -3.379359424209     0.087936400061    -1.022682767387     1.007825032230
         H           -4.063902424209    -0.867173599939     0.307461232613     1.007825032230
         H           -3.320056424209     0.710818400061     0.624895232613     1.007825032230

  Basis Set: AUG-CC-PVTZ
    Blend: AUG-CC-PVTZ
  Basis Set: (AUG-CC-PVTZ AUX)
    Blend: AUG-CC-PVTZ-JKFIT
	 Reference Energy          =    -384.0852750061873735 [Eh]
	 Singles Energy            =      -0.0000000000000000 [Eh]
	 Same-Spin Energy          =      -0.3847166746741525 [Eh]
	 Opposite-Spin Energy      =      -1.2881606336183986 [Eh]
	 Correlation Energy        =      -1.6728773082925512 [Eh]
	 Total Energy              =    -385.7581523144799007 [Eh]

	 ================> DF-SCS-MP2 Energies <==================
	-----------------------------------------------------------
	 SCS Same-Spin Scale       =       0.3333333333333333 [-]
	 SCS Opposite-Spin Scale   =       1.2000000000000000 [-]
	 SCS Same-Spin Energy      =      -0.1282388915580508 [Eh]
	 SCS Opposite-Spin Energy  =      -1.5457927603420782 [Eh]
	 SCS Correlation Energy    =      -1.6740316519001290 [Eh]
	 SCS Total Energy          =    -385.7593066580874961 [Eh]
	-----------------------------------------------------------

  Dipole Moment: [D]
     X:     0.5753      Y:    -1.2399      Z:     0.5812     Total:     1.4853

*** Psi4 exiting successfully. Buy a developer a beer!
