                               Psi4 1.3.2 release

  ==> Input File <==

--------------------------------------------------------------------------
#psi4
#
memory 32 gb

molecule  {
0 1
  O        0.4346232    -0.5848946     0.1630049
  O       -0.8408100     1.0912640    -0.7084360
  C        1.6346250     0.1623570    -0.1778450
  C        1.9087979     1.2212114     0.8723231
  C        2.7308080    -0.8763490    -0.2789480
  C       -1.9015140    -0.8789960     0.2349040
  C       -0.7451280     0.0062060    -0.1586260
  C       -3.2456700    -0.1986960     0.0285890
  H        1.4602790     0.6397420    -1.1462310
  H        2.8221420     1.7571320     0.6526510
  H        1.0777360     1.9358120     0.9100720
  H        2.0019030     0.7445150     1.8590670
  H        3.6747750    -0.4011320    -0.5598750
  H        2.4805410    -1.6278800    -1.0306640
  H        2.8646540    -1.3764140     0.6835210
  H       -1.8254340    -1.7987290    -0.3567280
  H       -1.7546250    -1.1827800     1.2758720
  H       -3.3759370     0.0860600    -1.0167370
  H       -4.0604800    -0.8690500     0.3134070
  H       -3.3166340     0.7089420     0.6308410
units angstrom
no_reorient  #important for SAPT in psi4, default
symmetry c1  #important for SAPT in psi4, default
}

set PROPERTIES_ORIGIN ["COM"]
properties('MP2/aug-cc-pvtz', properties = ['dipole'])
--------------------------------------------------------------------------

    Molecular point group: c1
  Charge       = 0
  Multiplicity = 1
  Basis Set: AUG-CC-PVTZ
    Blend: AUG-CC-PVTZ
  Basis Set: (AUG-CC-PVTZ AUX)
    Blend: AUG-CC-PVTZ-JKFIT

    Orbital Energies [Eh]
    ---------------------

    Doubly Occupied:

       1A    -20.595604     2A    -20.541241     3A    -11.377297
       4A    -11.289479     5A    -11.242739     6A    -11.220306
       7A    -11.218670     8A    -11.216606     9A     -1.447495
      10A     -1.349977    11A     -1.080307    12A     -1.044952
      13A     -0.944685    14A     -0.903344    15A     -0.815521
      16A     -0.760264    17A     -0.698105    18A     -0.666889
      19A     -0.656439    20A     -0.620870    21A     -0.603351
      22A     -0.572880    23A     -0.557892    24A     -0.547315
      25A     -0.538650    26A     -0.520075    27A     -0.510996
      28A     -0.506001    29A     -0.494470    30A     -0.479295
      31A     -0.451807    32A     -0.439377

  @DF-RHF Final Energy:  -384.08980188705999

   => Energetics <=

    Nuclear Repulsion Energy =            396.2436649911261952
    One-Electron Energy =               -1308.8411385489237091
    Two-Electron Energy =                 528.5076716707374089
    Total Energy =                       -384.0898018870600481
  Basis Set: (AUG-CC-PVTZ AUX)
    Blend: AUG-CC-PVTZ-RI
    Molecular point group: c1

    Geometry (in Angstrom), charge = 0, multiplicity = 1:

       Center              X                  Y                   Z               Mass
    ------------   -----------------  -----------------  -----------------  -----------------
         O            0.433321928238    -0.584321961440     0.165131198802    15.994914619570
         O           -0.842111271762     1.091836638560    -0.706309701198    15.994914619570
         C            1.633323728238     0.162929638560    -0.175718701198    12.000000000000
         C            1.907496628238     1.221784038560     0.874449398802    12.000000000000
         C            2.729506728238    -0.875776361440    -0.276821701198    12.000000000000
         C           -1.902815271762    -0.878423361440     0.237030298802    12.000000000000
         C           -0.746429271762     0.006778638560    -0.156499701198    12.000000000000
         C           -3.246971271762    -0.198123361440     0.030715298802    12.000000000000
         H            1.458977728238     0.640314638560    -1.144104701198     1.007825032230
         H            2.820840728238     1.757704638560     0.654777298802     1.007825032230
         H            1.076434728238     1.936384638560     0.912198298802     1.007825032230
         H            2.000601728238     0.745087638560     1.861193298802     1.007825032230
         H            3.673473728238    -0.400559361440    -0.557748701198     1.007825032230
         H            2.479239728238    -1.627307361440    -1.028537701198     1.007825032230
         H            2.863352728238    -1.375841361440     0.685647298802     1.007825032230
         H           -1.826735271762    -1.798156361440    -0.354601701198     1.007825032230
         H           -1.755926271762    -1.182207361440     1.277998298802     1.007825032230
         H           -3.377238271762     0.086632638560    -1.014610701198     1.007825032230
         H           -4.061781271762    -0.868477361440     0.315533298802     1.007825032230
         H           -3.317935271762     0.709514638560     0.632967298802     1.007825032230

  Basis Set: AUG-CC-PVTZ
    Blend: AUG-CC-PVTZ
  Basis Set: (AUG-CC-PVTZ AUX)
    Blend: AUG-CC-PVTZ-JKFIT
	 Reference Energy          =    -384.0898018870599913 [Eh]
	 Singles Energy            =      -0.0000000000000000 [Eh]
	 Same-Spin Energy          =      -0.3840825591172666 [Eh]
	 Opposite-Spin Energy      =      -1.2863577067686260 [Eh]
	 Correlation Energy        =      -1.6704402658858926 [Eh]
	 Total Energy              =    -385.7602421529458638 [Eh]

	 ================> DF-SCS-MP2 Energies <==================
	-----------------------------------------------------------
	 SCS Same-Spin Scale       =       0.3333333333333333 [-]
	 SCS Opposite-Spin Scale   =       1.2000000000000000 [-]
	 SCS Same-Spin Energy      =      -0.1280275197057555 [Eh]
	 SCS Opposite-Spin Energy  =      -1.5436292481223512 [Eh]
	 SCS Correlation Energy    =      -1.6716567678281069 [Eh]
	 SCS Total Energy          =    -385.7614586548880879 [Eh]
	-----------------------------------------------------------

  Dipole Moment: [D]
     X:     0.8012      Y:    -1.2953      Z:     0.6953     Total:     1.6743

*** Psi4 exiting successfully. Buy a developer a beer!
