                               Psi4 1.3.2 release

  ==> Input File <==

--------------------------------------------------------------------------
#psi4
#
memory 32 gb

molecule  {
0 1
  O        2.2381840    -1.1587810    -0.1175950
  O        2.2381840     1.1587830    -0.1175780
  C       -1.4506090    -0.7058110    -0.0005310
  C       -1.4506100     0.7058110    -0.0005190
  C        0.9370840    -0.6945160    -0.0405820
  C        0.9370830     0.6945180    -0.0405590
  C       -0.2345574    -1.4224275     0.0737455
  C       -0.2384020     1.4209720    -0.0261890
  C        3.0186620    -0.0000010     0.2058680
  C       -2.7532520    -1.4635880     0.0322900
  C       -2.7532530     1.4635870     0.0322790
  H       -0.2243070    -2.5079120    -0.0340590
  H       -0.2243080     2.5079120    -0.0340480
  H        3.2379270    -0.0000100     1.2832160
  H        3.9284370     0.0000040    -0.3938210
  H       -2.5724980    -2.5416060     0.0194510
  H       -3.3330080    -1.2312860     0.9325220
  H       -3.3837460    -1.2187210    -0.8295640
  H       -3.3329960     1.2313300     0.9325330
  H       -2.5725010     2.5416050     0.0193840
  H       -3.3837580     1.2186740    -0.8295530
units angstrom
no_reorient  #important for SAPT in psi4, default
symmetry c1  #important for SAPT in psi4, default
}

set PROPERTIES_ORIGIN ["COM"]
properties('MP2/aug-cc-pvtz', properties = ['dipole'])
--------------------------------------------------------------------------

    Molecular point group: c1
  Charge       = 0
  Multiplicity = 1
  Basis Set: AUG-CC-PVTZ
    Blend: AUG-CC-PVTZ
  Basis Set: (AUG-CC-PVTZ AUX)
    Blend: AUG-CC-PVTZ-JKFIT

    Orbital Energies [Eh]
    ---------------------

    Doubly Occupied:

       1A    -20.596352     2A    -20.596088     3A    -11.352447
       4A    -11.292734     5A    -11.291200     6A    -11.242890
       7A    -11.241465     8A    -11.239074     9A    -11.238757
      10A    -11.225350    11A    -11.225293    12A     -1.467370
      13A     -1.364828    14A     -1.158097    15A     -1.053263
      16A     -1.037892    17A     -0.952294    18A     -0.942934
      19A     -0.882561    20A     -0.836917    21A     -0.795094
      22A     -0.715362    23A     -0.713093    24A     -0.675023
      25A     -0.647850    26A     -0.614630    27A     -0.611261
      28A     -0.595128    29A     -0.573922    30A     -0.565836
      31A     -0.551520    32A     -0.540953    33A     -0.535323
      34A     -0.534292    35A     -0.528598    36A     -0.500190
      37A     -0.491063    38A     -0.441447    39A     -0.334540
      40A     -0.293235

  @DF-RHF Final Energy:  -496.51154590757847

   => Energetics <=

    Nuclear Repulsion Energy =            601.1563750528410992
    One-Electron Energy =               -1868.3435068935125400
    Two-Electron Energy =                 770.6755859330930889
    Total Energy =                       -496.5115459075784656
  Basis Set: (AUG-CC-PVTZ AUX)
    Blend: AUG-CC-PVTZ-RI
    Molecular point group: c1

    Geometry (in Angstrom), charge = 0, multiplicity = 1:

       Center              X                  Y                   Z               Mass
    ------------   -----------------  -----------------  -----------------  -----------------
         O            2.159610979098    -1.158664758835    -0.118544308516    15.994914619570
         O            2.159610979098     1.158899241165    -0.118527308516    15.994914619570
         C           -1.529182020902    -0.705694758835    -0.001480308516    12.000000000000
         C           -1.529183020902     0.705927241165    -0.001468308516    12.000000000000
         C            0.858510979098    -0.694399758835    -0.041531308516    12.000000000000
         C            0.858509979098     0.694634241165    -0.041508308516    12.000000000000
         C           -0.313130420902    -1.422311258835     0.072796191484    12.000000000000
         C           -0.316975020902     1.421088241165    -0.027138308516    12.000000000000
         C            2.940088979098     0.000115241165     0.204918691484    12.000000000000
         C           -2.831825020902    -1.463471758835     0.031340691484    12.000000000000
         C           -2.831826020902     1.463703241165     0.031329691484    12.000000000000
         H           -0.302880020902    -2.507795758835    -0.035008308516     1.007825032230
         H           -0.302881020902     2.508028241165    -0.034997308516     1.007825032230
         H            3.159353979098     0.000106241165     1.282266691484     1.007825032230
         H            3.849863979098     0.000120241165    -0.394770308516     1.007825032230
         H           -2.651071020902    -2.541489758835     0.018501691484     1.007825032230
         H           -3.411581020902    -1.231169758835     0.931572691484     1.007825032230
         H           -3.462319020902    -1.218604758835    -0.830513308516     1.007825032230
         H           -3.411569020902     1.231446241165     0.931583691484     1.007825032230
         H           -2.651074020902     2.541721241165     0.018434691484     1.007825032230
         H           -3.462331020902     1.218790241165    -0.830502308516     1.007825032230

  Basis Set: AUG-CC-PVTZ
    Blend: AUG-CC-PVTZ
  Basis Set: (AUG-CC-PVTZ AUX)
    Blend: AUG-CC-PVTZ-JKFIT
	 Reference Energy          =    -496.5115459075784656 [Eh]
	 Singles Energy            =      -0.0000000000000000 [Eh]
	 Same-Spin Energy          =      -0.5241684212316611 [Eh]
	 Opposite-Spin Energy      =      -1.6325446206042766 [Eh]
	 Correlation Energy        =      -2.1567130418359377 [Eh]
	 Total Energy              =    -498.6682589494143940 [Eh]

	 ================> DF-SCS-MP2 Energies <==================
	-----------------------------------------------------------
	 SCS Same-Spin Scale       =       0.3333333333333333 [-]
	 SCS Opposite-Spin Scale   =       1.2000000000000000 [-]
	 SCS Same-Spin Energy      =      -0.1747228070772203 [Eh]
	 SCS Opposite-Spin Energy  =      -1.9590535447251318 [Eh]
	 SCS Correlation Energy    =      -2.1337763518023523 [Eh]
	 SCS Total Energy          =    -498.6453222593808050 [Eh]
	-----------------------------------------------------------

  Dipole Moment: [D]
     X:    -0.5667      Y:     0.0252      Z:     0.4956     Total:     0.7533

*** Psi4 exiting successfully. Buy a developer a beer!
