                               Psi4 1.3.2 release

  ==> Input File <==

--------------------------------------------------------------------------
#psi4
#
memory 32 gb

molecule  {
0 1
  O        2.2381840    -1.1587810    -0.1175950
  O        2.2381840     1.1587830    -0.1175780
  C       -1.4506090    -0.7058110    -0.0005310
  C       -1.4506100     0.7058110    -0.0005190
  C        0.9370840    -0.6945160    -0.0405820
  C        0.9370830     0.6945180    -0.0405590
  C       -0.2384000    -1.4209720    -0.0261700
  C       -0.2384020     1.4209720    -0.0261890
  C        3.0186620    -0.0000010     0.2058680
  C       -2.7532520    -1.4635880     0.0322900
  C       -2.7532530     1.4635870     0.0322790
  H       -0.2268278    -2.5068371    -0.1840340
  H       -0.2243080     2.5079120    -0.0340480
  H        3.2379270    -0.0000100     1.2832160
  H        3.9284370     0.0000040    -0.3938210
  H       -2.5724980    -2.5416060     0.0194510
  H       -3.3330080    -1.2312860     0.9325220
  H       -3.3837460    -1.2187210    -0.8295640
  H       -3.3329960     1.2313300     0.9325330
  H       -2.5725010     2.5416050     0.0193840
  H       -3.3837580     1.2186740    -0.8295530
units angstrom
no_reorient  #important for SAPT in psi4, default
symmetry c1  #important for SAPT in psi4, default
}

set PROPERTIES_ORIGIN ["COM"]
properties('MP2/aug-cc-pvtz', properties = ['dipole'])
--------------------------------------------------------------------------

    Molecular point group: c1
  Charge       = 0
  Multiplicity = 1
  Basis Set: AUG-CC-PVTZ
    Blend: AUG-CC-PVTZ
  Basis Set: (AUG-CC-PVTZ AUX)
    Blend: AUG-CC-PVTZ-JKFIT

    Orbital Energies [Eh]
    ---------------------

    Doubly Occupied:

       1A    -20.596188     2A    -20.596167     3A    -11.352414
       4A    -11.292387     5A    -11.291106     6A    -11.242384
       7A    -11.241297     8A    -11.239138     9A    -11.238410
      10A    -11.225338    11A    -11.225243    12A     -1.467303
      13A     -1.364776    14A     -1.158557    15A     -1.053344
      16A     -1.038153    17A     -0.952298    18A     -0.942974
      19A     -0.882569    20A     -0.836472    21A     -0.795626
      22A     -0.715770    23A     -0.712830    24A     -0.674835
      25A     -0.648217    26A     -0.614227    27A     -0.610779
      28A     -0.595183    29A     -0.573969    30A     -0.565814
      31A     -0.551503    32A     -0.540811    33A     -0.535365
      34A     -0.533836    35A     -0.529907    36A     -0.500871
      37A     -0.491037    38A     -0.441586    39A     -0.334218
      40A     -0.293316

  @DF-RHF Final Energy:  -496.51300809143947

   => Energetics <=

    Nuclear Repulsion Energy =            601.2414747023567543
    One-Electron Energy =               -1868.5165314915939234
    Two-Electron Energy =                 770.7620486977976952
    Total Energy =                       -496.5130080914394739
  Basis Set: (AUG-CC-PVTZ AUX)
    Blend: AUG-CC-PVTZ-RI
    Molecular point group: c1

    Geometry (in Angstrom), charge = 0, multiplicity = 1:

       Center              X                  Y                   Z               Mass
    ------------   -----------------  -----------------  -----------------  -----------------
         O            2.159935176792    -1.158788364809    -0.109547494782    15.994914619570
         O            2.159935176792     1.158775635191    -0.109530494782    15.994914619570
         C           -1.528857823208    -0.705818364809     0.007516505218    12.000000000000
         C           -1.528858823208     0.705803635191     0.007528505218    12.000000000000
         C            0.858835176792    -0.694523364809    -0.032534494782    12.000000000000
         C            0.858834176792     0.694510635191    -0.032511494782    12.000000000000
         C           -0.316648823208    -1.420979364809    -0.018122494782    12.000000000000
         C           -0.316650823208     1.420964635191    -0.018141494782    12.000000000000
         C            2.940413176792    -0.000008364809     0.213915505218    12.000000000000
         C           -2.831500823208    -1.463595364809     0.040337505218    12.000000000000
         C           -2.831501823208     1.463579635191     0.040326505218    12.000000000000
         H           -0.305076623208    -2.506844464809    -0.175986494782     1.007825032230
         H           -0.302556823208     2.507904635191    -0.026000494782     1.007825032230
         H            3.159678176792    -0.000017364809     1.291263505218     1.007825032230
         H            3.850188176792    -0.000003364809    -0.385773494782     1.007825032230
         H           -2.650746823208    -2.541613364809     0.027498505218     1.007825032230
         H           -3.411256823208    -1.231293364809     0.940569505218     1.007825032230
         H           -3.461994823208    -1.218728364809    -0.821516494782     1.007825032230
         H           -3.411244823208     1.231322635191     0.940580505218     1.007825032230
         H           -2.650749823208     2.541597635191     0.027431505218     1.007825032230
         H           -3.462006823208     1.218666635191    -0.821505494782     1.007825032230

  Basis Set: AUG-CC-PVTZ
    Blend: AUG-CC-PVTZ
  Basis Set: (AUG-CC-PVTZ AUX)
    Blend: AUG-CC-PVTZ-JKFIT
	 Reference Energy          =    -496.5130080914394739 [Eh]
	 Singles Energy            =      -0.0000000000000000 [Eh]
	 Same-Spin Energy          =      -0.5241234747185395 [Eh]
	 Opposite-Spin Energy      =      -1.6323716298151509 [Eh]
	 Correlation Energy        =      -2.1564951045336906 [Eh]
	 Total Energy              =    -498.6695031959731637 [Eh]

	 ================> DF-SCS-MP2 Energies <==================
	-----------------------------------------------------------
	 SCS Same-Spin Scale       =       0.3333333333333333 [-]
	 SCS Opposite-Spin Scale   =       1.2000000000000000 [-]
	 SCS Same-Spin Energy      =      -0.1747078249061798 [Eh]
	 SCS Opposite-Spin Energy  =      -1.9588459557781810 [Eh]
	 SCS Correlation Energy    =      -2.1335537806843607 [Eh]
	 SCS Total Energy          =    -498.6465618721238116 [Eh]
	-----------------------------------------------------------

  Dipole Moment: [D]
     X:    -0.5661      Y:     0.0167      Z:     0.4667     Total:     0.7339

*** Psi4 exiting successfully. Buy a developer a beer!
