                               Psi4 1.3.2 release

  ==> Input File <==

--------------------------------------------------------------------------
#psi4
#
memory 32 gb

molecule  {
0 1
  O        2.2381840    -1.1587810    -0.1175950
  O        2.2381840     1.1587830    -0.1175780
  C       -1.4506090    -0.7058110    -0.0005310
  C       -1.4506100     0.7058110    -0.0005190
  C        0.9370840    -0.6945160    -0.0405820
  C        0.9370830     0.6945180    -0.0405590
  C       -0.2384000    -1.4209720    -0.0261700
  C       -0.2384020     1.4209720    -0.0261890
  C        3.0186620    -0.0000010     0.2058680
  C       -2.7544130    -1.4636468    -0.0176965
  C       -2.7532530     1.4635870     0.0322790
  H       -0.2243070    -2.5079120    -0.0340590
  H       -0.2243080     2.5079120    -0.0340480
  H        3.2379270    -0.0000100     1.2832160
  H        3.9284370     0.0000040    -0.3938210
  H       -2.5724980    -2.5416060     0.0194510
  H       -3.3330080    -1.2312860     0.9325220
  H       -3.3837460    -1.2187210    -0.8295640
  H       -3.3329960     1.2313300     0.9325330
  H       -2.5725010     2.5416050     0.0193840
  H       -3.3837580     1.2186740    -0.8295530
units angstrom
no_reorient  #important for SAPT in psi4, default
symmetry c1  #important for SAPT in psi4, default
}

set PROPERTIES_ORIGIN ["COM"]
properties('MP2/aug-cc-pvtz', properties = ['dipole'])
--------------------------------------------------------------------------

    Molecular point group: c1
  Charge       = 0
  Multiplicity = 1
  Basis Set: AUG-CC-PVTZ
    Blend: AUG-CC-PVTZ
  Basis Set: (AUG-CC-PVTZ AUX)
    Blend: AUG-CC-PVTZ-JKFIT

    Orbital Energies [Eh]
    ---------------------

    Doubly Occupied:

       1A    -20.596124     2A    -20.596087     3A    -11.352357
       4A    -11.292152     5A    -11.290879     6A    -11.242440
       7A    -11.241323     8A    -11.238335     9A    -11.238303
      10A    -11.225695    11A    -11.225316    12A     -1.467211
      13A     -1.364692    14A     -1.158525    15A     -1.053283
      16A     -1.038348    17A     -0.952480    18A     -0.943053
      19A     -0.882599    20A     -0.837068    21A     -0.795757
      22A     -0.716274    23A     -0.712763    24A     -0.675283
      25A     -0.648205    26A     -0.615188    27A     -0.611732
      28A     -0.596698    29A     -0.574240    30A     -0.565702
      31A     -0.553141    32A     -0.540098    33A     -0.534647
      34A     -0.531773    35A     -0.530334    36A     -0.500474
      37A     -0.491283    38A     -0.441284    39A     -0.334365
      40A     -0.293159

  @DF-RHF Final Energy:  -496.51183030815167

   => Energetics <=

    Nuclear Repulsion Energy =            601.2731981466532716
    One-Electron Energy =               -1868.5727123971753372
    Two-Electron Energy =                 770.7876839423702222
    Total Energy =                       -496.5118303081517297
  Basis Set: (AUG-CC-PVTZ AUX)
    Blend: AUG-CC-PVTZ-RI
    Molecular point group: c1

    Geometry (in Angstrom), charge = 0, multiplicity = 1:

       Center              X                  Y                   Z               Mass
    ------------   -----------------  -----------------  -----------------  -----------------
         O            2.160011085504    -1.158776444145    -0.106557588853    15.994914619570
         O            2.160011085504     1.158787555855    -0.106540588853    15.994914619570
         C           -1.528781914496    -0.705806444145     0.010506411147    12.000000000000
         C           -1.528782914496     0.705815555855     0.010518411147    12.000000000000
         C            0.858911085504    -0.694511444145    -0.029544588853    12.000000000000
         C            0.858910085504     0.694522555855    -0.029521588853    12.000000000000
         C           -0.316572914496    -1.420967444145    -0.015132588853    12.000000000000
         C           -0.316574914496     1.420976555855    -0.015151588853    12.000000000000
         C            2.940489085504     0.000003555855     0.216905411147    12.000000000000
         C           -2.832585914496    -1.463642244145    -0.006659088853    12.000000000000
         C           -2.831425914496     1.463591555855     0.043316411147    12.000000000000
         H           -0.302479914496    -2.507907444145    -0.023021588853     1.007825032230
         H           -0.302480914496     2.507916555855    -0.023010588853     1.007825032230
         H            3.159754085504    -0.000005444145     1.294253411147     1.007825032230
         H            3.850264085504     0.000008555855    -0.382783588853     1.007825032230
         H           -2.650670914496    -2.541601444145     0.030488411147     1.007825032230
         H           -3.411180914496    -1.231281444145     0.943559411147     1.007825032230
         H           -3.461918914496    -1.218716444145    -0.818526588853     1.007825032230
         H           -3.411168914496     1.231334555855     0.943570411147     1.007825032230
         H           -2.650673914496     2.541609555855     0.030421411147     1.007825032230
         H           -3.461930914496     1.218678555855    -0.818515588853     1.007825032230

  Basis Set: AUG-CC-PVTZ
    Blend: AUG-CC-PVTZ
  Basis Set: (AUG-CC-PVTZ AUX)
    Blend: AUG-CC-PVTZ-JKFIT
	 Reference Energy          =    -496.5118303081516729 [Eh]
	 Singles Energy            =      -0.0000000000000000 [Eh]
	 Same-Spin Energy          =      -0.5240711009643670 [Eh]
	 Opposite-Spin Energy      =      -1.6323417777737832 [Eh]
	 Correlation Energy        =      -2.1564128787381502 [Eh]
	 Total Energy              =    -498.6682431868898107 [Eh]

	 ================> DF-SCS-MP2 Energies <==================
	-----------------------------------------------------------
	 SCS Same-Spin Scale       =       0.3333333333333333 [-]
	 SCS Opposite-Spin Scale   =       1.2000000000000000 [-]
	 SCS Same-Spin Energy      =      -0.1746903669881223 [Eh]
	 SCS Opposite-Spin Energy  =      -1.9588101333285397 [Eh]
	 SCS Correlation Energy    =      -2.1335005003166621 [Eh]
	 SCS Total Energy          =    -498.6453308084683158 [Eh]
	-----------------------------------------------------------

  Dipole Moment: [D]
     X:    -0.5660      Y:     0.0004      Z:     0.5379     Total:     0.7808

*** Psi4 exiting successfully. Buy a developer a beer!
