                               Psi4 1.3.2 release

  ==> Input File <==

--------------------------------------------------------------------------
#psi4
#
memory 32 gb

molecule  {
0 1
  O        2.2381840    -1.1587810    -0.1175950
  O        2.2381840     1.1587830    -0.1175780
  C       -1.4506090    -0.7058110    -0.0005310
  C       -1.4506100     0.7058110    -0.0005190
  C        0.9370840    -0.6945160    -0.0405820
  C        0.9370830     0.6945180    -0.0405590
  C       -0.2287936    -1.4246108     0.2236189
  C       -0.2384020     1.4209720    -0.0261890
  C        3.0186620    -0.0000010     0.2058680
  C       -2.7532520    -1.4635880     0.0322900
  C       -2.7532530     1.4635870     0.0322790
  H       -0.2243070    -2.5079120    -0.0340590
  H       -0.2243080     2.5079120    -0.0340480
  H        3.2379270    -0.0000100     1.2832160
  H        3.9284370     0.0000040    -0.3938210
  H       -2.5724980    -2.5416060     0.0194510
  H       -3.3330080    -1.2312860     0.9325220
  H       -3.3837460    -1.2187210    -0.8295640
  H       -3.3329960     1.2313300     0.9325330
  H       -2.5725010     2.5416050     0.0193840
  H       -3.3837580     1.2186740    -0.8295530
units angstrom
no_reorient  #important for SAPT in psi4, default
symmetry c1  #important for SAPT in psi4, default
}

set PROPERTIES_ORIGIN ["COM"]
properties('MP2/aug-cc-pvtz', properties = ['dipole'])
--------------------------------------------------------------------------

    Molecular point group: c1
  Charge       = 0
  Multiplicity = 1
  Basis Set: AUG-CC-PVTZ
    Blend: AUG-CC-PVTZ
  Basis Set: (AUG-CC-PVTZ AUX)
    Blend: AUG-CC-PVTZ-JKFIT

    Orbital Energies [Eh]
    ---------------------

    Doubly Occupied:

       1A    -20.597617     2A    -20.596259     3A    -11.352904
       4A    -11.296942     5A    -11.291478     6A    -11.246763
       7A    -11.243067     8A    -11.242038     9A    -11.240866
      10A    -11.225576    11A    -11.225404    12A     -1.468159
      13A     -1.365533    14A     -1.156582    15A     -1.053264
      16A     -1.035897    17A     -0.951629    18A     -0.942852
      19A     -0.882899    20A     -0.836180    21A     -0.793355
      22A     -0.715173    23A     -0.711314    24A     -0.674418
      25A     -0.646056    26A     -0.613190    27A     -0.607492
      28A     -0.594697    29A     -0.573916    30A     -0.565618
      31A     -0.551805    32A     -0.540760    33A     -0.535938
      34A     -0.535126    35A     -0.525209    36A     -0.498055
      37A     -0.488843    38A     -0.440219    39A     -0.335206
      40A     -0.292754

  @DF-RHF Final Energy:  -496.49604946172826

   => Energetics <=

    Nuclear Repulsion Energy =            600.5146051143575505
    One-Electron Energy =               -1867.0392010908353768
    Two-Electron Energy =                 770.0285465147496780
    Total Energy =                       -496.4960494617282620
  Basis Set: (AUG-CC-PVTZ AUX)
    Blend: AUG-CC-PVTZ-RI
    Molecular point group: c1

    Geometry (in Angstrom), charge = 0, multiplicity = 1:

       Center              X                  Y                   Z               Mass
    ------------   -----------------  -----------------  -----------------  -----------------
         O            2.159150084281    -1.158490174073    -0.130528741216    15.994914619570
         O            2.159150084281     1.159073825927    -0.130511741216    15.994914619570
         C           -1.529642915719    -0.705520174073    -0.013464741216    12.000000000000
         C           -1.529643915719     0.706101825927    -0.013452741216    12.000000000000
         C            0.858050084281    -0.694225174073    -0.053515741216    12.000000000000
         C            0.858049084281     0.694808825927    -0.053492741216    12.000000000000
         C           -0.307827515719    -1.424319974073     0.210685158784    12.000000000000
         C           -0.317435915719     1.421262825927    -0.039122741216    12.000000000000
         C            2.939628084281     0.000289825927     0.192934258784    12.000000000000
         C           -2.832285915719    -1.463297174073     0.019356258784    12.000000000000
         C           -2.832286915719     1.463877825927     0.019345258784    12.000000000000
         H           -0.303340915719    -2.507621174073    -0.046992741216     1.007825032230
         H           -0.303341915719     2.508202825927    -0.046981741216     1.007825032230
         H            3.158893084281     0.000280825927     1.270282258784     1.007825032230
         H            3.849403084281     0.000294825927    -0.406754741216     1.007825032230
         H           -2.651531915719    -2.541315174073     0.006517258784     1.007825032230
         H           -3.412041915719    -1.230995174073     0.919588258784     1.007825032230
         H           -3.462779915719    -1.218430174073    -0.842497741216     1.007825032230
         H           -3.412029915719     1.231620825927     0.919599258784     1.007825032230
         H           -2.651534915719     2.541895825927     0.006450258784     1.007825032230
         H           -3.462791915719     1.218964825927    -0.842486741216     1.007825032230

  Basis Set: AUG-CC-PVTZ
    Blend: AUG-CC-PVTZ
  Basis Set: (AUG-CC-PVTZ AUX)
    Blend: AUG-CC-PVTZ-JKFIT
	 Reference Energy          =    -496.4960494617282620 [Eh]
	 Singles Energy            =      -0.0000000000000000 [Eh]
	 Same-Spin Energy          =      -0.5249965353330943 [Eh]
	 Opposite-Spin Energy      =      -1.6348525198458295 [Eh]
	 Correlation Energy        =      -2.1598490551789240 [Eh]
	 Total Energy              =    -498.6558985169072002 [Eh]

	 ================> DF-SCS-MP2 Energies <==================
	-----------------------------------------------------------
	 SCS Same-Spin Scale       =       0.3333333333333333 [-]
	 SCS Opposite-Spin Scale   =       1.2000000000000000 [-]
	 SCS Same-Spin Energy      =      -0.1749988451110314 [Eh]
	 SCS Opposite-Spin Energy  =      -1.9618230238149952 [Eh]
	 SCS Correlation Energy    =      -2.1368218689260265 [Eh]
	 SCS Total Energy          =    -498.6328713306542681 [Eh]
	-----------------------------------------------------------

  Dipole Moment: [D]
     X:    -0.5538      Y:     0.1501      Z:     0.3868     Total:     0.6920

*** Psi4 exiting successfully. Buy a developer a beer!
