                               Psi4 1.3.2 release

  ==> Input File <==

--------------------------------------------------------------------------
#psi4
#
memory 32 gb

molecule  {
0 1
  O        2.2381840    -1.1587810    -0.1175950
  O        2.2381840     1.1587830    -0.1175780
  C       -1.4506090    -0.7058110    -0.0005310
  C       -1.4506100     0.7058110    -0.0005190
  C        0.9370840    -0.6945160    -0.0405820
  C        0.9370830     0.6945180    -0.0405590
  C       -0.2384000    -1.4209720    -0.0261700
  C       -0.2384020     1.4209720    -0.0261890
  C        3.0186620    -0.0000010     0.2058680
  C       -2.7532520    -1.4635880     0.0322900
  C       -2.7532530     1.4635870     0.0322790
  H       -0.2285083    -2.5061204    -0.2840173
  H       -0.2243080     2.5079120    -0.0340480
  H        3.2379270    -0.0000100     1.2832160
  H        3.9284370     0.0000040    -0.3938210
  H       -2.5724980    -2.5416060     0.0194510
  H       -3.3330080    -1.2312860     0.9325220
  H       -3.3837460    -1.2187210    -0.8295640
  H       -3.3329960     1.2313300     0.9325330
  H       -2.5725010     2.5416050     0.0193840
  H       -3.3837580     1.2186740    -0.8295530
units angstrom
no_reorient  #important for SAPT in psi4, default
symmetry c1  #important for SAPT in psi4, default
}

set PROPERTIES_ORIGIN ["COM"]
properties('MP2/aug-cc-pvtz', properties = ['dipole'])
--------------------------------------------------------------------------

    Molecular point group: c1
  Charge       = 0
  Multiplicity = 1
  Basis Set: AUG-CC-PVTZ
    Blend: AUG-CC-PVTZ
  Basis Set: (AUG-CC-PVTZ AUX)
    Blend: AUG-CC-PVTZ-JKFIT

    Orbital Energies [Eh]
    ---------------------

    Doubly Occupied:

       1A    -20.596348     2A    -20.596296     3A    -11.352530
       4A    -11.292748     5A    -11.291406     6A    -11.242617
       7A    -11.241560     8A    -11.240512     9A    -11.238750
      10A    -11.225414    11A    -11.225175    12A     -1.467462
      13A     -1.364924    14A     -1.158671    15A     -1.053492
      16A     -1.037897    17A     -0.952224    18A     -0.943038
      19A     -0.882668    20A     -0.835623    21A     -0.795702
      22A     -0.715457    23A     -0.712781    24A     -0.674650
      25A     -0.647867    26A     -0.613107    27A     -0.609667
      28A     -0.594890    29A     -0.573887    30A     -0.565784
      31A     -0.551528    32A     -0.540654    33A     -0.535651
      34A     -0.534103    35A     -0.529525    36A     -0.500995
      37A     -0.490419    38A     -0.441332    39A     -0.334039
      40A     -0.293465

  @DF-RHF Final Energy:  -496.51036627323481

   => Energetics <=

    Nuclear Repulsion Energy =            601.1663935153831062
    One-Electron Energy =               -1868.3638052632602466
    Two-Electron Energy =                 770.6870454746423320
    Total Energy =                       -496.5103662732348084
  Basis Set: (AUG-CC-PVTZ AUX)
    Blend: AUG-CC-PVTZ-RI
    Molecular point group: c1

    Geometry (in Angstrom), charge = 0, multiplicity = 1:

       Center              X                  Y                   Z               Mass
    ------------   -----------------  -----------------  -----------------  -----------------
         O            2.159946462669    -1.158793178012    -0.108876028386    15.994914619570
         O            2.159946462669     1.158770821988    -0.108859028386    15.994914619570
         C           -1.528846537331    -0.705823178012     0.008187971614    12.000000000000
         C           -1.528847537331     0.705798821988     0.008199971614    12.000000000000
         C            0.858846462669    -0.694528178012    -0.031863028386    12.000000000000
         C            0.858845462669     0.694505821988    -0.031840028386    12.000000000000
         C           -0.316637537331    -1.420984178012    -0.017451028386    12.000000000000
         C           -0.316639537331     1.420959821988    -0.017470028386    12.000000000000
         C            2.940424462669    -0.000013178012     0.214586971614    12.000000000000
         C           -2.831489537331    -1.463600178012     0.041008971614    12.000000000000
         C           -2.831490537331     1.463574821988     0.040997971614    12.000000000000
         H           -0.306745837331    -2.506132578012    -0.275298328386     1.007825032230
         H           -0.302545537331     2.507899821988    -0.025329028386     1.007825032230
         H            3.159689462669    -0.000022178012     1.291934971614     1.007825032230
         H            3.850199462669    -0.000008178012    -0.385102028386     1.007825032230
         H           -2.650735537331    -2.541618178012     0.028169971614     1.007825032230
         H           -3.411245537331    -1.231298178012     0.941240971614     1.007825032230
         H           -3.461983537331    -1.218733178012    -0.820845028386     1.007825032230
         H           -3.411233537331     1.231317821988     0.941251971614     1.007825032230
         H           -2.650738537331     2.541592821988     0.028102971614     1.007825032230
         H           -3.461995537331     1.218661821988    -0.820834028386     1.007825032230

  Basis Set: AUG-CC-PVTZ
    Blend: AUG-CC-PVTZ
  Basis Set: (AUG-CC-PVTZ AUX)
    Blend: AUG-CC-PVTZ-JKFIT
	 Reference Energy          =    -496.5103662732348084 [Eh]
	 Singles Energy            =      -0.0000000000000000 [Eh]
	 Same-Spin Energy          =      -0.5242779539486766 [Eh]
	 Opposite-Spin Energy      =      -1.6326774492764542 [Eh]
	 Correlation Energy        =      -2.1569554032251306 [Eh]
	 Total Energy              =    -498.6673216764599488 [Eh]

	 ================> DF-SCS-MP2 Energies <==================
	-----------------------------------------------------------
	 SCS Same-Spin Scale       =       0.3333333333333333 [-]
	 SCS Opposite-Spin Scale   =       1.2000000000000000 [-]
	 SCS Same-Spin Energy      =      -0.1747593179828922 [Eh]
	 SCS Opposite-Spin Energy  =      -1.9592129391317450 [Eh]
	 SCS Correlation Energy    =      -2.1339722571146371 [Eh]
	 SCS Total Energy          =    -498.6443385303494438 [Eh]
	-----------------------------------------------------------

  Dipole Moment: [D]
     X:    -0.5629      Y:     0.0479      Z:     0.4039     Total:     0.6944

*** Psi4 exiting successfully. Buy a developer a beer!
