                               Psi4 1.3.2 release

  ==> Input File <==

--------------------------------------------------------------------------
#psi4
#
memory 32 gb

molecule  {
0 1
  O        2.2381840    -1.1587810    -0.1175950
  O        2.2381840     1.1587830    -0.1175780
  C       -1.4506090    -0.7058110    -0.0005310
  C       -1.4506100     0.7058110    -0.0005190
  C        0.9370840    -0.6945160    -0.0405820
  C        0.9370830     0.6945180    -0.0405590
  C       -0.2384000    -1.4209720    -0.0261700
  C       -0.2384020     1.4209720    -0.0261890
  C        3.0186620    -0.0000010     0.2058680
  C       -2.7555740    -1.4637057    -0.0676830
  C       -2.7532530     1.4635870     0.0322790
  H       -0.2243070    -2.5079120    -0.0340590
  H       -0.2243080     2.5079120    -0.0340480
  H        3.2379270    -0.0000100     1.2832160
  H        3.9284370     0.0000040    -0.3938210
  H       -2.5724980    -2.5416060     0.0194510
  H       -3.3330080    -1.2312860     0.9325220
  H       -3.3837460    -1.2187210    -0.8295640
  H       -3.3329960     1.2313300     0.9325330
  H       -2.5725010     2.5416050     0.0193840
  H       -3.3837580     1.2186740    -0.8295530
units angstrom
no_reorient  #important for SAPT in psi4, default
symmetry c1  #important for SAPT in psi4, default
}

set PROPERTIES_ORIGIN ["COM"]
properties('MP2/aug-cc-pvtz', properties = ['dipole'])
--------------------------------------------------------------------------

    Molecular point group: c1
  Charge       = 0
  Multiplicity = 1
  Basis Set: AUG-CC-PVTZ
    Blend: AUG-CC-PVTZ
  Basis Set: (AUG-CC-PVTZ AUX)
    Blend: AUG-CC-PVTZ-JKFIT

    Orbital Energies [Eh]
    ---------------------

    Doubly Occupied:

       1A    -20.596216     2A    -20.596152     3A    -11.352438
       4A    -11.292263     5A    -11.290988     6A    -11.242905
       7A    -11.241581     8A    -11.238505     9A    -11.238399
      10A    -11.226820    11A    -11.225323    12A     -1.467294
      13A     -1.364774    14A     -1.158616    15A     -1.053356
      16A     -1.038422    17A     -0.952868    18A     -0.943356
      19A     -0.882940    20A     -0.837280    21A     -0.796275
      22A     -0.716562    23A     -0.712909    24A     -0.676103
      25A     -0.648257    26A     -0.616064    27A     -0.613776
      28A     -0.597981    29A     -0.574506    30A     -0.567250
      31A     -0.555403    32A     -0.538957    33A     -0.534559
      34A     -0.532595    35A     -0.524214    36A     -0.498949
      37A     -0.491226    38A     -0.440245    39A     -0.334324
      40A     -0.293027

  @DF-RHF Final Energy:  -496.50423204077174

   => Energetics <=

    Nuclear Repulsion Energy =            601.2399537913687482
    One-Electron Energy =               -1868.4810133997473258
    Two-Electron Energy =                 770.7368275676069516
    Total Energy =                       -496.5042320407717398
  Basis Set: (AUG-CC-PVTZ AUX)
    Blend: AUG-CC-PVTZ-RI
    Molecular point group: c1

    Geometry (in Angstrom), charge = 0, multiplicity = 1:

       Center              X                  Y                   Z               Mass
    ------------   -----------------  -----------------  -----------------  -----------------
         O            2.160103923368    -1.158771734283    -0.102560482995    15.994914619570
         O            2.160103923368     1.158792265717    -0.102543482995    15.994914619570
         C           -1.528689076632    -0.705801734283     0.014503517005    12.000000000000
         C           -1.528690076632     0.705820265717     0.014515517005    12.000000000000
         C            0.859003923368    -0.694506734283    -0.025547482995    12.000000000000
         C            0.859002923368     0.694527265717    -0.025524482995    12.000000000000
         C           -0.316480076632    -1.420962734283    -0.011135482995    12.000000000000
         C           -0.316482076632     1.420981265717    -0.011154482995    12.000000000000
         C            2.940581923368     0.000008265717     0.220902517005    12.000000000000
         C           -2.833654076632    -1.463696434283    -0.052648482995    12.000000000000
         C           -2.831333076632     1.463596265717     0.047313517005    12.000000000000
         H           -0.302387076632    -2.507902734283    -0.019024482995     1.007825032230
         H           -0.302388076632     2.507921265717    -0.019013482995     1.007825032230
         H            3.159846923368    -0.000000734283     1.298250517005     1.007825032230
         H            3.850356923368     0.000013265717    -0.378786482995     1.007825032230
         H           -2.650578076632    -2.541596734283     0.034485517005     1.007825032230
         H           -3.411088076632    -1.231276734283     0.947556517005     1.007825032230
         H           -3.461826076632    -1.218711734283    -0.814529482995     1.007825032230
         H           -3.411076076632     1.231339265717     0.947567517005     1.007825032230
         H           -2.650581076632     2.541614265717     0.034418517005     1.007825032230
         H           -3.461838076632     1.218683265717    -0.814518482995     1.007825032230

  Basis Set: AUG-CC-PVTZ
    Blend: AUG-CC-PVTZ
  Basis Set: (AUG-CC-PVTZ AUX)
    Blend: AUG-CC-PVTZ-JKFIT
	 Reference Energy          =    -496.5042320407717398 [Eh]
	 Singles Energy            =      -0.0000000000000000 [Eh]
	 Same-Spin Energy          =      -0.5241651125422209 [Eh]
	 Opposite-Spin Energy      =      -1.6326654399428375 [Eh]
	 Correlation Energy        =      -2.1568305524850584 [Eh]
	 Total Energy              =    -498.6610625932568155 [Eh]

	 ================> DF-SCS-MP2 Energies <==================
	-----------------------------------------------------------
	 SCS Same-Spin Scale       =       0.3333333333333333 [-]
	 SCS Opposite-Spin Scale   =       1.2000000000000000 [-]
	 SCS Same-Spin Energy      =      -0.1747217041807403 [Eh]
	 SCS Opposite-Spin Energy  =      -1.9591985279314050 [Eh]
	 SCS Correlation Energy    =      -2.1339202321121453 [Eh]
	 SCS Total Energy          =    -498.6381522728838718 [Eh]
	-----------------------------------------------------------

  Dipole Moment: [D]
     X:    -0.5524      Y:     0.0027      Z:     0.5122     Total:     0.7534

*** Psi4 exiting successfully. Buy a developer a beer!
