                               Psi4 1.3.2 release

  ==> Input File <==

--------------------------------------------------------------------------
#psi4
#
memory 32 gb

molecule  {
0 1
  O        2.2381840    -1.1587810    -0.1175950
  O        2.2381840     1.1587830    -0.1175780
  C       -1.4506090    -0.7058110    -0.0005310
  C       -1.4506100     0.7058110    -0.0005190
  C        0.9370840    -0.6945160    -0.0405820
  C        0.9370830     0.6945180    -0.0405590
  C       -0.2364787    -1.4216998     0.0237878
  C       -0.2384020     1.4209720    -0.0261890
  C        3.0186620    -0.0000010     0.2058680
  C       -2.7532520    -1.4635880     0.0322900
  C       -2.7532530     1.4635870     0.0322790
  H       -0.2243070    -2.5079120    -0.0340590
  H       -0.2243080     2.5079120    -0.0340480
  H        3.2379270    -0.0000100     1.2832160
  H        3.9284370     0.0000040    -0.3938210
  H       -2.5724980    -2.5416060     0.0194510
  H       -3.3330080    -1.2312860     0.9325220
  H       -3.3837460    -1.2187210    -0.8295640
  H       -3.3329960     1.2313300     0.9325330
  H       -2.5725010     2.5416050     0.0193840
  H       -3.3837580     1.2186740    -0.8295530
units angstrom
no_reorient  #important for SAPT in psi4, default
symmetry c1  #important for SAPT in psi4, default
}

set PROPERTIES_ORIGIN ["COM"]
properties('MP2/aug-cc-pvtz', properties = ['dipole'])
--------------------------------------------------------------------------

    Molecular point group: c1
  Charge       = 0
  Multiplicity = 1
  Basis Set: AUG-CC-PVTZ
    Blend: AUG-CC-PVTZ
  Basis Set: (AUG-CC-PVTZ AUX)
    Blend: AUG-CC-PVTZ-JKFIT

    Orbital Energies [Eh]
    ---------------------

    Doubly Occupied:

       1A    -20.596163     2A    -20.596078     3A    -11.352370
       4A    -11.292268     5A    -11.290980     6A    -11.242441
       7A    -11.241314     8A    -11.238480     9A    -11.238392
      10A    -11.225322    11A    -11.225292    12A     -1.467246
      13A     -1.364720    14A     -1.158366    15A     -1.053265
      16A     -1.038197    17A     -0.952365    18A     -0.942943
      19A     -0.882512    20A     -0.837004    21A     -0.795423
      22A     -0.715787    23A     -0.712991    24A     -0.675078
      25A     -0.648130    26A     -0.615063    27A     -0.611357
      28A     -0.595246    29A     -0.573996    30A     -0.565869
      31A     -0.551497    32A     -0.540983    33A     -0.535145
      34A     -0.533904    35A     -0.529574    36A     -0.500564
      37A     -0.491286    38A     -0.441630    39A     -0.334440
      40A     -0.293265

  @DF-RHF Final Energy:  -496.51368344699443

   => Energetics <=

    Nuclear Repulsion Energy =            601.2515694849087140
    One-Electron Energy =               -1868.5366163045960093
    Two-Electron Energy =                 770.7713633726929174
    Total Energy =                       -496.5136834469943778
  Basis Set: (AUG-CC-PVTZ AUX)
    Blend: AUG-CC-PVTZ-RI
    Molecular point group: c1

    Geometry (in Angstrom), charge = 0, multiplicity = 1:

       Center              X                  Y                   Z               Mass
    ------------   -----------------  -----------------  -----------------  -----------------
         O            2.159764613369    -1.158722948425    -0.114549505612    15.994914619570
         O            2.159764613369     1.158841051575    -0.114532505612    15.994914619570
         C           -1.529028386631    -0.705752948425     0.002514494388    12.000000000000
         C           -1.529029386631     0.705869051575     0.002526494388    12.000000000000
         C            0.858664613369    -0.694457948425    -0.037536505612    12.000000000000
         C            0.858663613369     0.694576051575    -0.037513505612    12.000000000000
         C           -0.314898086631    -1.421641748425     0.026833294388    12.000000000000
         C           -0.316821386631     1.421030051575    -0.023143505612    12.000000000000
         C            2.940242613369     0.000057051575     0.208913494388    12.000000000000
         C           -2.831671386631    -1.463529948425     0.035335494388    12.000000000000
         C           -2.831672386631     1.463645051575     0.035324494388    12.000000000000
         H           -0.302726386631    -2.507853948425    -0.031013505612     1.007825032230
         H           -0.302727386631     2.507970051575    -0.031002505612     1.007825032230
         H            3.159507613369     0.000048051575     1.286261494388     1.007825032230
         H            3.850017613369     0.000062051575    -0.390775505612     1.007825032230
         H           -2.650917386631    -2.541547948425     0.022496494388     1.007825032230
         H           -3.411427386631    -1.231227948425     0.935567494388     1.007825032230
         H           -3.462165386631    -1.218662948425    -0.826518505612     1.007825032230
         H           -3.411415386631     1.231388051575     0.935578494388     1.007825032230
         H           -2.650920386631     2.541663051575     0.022429494388     1.007825032230
         H           -3.462177386631     1.218732051575    -0.826507505612     1.007825032230

  Basis Set: AUG-CC-PVTZ
    Blend: AUG-CC-PVTZ
  Basis Set: (AUG-CC-PVTZ AUX)
    Blend: AUG-CC-PVTZ-JKFIT
	 Reference Energy          =    -496.5136834469944347 [Eh]
	 Singles Energy            =      -0.0000000000000000 [Eh]
	 Same-Spin Energy          =      -0.5240622053566261 [Eh]
	 Opposite-Spin Energy      =      -1.6322869864874470 [Eh]
	 Correlation Energy        =      -2.1563491918440731 [Eh]
	 Total Energy              =    -498.6700326388385065 [Eh]

	 ================> DF-SCS-MP2 Energies <==================
	-----------------------------------------------------------
	 SCS Same-Spin Scale       =       0.3333333333333333 [-]
	 SCS Opposite-Spin Scale   =       1.2000000000000000 [-]
	 SCS Same-Spin Energy      =      -0.1746874017855420 [Eh]
	 SCS Opposite-Spin Energy  =      -1.9587443837849363 [Eh]
	 SCS Correlation Energy    =      -2.1334317855704783 [Eh]
	 SCS Total Energy          =    -498.6471152325648859 [Eh]
	-----------------------------------------------------------

  Dipole Moment: [D]
     X:    -0.5690      Y:     0.0066      Z:     0.5300     Total:     0.7776

*** Psi4 exiting successfully. Buy a developer a beer!
