                               Psi4 1.3.2 release

  ==> Input File <==

--------------------------------------------------------------------------
#psi4
#
memory 32 gb

molecule  {
0 1
  O        2.2381840    -1.1587810    -0.1175950
  O        2.2381840     1.1587830    -0.1175780
  C       -1.4506090    -0.7058110    -0.0005310
  C       -1.4506100     0.7058110    -0.0005190
  C        0.9370840    -0.6945160    -0.0405820
  C        0.9370830     0.6945180    -0.0405590
  C       -0.2384000    -1.4209720    -0.0261700
  C       -0.2384020     1.4209720    -0.0261890
  C        3.0186620    -0.0000010     0.2058680
  C       -2.7578959    -1.4638234    -0.1676559
  C       -2.7532530     1.4635870     0.0322790
  H       -0.2243070    -2.5079120    -0.0340590
  H       -0.2243080     2.5079120    -0.0340480
  H        3.2379270    -0.0000100     1.2832160
  H        3.9284370     0.0000040    -0.3938210
  H       -2.5724980    -2.5416060     0.0194510
  H       -3.3330080    -1.2312860     0.9325220
  H       -3.3837460    -1.2187210    -0.8295640
  H       -3.3329960     1.2313300     0.9325330
  H       -2.5725010     2.5416050     0.0193840
  H       -3.3837580     1.2186740    -0.8295530
units angstrom
no_reorient  #important for SAPT in psi4, default
symmetry c1  #important for SAPT in psi4, default
}

set PROPERTIES_ORIGIN ["COM"]
properties('MP2/aug-cc-pvtz', properties = ['dipole'])
--------------------------------------------------------------------------

    Molecular point group: c1
  Charge       = 0
  Multiplicity = 1
  Basis Set: AUG-CC-PVTZ
    Blend: AUG-CC-PVTZ
  Basis Set: (AUG-CC-PVTZ AUX)
    Blend: AUG-CC-PVTZ-JKFIT

    Orbital Energies [Eh]
    ---------------------

    Doubly Occupied:

       1A    -20.596576     2A    -20.596457     3A    -11.352745
       4A    -11.292727     5A    -11.291437     6A    -11.245198
       7A    -11.242159     8A    -11.239168     9A    -11.238772
      10A    -11.231276    11A    -11.225350    12A     -1.467636
      13A     -1.365111    14A     -1.158977    15A     -1.053656
      16A     -1.038713    17A     -0.954698    18A     -0.944427
      19A     -0.884320    20A     -0.838152    21A     -0.798342
      22A     -0.717797    23A     -0.713458    24A     -0.679650
      25A     -0.648695    26A     -0.625143    27A     -0.615211
      28A     -0.599307    29A     -0.575543    30A     -0.571362
      31A     -0.556077    32A     -0.538233    33A     -0.534691
      34A     -0.533813    35A     -0.513967    36A     -0.492766
      37A     -0.488876    38A     -0.435994    39A     -0.334161
      40A     -0.292510

  @DF-RHF Final Energy:  -496.47345754424032

   => Energetics <=

    Nuclear Repulsion Energy =            601.1111461841660457
    One-Electron Energy =               -1868.1229069984462967
    Two-Electron Energy =                 770.5383032700399326
    Total Energy =                       -496.4734575442403184
  Basis Set: (AUG-CC-PVTZ AUX)
    Blend: AUG-CC-PVTZ-RI
    Molecular point group: c1

    Geometry (in Angstrom), charge = 0, multiplicity = 1:

       Center              X                  Y                   Z               Mass
    ------------   -----------------  -----------------  -----------------  -----------------
         O            2.160289591100    -1.158762322554    -0.094566279274    15.994914619570
         O            2.160289591100     1.158801677446    -0.094549279274    15.994914619570
         C           -1.528503408900    -0.705792322554     0.022497720726    12.000000000000
         C           -1.528504408900     0.705829677446     0.022509720726    12.000000000000
         C            0.859189591100    -0.694497322554    -0.017553279274    12.000000000000
         C            0.859188591100     0.694536677446    -0.017530279274    12.000000000000
         C           -0.316294408900    -1.420953322554    -0.003141279274    12.000000000000
         C           -0.316296408900     1.420990677446    -0.003160279274    12.000000000000
         C            2.940767591100     0.000017677446     0.228896720726    12.000000000000
         C           -2.835790308900    -1.463804722554    -0.144627179274    12.000000000000
         C           -2.831147408900     1.463605677446     0.055307720726    12.000000000000
         H           -0.302201408900    -2.507893322554    -0.011030279274     1.007825032230
         H           -0.302202408900     2.507930677446    -0.011019279274     1.007825032230
         H            3.160032591100     0.000008677446     1.306244720726     1.007825032230
         H            3.850542591100     0.000022677446    -0.370792279274     1.007825032230
         H           -2.650392408900    -2.541587322554     0.042479720726     1.007825032230
         H           -3.410902408900    -1.231267322554     0.955550720726     1.007825032230
         H           -3.461640408900    -1.218702322554    -0.806535279274     1.007825032230
         H           -3.410890408900     1.231348677446     0.955561720726     1.007825032230
         H           -2.650395408900     2.541623677446     0.042412720726     1.007825032230
         H           -3.461652408900     1.218692677446    -0.806524279274     1.007825032230

  Basis Set: AUG-CC-PVTZ
    Blend: AUG-CC-PVTZ
  Basis Set: (AUG-CC-PVTZ AUX)
    Blend: AUG-CC-PVTZ-JKFIT
	 Reference Energy          =    -496.4734575442403184 [Eh]
	 Singles Energy            =      -0.0000000000000000 [Eh]
	 Same-Spin Energy          =      -0.5245590133024587 [Eh]
	 Opposite-Spin Energy      =      -1.6340196583835400 [Eh]
	 Correlation Energy        =      -2.1585786716859987 [Eh]
	 Total Energy              =    -498.6320362159262913 [Eh]

	 ================> DF-SCS-MP2 Energies <==================
	-----------------------------------------------------------
	 SCS Same-Spin Scale       =       0.3333333333333333 [-]
	 SCS Opposite-Spin Scale   =       1.2000000000000000 [-]
	 SCS Same-Spin Energy      =      -0.1748530044341529 [Eh]
	 SCS Opposite-Spin Energy  =      -1.9608235900602480 [Eh]
	 SCS Correlation Energy    =      -2.1356765944944009 [Eh]
	 SCS Total Energy          =    -498.6091341387347029 [Eh]
	-----------------------------------------------------------

  Dipole Moment: [D]
     X:    -0.4998      Y:     0.0137      Z:     0.4656     Total:     0.6832

*** Psi4 exiting successfully. Buy a developer a beer!
