                               Psi4 1.3.2 release

  ==> Input File <==

--------------------------------------------------------------------------
#psi4
#
memory 32 gb

molecule  {
0 1
  O        2.2381840    -1.1587810    -0.1175950
  O        2.2381840     1.1587830    -0.1175780
  C       -1.4506090    -0.7058110    -0.0005310
  C       -1.4506100     0.7058110    -0.0005190
  C        0.9370840    -0.6945160    -0.0405820
  C        0.9370830     0.6945180    -0.0405590
  C       -0.2384000    -1.4209720    -0.0261700
  C       -0.2384020     1.4209720    -0.0261890
  C        3.0186620    -0.0000010     0.2058680
  C       -2.7532520    -1.4635880     0.0322900
  C       -2.7532530     1.4635870     0.0322790
  H       -0.2259875    -2.5071954    -0.1340423
  H       -0.2243080     2.5079120    -0.0340480
  H        3.2379270    -0.0000100     1.2832160
  H        3.9284370     0.0000040    -0.3938210
  H       -2.5724980    -2.5416060     0.0194510
  H       -3.3330080    -1.2312860     0.9325220
  H       -3.3837460    -1.2187210    -0.8295640
  H       -3.3329960     1.2313300     0.9325330
  H       -2.5725010     2.5416050     0.0193840
  H       -3.3837580     1.2186740    -0.8295530
units angstrom
no_reorient  #important for SAPT in psi4, default
symmetry c1  #important for SAPT in psi4, default
}

set PROPERTIES_ORIGIN ["COM"]
properties('MP2/aug-cc-pvtz', properties = ['dipole'])
--------------------------------------------------------------------------

    Molecular point group: c1
  Charge       = 0
  Multiplicity = 1
  Basis Set: AUG-CC-PVTZ
    Blend: AUG-CC-PVTZ
  Basis Set: (AUG-CC-PVTZ AUX)
    Blend: AUG-CC-PVTZ-JKFIT

    Orbital Energies [Eh]
    ---------------------

    Doubly Occupied:

       1A    -20.596144     2A    -20.596117     3A    -11.352373
       4A    -11.292265     5A    -11.290991     6A    -11.242329
       7A    -11.241235     8A    -11.238674     9A    -11.238314
      10A    -11.225318    11A    -11.225271    12A     -1.467248
      13A     -1.364726    14A     -1.158522    15A     -1.053297
      16A     -1.038242    17A     -0.952326    18A     -0.942955
      19A     -0.882534    20A     -0.836758    21A     -0.795604
      22A     -0.715927    23A     -0.712812    24A     -0.674914
      25A     -0.648292    26A     -0.614721    27A     -0.611007
      28A     -0.595269    29A     -0.574009    30A     -0.565835
      31A     -0.551500    32A     -0.540878    33A     -0.535244
      34A     -0.533695    35A     -0.530086    36A     -0.500833
      37A     -0.491206    38A     -0.441659    39A     -0.334289
      40A     -0.293266

  @DF-RHF Final Energy:  -496.51377218709501

   => Energetics <=

    Nuclear Repulsion Energy =            601.2655912037670305
    One-Electron Energy =               -1868.5653549731341627
    Two-Electron Energy =                 770.7859915822720041
    Total Energy =                       -496.5137721870950145
  Basis Set: (AUG-CC-PVTZ AUX)
    Blend: AUG-CC-PVTZ-RI
    Molecular point group: c1

    Geometry (in Angstrom), charge = 0, multiplicity = 1:

       Center              X                  Y                   Z               Mass
    ------------   -----------------  -----------------  -----------------  -----------------
         O            2.159929533517    -1.158785958543    -0.109883228316    15.994914619570
         O            2.159929533517     1.158778041457    -0.109866228316    15.994914619570
         C           -1.528863466483    -0.705815958543     0.007180771684    12.000000000000
         C           -1.528864466483     0.705806041457     0.007192771684    12.000000000000
         C            0.858829533517    -0.694520958543    -0.032870228316    12.000000000000
         C            0.858828533517     0.694513041457    -0.032847228316    12.000000000000
         C           -0.316654466483    -1.420976958543    -0.018458228316    12.000000000000
         C           -0.316656466483     1.420967041457    -0.018477228316    12.000000000000
         C            2.940407533517    -0.000005958543     0.213579771684    12.000000000000
         C           -2.831506466483    -1.463592958543     0.040001771684    12.000000000000
         C           -2.831507466483     1.463582041457     0.039990771684    12.000000000000
         H           -0.304241966483    -2.507200358543    -0.126330528316     1.007825032230
         H           -0.302562466483     2.507907041457    -0.026336228316     1.007825032230
         H            3.159672533517    -0.000014958543     1.290927771684     1.007825032230
         H            3.850182533517    -0.000000958543    -0.386109228316     1.007825032230
         H           -2.650752466483    -2.541610958543     0.027162771684     1.007825032230
         H           -3.411262466483    -1.231290958543     0.940233771684     1.007825032230
         H           -3.462000466483    -1.218725958543    -0.821852228316     1.007825032230
         H           -3.411250466483     1.231325041457     0.940244771684     1.007825032230
         H           -2.650755466483     2.541600041457     0.027095771684     1.007825032230
         H           -3.462012466483     1.218669041457    -0.821841228316     1.007825032230

  Basis Set: AUG-CC-PVTZ
    Blend: AUG-CC-PVTZ
  Basis Set: (AUG-CC-PVTZ AUX)
    Blend: AUG-CC-PVTZ-JKFIT
	 Reference Energy          =    -496.5137721870950145 [Eh]
	 Singles Energy            =      -0.0000000000000000 [Eh]
	 Same-Spin Energy          =      -0.5240761915548915 [Eh]
	 Opposite-Spin Energy      =      -1.6322881904482922 [Eh]
	 Correlation Energy        =      -2.1563643820031837 [Eh]
	 Total Energy              =    -498.6701365690981902 [Eh]

	 ================> DF-SCS-MP2 Energies <==================
	-----------------------------------------------------------
	 SCS Same-Spin Scale       =       0.3333333333333333 [-]
	 SCS Opposite-Spin Scale   =       1.2000000000000000 [-]
	 SCS Same-Spin Energy      =      -0.1746920638516305 [Eh]
	 SCS Opposite-Spin Energy  =      -1.9587458285379507 [Eh]
	 SCS Correlation Energy    =      -2.1334378923895811 [Eh]
	 SCS Total Energy          =    -498.6472100794845801 [Eh]
	-----------------------------------------------------------

  Dipole Moment: [D]
     X:    -0.5676      Y:     0.0070      Z:     0.4988     Total:     0.7557

*** Psi4 exiting successfully. Buy a developer a beer!
