                               Psi4 1.3.2 release

  ==> Input File <==

--------------------------------------------------------------------------
#psi4
#
memory 32 gb

molecule  {
0 1
  O        2.2381840    -1.1587810    -0.1175950
  O        2.2381840     1.1587830    -0.1175780
  C       -1.4506090    -0.7058110    -0.0005310
  C       -1.4506100     0.7058110    -0.0005190
  C        0.9370840    -0.6945160    -0.0405820
  C        0.9370830     0.6945180    -0.0405590
  C       -0.2384000    -1.4209720    -0.0261700
  C       -0.2384020     1.4209720    -0.0261890
  C        3.0186620    -0.0000010     0.2058680
  C       -2.7567350    -1.4637645    -0.1176695
  C       -2.7532530     1.4635870     0.0322790
  H       -0.2243070    -2.5079120    -0.0340590
  H       -0.2243080     2.5079120    -0.0340480
  H        3.2379270    -0.0000100     1.2832160
  H        3.9284370     0.0000040    -0.3938210
  H       -2.5724980    -2.5416060     0.0194510
  H       -3.3330080    -1.2312860     0.9325220
  H       -3.3837460    -1.2187210    -0.8295640
  H       -3.3329960     1.2313300     0.9325330
  H       -2.5725010     2.5416050     0.0193840
  H       -3.3837580     1.2186740    -0.8295530
units angstrom
no_reorient  #important for SAPT in psi4, default
symmetry c1  #important for SAPT in psi4, default
}

set PROPERTIES_ORIGIN ["COM"]
properties('MP2/aug-cc-pvtz', properties = ['dipole'])
--------------------------------------------------------------------------

    Molecular point group: c1
  Charge       = 0
  Multiplicity = 1
  Basis Set: AUG-CC-PVTZ
    Blend: AUG-CC-PVTZ
  Basis Set: (AUG-CC-PVTZ AUX)
    Blend: AUG-CC-PVTZ-JKFIT

    Orbital Energies [Eh]
    ---------------------

    Doubly Occupied:

       1A    -20.596367     2A    -20.596276     3A    -11.352568
       4A    -11.292455     5A    -11.291175     6A    -11.243823
       7A    -11.241866     8A    -11.238786     9A    -11.238556
      10A    -11.228684    11A    -11.225334    12A     -1.467437
      13A     -1.364914    14A     -1.158768    15A     -1.053479
      16A     -1.038543    17A     -0.953576    18A     -0.943830
      19A     -0.883513    20A     -0.837639    21A     -0.797141
      22A     -0.717058    23A     -0.713148    24A     -0.677541
      25A     -0.648391    26A     -0.619907    27A     -0.614812
      28A     -0.598829    29A     -0.574928    30A     -0.569484
      31A     -0.556205    32A     -0.538464    33A     -0.534594
      34A     -0.533240    35A     -0.518155    36A     -0.495897
      37A     -0.490953    38A     -0.438512    39A     -0.334257
      40A     -0.292813

  @DF-RHF Final Energy:  -496.49147839263827

   => Energetics <=

    Nuclear Repulsion Energy =            601.1858604778752806
    One-Electron Energy =               -1868.3308487376093581
    Two-Electron Energy =                 770.6535098670956359
    Total Energy =                       -496.4914783926383279
  Basis Set: (AUG-CC-PVTZ AUX)
    Blend: AUG-CC-PVTZ-RI
    Molecular point group: c1

    Geometry (in Angstrom), charge = 0, multiplicity = 1:

       Center              X                  Y                   Z               Mass
    ------------   -----------------  -----------------  -----------------  -----------------
         O            2.160196761232    -1.158767032417    -0.098563377136    15.994914619570
         O            2.160196761232     1.158796967583    -0.098546377136    15.994914619570
         C           -1.528596238768    -0.705797032417     0.018500622864    12.000000000000
         C           -1.528597238768     0.705824967583     0.018512622864    12.000000000000
         C            0.859096761232    -0.694502032417    -0.021550377136    12.000000000000
         C            0.859095761232     0.694531967583    -0.021527377136    12.000000000000
         C           -0.316387238768    -1.420958032417    -0.007138377136    12.000000000000
         C           -0.316389238768     1.420985967583    -0.007157377136    12.000000000000
         C            2.940674761232     0.000012967583     0.224899622864    12.000000000000
         C           -2.834722238768    -1.463750532417    -0.098637877136    12.000000000000
         C           -2.831240238768     1.463600967583     0.051310622864    12.000000000000
         H           -0.302294238768    -2.507898032417    -0.015027377136     1.007825032230
         H           -0.302295238768     2.507925967583    -0.015016377136     1.007825032230
         H            3.159939761232     0.000003967583     1.302247622864     1.007825032230
         H            3.850449761232     0.000017967583    -0.374789377136     1.007825032230
         H           -2.650485238768    -2.541592032417     0.038482622864     1.007825032230
         H           -3.410995238768    -1.231272032417     0.951553622864     1.007825032230
         H           -3.461733238768    -1.218707032417    -0.810532377136     1.007825032230
         H           -3.410983238768     1.231343967583     0.951564622864     1.007825032230
         H           -2.650488238768     2.541618967583     0.038415622864     1.007825032230
         H           -3.461745238768     1.218687967583    -0.810521377136     1.007825032230

  Basis Set: AUG-CC-PVTZ
    Blend: AUG-CC-PVTZ
  Basis Set: (AUG-CC-PVTZ AUX)
    Blend: AUG-CC-PVTZ-JKFIT
	 Reference Energy          =    -496.4914783926382711 [Eh]
	 Singles Energy            =      -0.0000000000000000 [Eh]
	 Same-Spin Energy          =      -0.5243272486812418 [Eh]
	 Opposite-Spin Energy      =      -1.6332202566413552 [Eh]
	 Correlation Energy        =      -2.1575475053225972 [Eh]
	 Total Energy              =    -498.6490258979608825 [Eh]

	 ================> DF-SCS-MP2 Energies <==================
	-----------------------------------------------------------
	 SCS Same-Spin Scale       =       0.3333333333333333 [-]
	 SCS Opposite-Spin Scale   =       1.2000000000000000 [-]
	 SCS Same-Spin Energy      =      -0.1747757495604139 [Eh]
	 SCS Opposite-Spin Energy  =      -1.9598643079696261 [Eh]
	 SCS Correlation Energy    =      -2.1346400575300399 [Eh]
	 SCS Total Energy          =    -498.6261184501682919 [Eh]
	-----------------------------------------------------------

  Dipole Moment: [D]
     X:    -0.5300      Y:     0.0070      Z:     0.4878     Total:     0.7204

*** Psi4 exiting successfully. Buy a developer a beer!
