                               Psi4 1.3.2 release

  ==> Input File <==

--------------------------------------------------------------------------
#psi4
#
memory 32 gb

molecule  {
0 1
  O        2.2381840    -1.1587810    -0.1175950
  O        2.2381840     1.1587830    -0.1175780
  C       -1.4506090    -0.7058110    -0.0005310
  C       -1.4506100     0.7058110    -0.0005190
  C        0.9370840    -0.6945160    -0.0405820
  C        0.9370830     0.6945180    -0.0405590
  C       -0.2384000    -1.4209720    -0.0261700
  C       -0.2384020     1.4209720    -0.0261890
  C        3.0186620    -0.0000010     0.2058680
  C       -2.7532520    -1.4635880     0.0322900
  C       -2.7532530     1.4635870     0.0322790
  H       -0.2243070    -2.5079120    -0.0340590
  H       -0.2243080     2.5079120    -0.0340480
  H        3.2379270    -0.0000100     1.2832160
  H        3.9284370     0.0000040    -0.3938210
  H       -2.5724980    -2.5416060     0.0194510
  H       -3.3330080    -1.2312860     0.9325220
  H       -3.3837460    -1.2187210    -0.8295640
  H       -3.3329960     1.2313300     0.9325330
  H       -2.5725010     2.5416050     0.0193840
  H       -3.3837580     1.2186740    -0.8295530
units angstrom
no_reorient  #important for SAPT in psi4, default
symmetry c1  #important for SAPT in psi4, default
}

set PROPERTIES_ORIGIN ["COM"]
properties('MP2/aug-cc-pvtz', properties = ['dipole'])
--------------------------------------------------------------------------

    Molecular point group: c1
  Charge       = 0
  Multiplicity = 1
  Basis Set: AUG-CC-PVTZ
    Blend: AUG-CC-PVTZ
  Basis Set: (AUG-CC-PVTZ AUX)
    Blend: AUG-CC-PVTZ-JKFIT

    Orbital Energies [Eh]
    ---------------------

    Doubly Occupied:

       1A    -20.596098     2A    -20.596078     3A    -11.352327
       4A    -11.292123     5A    -11.290851     6A    -11.242312
       7A    -11.241214     8A    -11.238285     9A    -11.238267
      10A    -11.225315    11A    -11.225308    12A     -1.467188
      13A     -1.364671    14A     -1.158497    15A     -1.053257
      16A     -1.038323    17A     -0.952355    18A     -0.942947
      19A     -0.882490    20A     -0.836998    21A     -0.795588
      22A     -0.716167    23A     -0.712722    24A     -0.675020
      25A     -0.648195    26A     -0.615064    27A     -0.611256
      28A     -0.595354    29A     -0.574093    30A     -0.565899
      31A     -0.551510    32A     -0.540991    33A     -0.535065
      34A     -0.533384    35A     -0.530426    36A     -0.500804
      37A     -0.491294    38A     -0.441695    39A     -0.334383
      40A     -0.293217

  @DF-RHF Final Energy:  -496.51434350248934

   => Energetics <=

    Nuclear Repulsion Energy =            601.2854619809494352
    One-Electron Energy =               -1868.6055486195655249
    Two-Electron Energy =                 770.8057431361266936
    Total Energy =                       -496.5143435024892824
  Basis Set: (AUG-CC-PVTZ AUX)
    Blend: AUG-CC-PVTZ-RI
    Molecular point group: c1

    Geometry (in Angstrom), charge = 0, multiplicity = 1:

       Center              X                  Y                   Z               Mass
    ------------   -----------------  -----------------  -----------------  -----------------
         O            2.159918247640    -1.158781146011    -0.110554694712    15.994914619570
         O            2.159918247640     1.158782853989    -0.110537694712    15.994914619570
         C           -1.528874752360    -0.705811146011     0.006509305288    12.000000000000
         C           -1.528875752360     0.705810853989     0.006521305288    12.000000000000
         C            0.858818247640    -0.694516146011    -0.033541694712    12.000000000000
         C            0.858817247640     0.694517853989    -0.033518694712    12.000000000000
         C           -0.316665752360    -1.420972146011    -0.019129694712    12.000000000000
         C           -0.316667752360     1.420971853989    -0.019148694712    12.000000000000
         C            2.940396247640    -0.000001146011     0.212908305288    12.000000000000
         C           -2.831517752360    -1.463588146011     0.039330305288    12.000000000000
         C           -2.831518752360     1.463586853989     0.039319305288    12.000000000000
         H           -0.302572752360    -2.507912146011    -0.027018694712     1.007825032230
         H           -0.302573752360     2.507911853989    -0.027007694712     1.007825032230
         H            3.159661247640    -0.000010146011     1.290256305288     1.007825032230
         H            3.850171247640     0.000003853989    -0.386780694712     1.007825032230
         H           -2.650763752360    -2.541606146011     0.026491305288     1.007825032230
         H           -3.411273752360    -1.231286146011     0.939562305288     1.007825032230
         H           -3.462011752360    -1.218721146011    -0.822523694712     1.007825032230
         H           -3.411261752360     1.231329853989     0.939573305288     1.007825032230
         H           -2.650766752360     2.541604853989     0.026424305288     1.007825032230
         H           -3.462023752360     1.218673853989    -0.822512694712     1.007825032230

  Basis Set: AUG-CC-PVTZ
    Blend: AUG-CC-PVTZ
  Basis Set: (AUG-CC-PVTZ AUX)
    Blend: AUG-CC-PVTZ-JKFIT
	 Reference Energy          =    -496.5143435024893392 [Eh]
	 Singles Energy            =      -0.0000000000000000 [Eh]
	 Same-Spin Energy          =      -0.5240441314118987 [Eh]
	 Opposite-Spin Energy      =      -1.6322382722365409 [Eh]
	 Correlation Energy        =      -2.1562824036484396 [Eh]
	 Total Energy              =    -498.6706259061377864 [Eh]

	 ================> DF-SCS-MP2 Energies <==================
	-----------------------------------------------------------
	 SCS Same-Spin Scale       =       0.3333333333333333 [-]
	 SCS Opposite-Spin Scale   =       1.2000000000000000 [-]
	 SCS Same-Spin Energy      =      -0.1746813771372995 [Eh]
	 SCS Opposite-Spin Energy  =      -1.9586859266838490 [Eh]
	 SCS Correlation Energy    =      -2.1333673038211485 [Eh]
	 SCS Total Energy          =    -498.6477108063104993 [Eh]
	-----------------------------------------------------------

  Dipole Moment: [D]
     X:    -0.5702      Y:    -0.0000      Z:     0.5640     Total:     0.8020

*** Psi4 exiting successfully. Buy a developer a beer!
