                               Psi4 1.3.2 release

  ==> Input File <==

--------------------------------------------------------------------------
#psi4
#
memory 32 gb

molecule  {
0 1
  O        2.2381840    -1.1587810    -0.1175950
  O        2.2381840     1.1587830    -0.1175780
  C       -1.4506090    -0.7058110    -0.0005310
  C       -1.4506100     0.7058110    -0.0005190
  C        0.9370840    -0.6945160    -0.0405820
  C        0.9370830     0.6945180    -0.0405590
  C       -0.2384000    -1.4209720    -0.0261700
  C       -0.2384020     1.4209720    -0.0261890
  C        3.0186620    -0.0000010     0.2058680
  C       -2.7532520    -1.4635880     0.0322900
  C       -2.7532530     1.4635870     0.0322790
  H       -0.2276680    -2.5064787    -0.2340256
  H       -0.2243080     2.5079120    -0.0340480
  H        3.2379270    -0.0000100     1.2832160
  H        3.9284370     0.0000040    -0.3938210
  H       -2.5724980    -2.5416060     0.0194510
  H       -3.3330080    -1.2312860     0.9325220
  H       -3.3837460    -1.2187210    -0.8295640
  H       -3.3329960     1.2313300     0.9325330
  H       -2.5725010     2.5416050     0.0193840
  H       -3.3837580     1.2186740    -0.8295530
units angstrom
no_reorient  #important for SAPT in psi4, default
symmetry c1  #important for SAPT in psi4, default
}

set PROPERTIES_ORIGIN ["COM"]
properties('MP2/aug-cc-pvtz', properties = ['dipole'])
--------------------------------------------------------------------------

    Molecular point group: c1
  Charge       = 0
  Multiplicity = 1
  Basis Set: AUG-CC-PVTZ
    Blend: AUG-CC-PVTZ
  Basis Set: (AUG-CC-PVTZ AUX)
    Blend: AUG-CC-PVTZ-JKFIT

    Orbital Energies [Eh]
    ---------------------

    Doubly Occupied:

       1A    -20.596254     2A    -20.596229     3A    -11.352466
       4A    -11.292547     5A    -11.291245     6A    -11.242476
       7A    -11.241398     8A    -11.239764     9A    -11.238556
      10A    -11.225370    11A    -11.225211    12A     -1.467374
      13A     -1.364842    14A     -1.158606    15A     -1.053409
      16A     -1.038037    17A     -0.952263    18A     -0.943001
      19A     -0.882614    20A     -0.836089    21A     -0.795658
      22A     -0.715607    23A     -0.712822    24A     -0.674745
      25A     -0.648070    26A     -0.613638    27A     -0.610377
      28A     -0.595060    29A     -0.573930    30A     -0.565797
      31A     -0.551512    32A     -0.540737    33A     -0.535502
      34A     -0.533971    35A     -0.529721    36A     -0.500925
      37A     -0.490777    38A     -0.441477    39A     -0.334134
      40A     -0.293382

  @DF-RHF Final Energy:  -496.51188598506081

   => Energetics <=

    Nuclear Repulsion Energy =            601.2082732580623770
    One-Electron Energy =               -1868.4491328137730761
    Two-Electron Energy =                 770.7289735706499414
    Total Energy =                       -496.5118859850608715
  Basis Set: (AUG-CC-PVTZ AUX)
    Blend: AUG-CC-PVTZ-RI
    Molecular point group: c1

    Geometry (in Angstrom), charge = 0, multiplicity = 1:

       Center              X                  Y                   Z               Mass
    ------------   -----------------  -----------------  -----------------  -----------------
         O            2.159940819395    -1.158790771746    -0.109211761920    15.994914619570
         O            2.159940819395     1.158773228254    -0.109194761920    15.994914619570
         C           -1.528852180605    -0.705820771746     0.007852238080    12.000000000000
         C           -1.528853180605     0.705801228254     0.007864238080    12.000000000000
         C            0.858840819395    -0.694525771746    -0.032198761920    12.000000000000
         C            0.858839819395     0.694508228254    -0.032175761920    12.000000000000
         C           -0.316643180605    -1.420981771746    -0.017786761920    12.000000000000
         C           -0.316645180605     1.420962228254    -0.017805761920    12.000000000000
         C            2.940418819395    -0.000010771746     0.214251238080    12.000000000000
         C           -2.831495180605    -1.463597771746     0.040673238080    12.000000000000
         C           -2.831496180605     1.463577228254     0.040662238080    12.000000000000
         H           -0.305911180605    -2.506488471746    -0.225642361920     1.007825032230
         H           -0.302551180605     2.507902228254    -0.025664761920     1.007825032230
         H            3.159683819395    -0.000019771746     1.291599238080     1.007825032230
         H            3.850193819395    -0.000005771746    -0.385437761920     1.007825032230
         H           -2.650741180605    -2.541615771746     0.027834238080     1.007825032230
         H           -3.411251180605    -1.231295771746     0.940905238080     1.007825032230
         H           -3.461989180605    -1.218730771746    -0.821180761920     1.007825032230
         H           -3.411239180605     1.231320228254     0.940916238080     1.007825032230
         H           -2.650744180605     2.541595228254     0.027767238080     1.007825032230
         H           -3.462001180605     1.218664228254    -0.821169761920     1.007825032230

  Basis Set: AUG-CC-PVTZ
    Blend: AUG-CC-PVTZ
  Basis Set: (AUG-CC-PVTZ AUX)
    Blend: AUG-CC-PVTZ-JKFIT
	 Reference Energy          =    -496.5118859850608146 [Eh]
	 Singles Energy            =      -0.0000000000000000 [Eh]
	 Same-Spin Energy          =      -0.5241909900308621 [Eh]
	 Opposite-Spin Energy      =      -1.6325002430930362 [Eh]
	 Correlation Energy        =      -2.1566912331238983 [Eh]
	 Total Energy              =    -498.6685772181847369 [Eh]

	 ================> DF-SCS-MP2 Energies <==================
	-----------------------------------------------------------
	 SCS Same-Spin Scale       =       0.3333333333333333 [-]
	 SCS Opposite-Spin Scale   =       1.2000000000000000 [-]
	 SCS Same-Spin Energy      =      -0.1747303300102874 [Eh]
	 SCS Opposite-Spin Energy  =      -1.9590002917116434 [Eh]
	 SCS Correlation Energy    =      -2.1337306217219307 [Eh]
	 SCS Total Energy          =    -498.6456166067827667 [Eh]
	-----------------------------------------------------------

  Dipole Moment: [D]
     X:    -0.5645      Y:     0.0304      Z:     0.4350     Total:     0.7133

*** Psi4 exiting successfully. Buy a developer a beer!
