                               Psi4 1.3.2 release

  ==> Input File <==

--------------------------------------------------------------------------
#psi4
#
memory 32 gb

molecule  {
0 1
  O        2.2381840    -1.1587810    -0.1175950
  O        2.2381840     1.1587830    -0.1175780
  C       -1.4506090    -0.7058110    -0.0005310
  C       -1.4506100     0.7058110    -0.0005190
  C        0.9370840    -0.6945160    -0.0405820
  C        0.9370830     0.6945180    -0.0405590
  C       -0.2326362    -1.4231553     0.1237033
  C       -0.2384020     1.4209720    -0.0261890
  C        3.0186620    -0.0000010     0.2058680
  C       -2.7532520    -1.4635880     0.0322900
  C       -2.7532530     1.4635870     0.0322790
  H       -0.2243070    -2.5079120    -0.0340590
  H       -0.2243080     2.5079120    -0.0340480
  H        3.2379270    -0.0000100     1.2832160
  H        3.9284370     0.0000040    -0.3938210
  H       -2.5724980    -2.5416060     0.0194510
  H       -3.3330080    -1.2312860     0.9325220
  H       -3.3837460    -1.2187210    -0.8295640
  H       -3.3329960     1.2313300     0.9325330
  H       -2.5725010     2.5416050     0.0193840
  H       -3.3837580     1.2186740    -0.8295530
units angstrom
no_reorient  #important for SAPT in psi4, default
symmetry c1  #important for SAPT in psi4, default
}

set PROPERTIES_ORIGIN ["COM"]
properties('MP2/aug-cc-pvtz', properties = ['dipole'])
--------------------------------------------------------------------------

    Molecular point group: c1
  Charge       = 0
  Multiplicity = 1
  Basis Set: AUG-CC-PVTZ
    Blend: AUG-CC-PVTZ
  Basis Set: (AUG-CC-PVTZ AUX)
    Blend: AUG-CC-PVTZ-JKFIT

    Orbital Energies [Eh]
    ---------------------

    Doubly Occupied:

       1A    -20.596657     2A    -20.596119     3A    -11.352561
       4A    -11.293678     5A    -11.291355     6A    -11.243784
       7A    -11.241552     8A    -11.240049     9A    -11.239363
      10A    -11.225399    11A    -11.225312    12A     -1.467563
      13A     -1.364999    14A     -1.157702    15A     -1.053257
      16A     -1.037410    17A     -0.952144    18A     -0.942921
      19A     -0.882640    20A     -0.836744    21A     -0.794621
      22A     -0.715061    23A     -0.712880    24A     -0.674878
      25A     -0.647378    26A     -0.613987    27A     -0.610758
      28A     -0.595000    29A     -0.573880    30A     -0.565793
      31A     -0.551579    32A     -0.540904    33A     -0.535553
      34A     -0.534589    35A     -0.527524    36A     -0.499667
      37A     -0.490606    38A     -0.441150    39A     -0.334690
      40A     -0.293134

  @DF-RHF Final Energy:  -496.50791258775939

   => Energetics <=

    Nuclear Repulsion Energy =            601.0007706045946634
    One-Electron Energy =               -1868.0276855493493713
    Two-Electron Energy =                 770.5190023569953155
    Total Energy =                       -496.5079125877593924
  Basis Set: (AUG-CC-PVTZ AUX)
    Blend: AUG-CC-PVTZ-RI
    Molecular point group: c1

    Geometry (in Angstrom), charge = 0, multiplicity = 1:

       Center              X                  Y                   Z               Mass
    ------------   -----------------  -----------------  -----------------  -----------------
         O            2.159457352823    -1.158606561249    -0.122539119416    15.994914619570
         O            2.159457352823     1.158957438751    -0.122522119416    15.994914619570
         C           -1.529335647177    -0.705636561249    -0.005475119416    12.000000000000
         C           -1.529336647177     0.705985438751    -0.005463119416    12.000000000000
         C            0.858357352823    -0.694341561249    -0.045526119416    12.000000000000
         C            0.858356352823     0.694692438751    -0.045503119416    12.000000000000
         C           -0.311362847177    -1.422980861249     0.118759180584    12.000000000000
         C           -0.317128647177     1.421146438751    -0.031133119416    12.000000000000
         C            2.939935352823     0.000173438751     0.200923880584    12.000000000000
         C           -2.831978647177    -1.463413561249     0.027345880584    12.000000000000
         C           -2.831979647177     1.463761438751     0.027334880584    12.000000000000
         H           -0.303033647177    -2.507737561249    -0.039003119416     1.007825032230
         H           -0.303034647177     2.508086438751    -0.038992119416     1.007825032230
         H            3.159200352823     0.000164438751     1.278271880584     1.007825032230
         H            3.849710352823     0.000178438751    -0.398765119416     1.007825032230
         H           -2.651224647177    -2.541431561249     0.014506880584     1.007825032230
         H           -3.411734647177    -1.231111561249     0.927577880584     1.007825032230
         H           -3.462472647177    -1.218546561249    -0.834508119416     1.007825032230
         H           -3.411722647177     1.231504438751     0.927588880584     1.007825032230
         H           -2.651227647177     2.541779438751     0.014439880584     1.007825032230
         H           -3.462484647177     1.218848438751    -0.834497119416     1.007825032230

  Basis Set: AUG-CC-PVTZ
    Blend: AUG-CC-PVTZ
  Basis Set: (AUG-CC-PVTZ AUX)
    Blend: AUG-CC-PVTZ-JKFIT
	 Reference Energy          =    -496.5079125877593924 [Eh]
	 Singles Energy            =      -0.0000000000000000 [Eh]
	 Same-Spin Energy          =      -0.5243613344626802 [Eh]
	 Opposite-Spin Energy      =      -1.6330561072498067 [Eh]
	 Correlation Energy        =      -2.1574174417124867 [Eh]
	 Total Energy              =    -498.6653300294718747 [Eh]

	 ================> DF-SCS-MP2 Energies <==================
	-----------------------------------------------------------
	 SCS Same-Spin Scale       =       0.3333333333333333 [-]
	 SCS Opposite-Spin Scale   =       1.2000000000000000 [-]
	 SCS Same-Spin Energy      =      -0.1747871114875600 [Eh]
	 SCS Opposite-Spin Energy  =      -1.9596673286997679 [Eh]
	 SCS Correlation Energy    =      -2.1344544401873278 [Eh]
	 SCS Total Energy          =    -498.6423670279467046 [Eh]
	-----------------------------------------------------------

  Dipole Moment: [D]
     X:    -0.5635      Y:     0.0555      Z:     0.4604     Total:     0.7298

*** Psi4 exiting successfully. Buy a developer a beer!
