                               Psi4 1.3.2 release

  ==> Input File <==

--------------------------------------------------------------------------
#psi4
#
memory 32 gb

molecule  {
0 1
  O        2.2381840    -1.1587810    -0.1175950
  O        2.2381840     1.1587830    -0.1175780
  C       -1.4506090    -0.7058110    -0.0005310
  C       -1.4506100     0.7058110    -0.0005190
  C        0.9370840    -0.6945160    -0.0405820
  C        0.9370830     0.6945180    -0.0405590
  C       -0.2307149    -1.4238831     0.1736611
  C       -0.2384020     1.4209720    -0.0261890
  C        3.0186620    -0.0000010     0.2058680
  C       -2.7532520    -1.4635880     0.0322900
  C       -2.7532530     1.4635870     0.0322790
  H       -0.2243070    -2.5079120    -0.0340590
  H       -0.2243080     2.5079120    -0.0340480
  H        3.2379270    -0.0000100     1.2832160
  H        3.9284370     0.0000040    -0.3938210
  H       -2.5724980    -2.5416060     0.0194510
  H       -3.3330080    -1.2312860     0.9325220
  H       -3.3837460    -1.2187210    -0.8295640
  H       -3.3329960     1.2313300     0.9325330
  H       -2.5725010     2.5416050     0.0193840
  H       -3.3837580     1.2186740    -0.8295530
units angstrom
no_reorient  #important for SAPT in psi4, default
symmetry c1  #important for SAPT in psi4, default
}

set PROPERTIES_ORIGIN ["COM"]
properties('MP2/aug-cc-pvtz', properties = ['dipole'])
--------------------------------------------------------------------------

    Molecular point group: c1
  Charge       = 0
  Multiplicity = 1
  Basis Set: AUG-CC-PVTZ
    Blend: AUG-CC-PVTZ
  Basis Set: (AUG-CC-PVTZ AUX)
    Blend: AUG-CC-PVTZ-JKFIT

    Orbital Energies [Eh]
    ---------------------

    Doubly Occupied:

       1A    -20.597078     2A    -20.596174     3A    -11.352712
       4A    -11.295100     5A    -11.291434     6A    -11.245094
       7A    -11.241655     8A    -11.241367     9A    -11.240161
      10A    -11.225474    11A    -11.225349    12A     -1.467826
      13A     -1.365234    14A     -1.157192    15A     -1.053255
      16A     -1.036746    17A     -0.951920    18A     -0.942898
      19A     -0.882752    20A     -0.836495    21A     -0.794030
      22A     -0.715021    23A     -0.712249    24A     -0.674669
      25A     -0.646759    26A     -0.613471    27A     -0.609524
      28A     -0.594859    29A     -0.573875    30A     -0.565725
      31A     -0.551675    32A     -0.540838    33A     -0.535772
      34A     -0.534854    35A     -0.526382    36A     -0.498968
      37A     -0.489883    38A     -0.440740    39A     -0.334907
      40A     -0.292971

  @DF-RHF Final Energy:  -496.50275720368103

   => Energetics <=

    Nuclear Repulsion Energy =            600.7861998442637059
    One-Electron Energy =               -1867.5917456523000055
    Two-Electron Energy =                 770.3027886043552144
    Total Energy =                       -496.5027572036809715
  Basis Set: (AUG-CC-PVTZ AUX)
    Blend: AUG-CC-PVTZ-RI
    Molecular point group: c1

    Geometry (in Angstrom), charge = 0, multiplicity = 1:

       Center              X                  Y                   Z               Mass
    ------------   -----------------  -----------------  -----------------  -----------------
         O            2.159303718552    -1.158548363662    -0.126533930316    15.994914619570
         O            2.159303718552     1.159015636338    -0.126516930316    15.994914619570
         C           -1.529489281448    -0.705578363662    -0.009469930316    12.000000000000
         C           -1.529490281448     0.706043636338    -0.009457930316    12.000000000000
         C            0.858203718552    -0.694283363662    -0.049520930316    12.000000000000
         C            0.858202718552     0.694750636338    -0.049497930316    12.000000000000
         C           -0.309595181448    -1.423650463662     0.164722169684    12.000000000000
         C           -0.317282281448     1.421204636338    -0.035127930316    12.000000000000
         C            2.939781718552     0.000231636338     0.196929069684    12.000000000000
         C           -2.832132281448    -1.463355363662     0.023351069684    12.000000000000
         C           -2.832133281448     1.463819636338     0.023340069684    12.000000000000
         H           -0.303187281448    -2.507679363662    -0.042997930316     1.007825032230
         H           -0.303188281448     2.508144636338    -0.042986930316     1.007825032230
         H            3.159046718552     0.000222636338     1.274277069684     1.007825032230
         H            3.849556718552     0.000236636338    -0.402759930316     1.007825032230
         H           -2.651378281448    -2.541373363662     0.010512069684     1.007825032230
         H           -3.411888281448    -1.231053363662     0.923583069684     1.007825032230
         H           -3.462626281448    -1.218488363662    -0.838502930316     1.007825032230
         H           -3.411876281448     1.231562636338     0.923594069684     1.007825032230
         H           -2.651381281448     2.541837636338     0.010445069684     1.007825032230
         H           -3.462638281448     1.218906636338    -0.838491930316     1.007825032230

  Basis Set: AUG-CC-PVTZ
    Blend: AUG-CC-PVTZ
  Basis Set: (AUG-CC-PVTZ AUX)
    Blend: AUG-CC-PVTZ-JKFIT
	 Reference Energy          =    -496.5027572036810284 [Eh]
	 Singles Energy            =      -0.0000000000000000 [Eh]
	 Same-Spin Energy          =      -0.5246389266627309 [Eh]
	 Opposite-Spin Energy      =      -1.6338277599191642 [Eh]
	 Correlation Energy        =      -2.1584666865818951 [Eh]
	 Total Energy              =    -498.6612238902629315 [Eh]

	 ================> DF-SCS-MP2 Energies <==================
	-----------------------------------------------------------
	 SCS Same-Spin Scale       =       0.3333333333333333 [-]
	 SCS Opposite-Spin Scale   =       1.2000000000000000 [-]
	 SCS Same-Spin Energy      =      -0.1748796422209103 [Eh]
	 SCS Opposite-Spin Energy  =      -1.9605933119029970 [Eh]
	 SCS Correlation Energy    =      -2.1354729541239075 [Eh]
	 SCS Total Energy          =    -498.6382301578049123 [Eh]
	-----------------------------------------------------------

  Dipole Moment: [D]
     X:    -0.5592      Y:     0.0973      Z:     0.4242     Total:     0.7086

*** Psi4 exiting successfully. Buy a developer a beer!
