                               Psi4 1.3.2 release

  ==> Input File <==

--------------------------------------------------------------------------
#psi4
#
memory 32 gb

molecule  {
0 1
  O        2.2381840    -1.1587810    -0.1175950
  O        2.2381840     1.1587830    -0.1175780
  C       -1.4506090    -0.7058110    -0.0005310
  C       -1.4506100     0.7058110    -0.0005190
  C        0.9370840    -0.6945160    -0.0405820
  C        0.9370830     0.6945180    -0.0405590
  C       -0.2384000    -1.4209720    -0.0261700
  C       -0.2384020     1.4209720    -0.0261890
  C        3.0186620    -0.0000010     0.2058680
  C       -2.7590569    -1.4638822    -0.2176424
  C       -2.7532530     1.4635870     0.0322790
  H       -0.2243070    -2.5079120    -0.0340590
  H       -0.2243080     2.5079120    -0.0340480
  H        3.2379270    -0.0000100     1.2832160
  H        3.9284370     0.0000040    -0.3938210
  H       -2.5724980    -2.5416060     0.0194510
  H       -3.3330080    -1.2312860     0.9325220
  H       -3.3837460    -1.2187210    -0.8295640
  H       -3.3329960     1.2313300     0.9325330
  H       -2.5725010     2.5416050     0.0193840
  H       -3.3837580     1.2186740    -0.8295530
units angstrom
no_reorient  #important for SAPT in psi4, default
symmetry c1  #important for SAPT in psi4, default
}

set PROPERTIES_ORIGIN ["COM"]
properties('MP2/aug-cc-pvtz', properties = ['dipole'])
--------------------------------------------------------------------------

    Molecular point group: c1
  Charge       = 0
  Multiplicity = 1
  Basis Set: AUG-CC-PVTZ
    Blend: AUG-CC-PVTZ
  Basis Set: (AUG-CC-PVTZ AUX)
    Blend: AUG-CC-PVTZ-JKFIT

    Orbital Energies [Eh]
    ---------------------

    Doubly Occupied:

       1A    -20.596837     2A    -20.596692     3A    -11.352965
       4A    -11.293073     5A    -11.291766     6A    -11.246984
       7A    -11.242482     8A    -11.239642     9A    -11.239045
      10A    -11.234581    11A    -11.225375    12A     -1.467888
      13A     -1.365359    14A     -1.159238    15A     -1.053890
      16A     -1.038934    17A     -0.956364    18A     -0.945082
      19A     -0.885355    20A     -0.838826    21A     -0.799847
      22A     -0.718813    23A     -0.713815    24A     -0.682400
      25A     -0.649289    26A     -0.629862    27A     -0.615573
      28A     -0.599596    29A     -0.576337    30A     -0.572641
      31A     -0.555496    32A     -0.538105    33A     -0.534837
      34A     -0.534346    35A     -0.511509    36A     -0.492090
      37A     -0.483375    38A     -0.432615    39A     -0.334032
      40A     -0.292106

  @DF-RHF Final Energy:  -496.45004839525956

   => Energetics <=

    Nuclear Repulsion Energy =            601.0160781741542451
    One-Electron Energy =               -1867.8581281023650718
    Two-Electron Energy =                 770.3920015329512125
    Total Energy =                       -496.4500483952596142
  Basis Set: (AUG-CC-PVTZ AUX)
    Blend: AUG-CC-PVTZ-RI
    Molecular point group: c1

    Geometry (in Angstrom), charge = 0, multiplicity = 1:

       Center              X                  Y                   Z               Mass
    ------------   -----------------  -----------------  -----------------  -----------------
         O            2.160382428965    -1.158757620688    -0.090569173415    15.994914619570
         O            2.160382428965     1.158806379312    -0.090552173415    15.994914619570
         C           -1.528410571035    -0.705787620688     0.026494826585    12.000000000000
         C           -1.528411571035     0.705834379312     0.026506826585    12.000000000000
         C            0.859282428965    -0.694492620688    -0.013556173415    12.000000000000
         C            0.859281428965     0.694541379312    -0.013533173415    12.000000000000
         C           -0.316201571035    -1.420948620688     0.000855826585    12.000000000000
         C           -0.316203571035     1.420995379312     0.000836826585    12.000000000000
         C            2.940860428965     0.000022379312     0.232893826585    12.000000000000
         C           -2.836858471035    -1.463858820688    -0.190616573415    12.000000000000
         C           -2.831054571035     1.463610379312     0.059304826585    12.000000000000
         H           -0.302108571035    -2.507888620688    -0.007033173415     1.007825032230
         H           -0.302109571035     2.507935379312    -0.007022173415     1.007825032230
         H            3.160125428965     0.000013379312     1.310241826585     1.007825032230
         H            3.850635428965     0.000027379312    -0.366795173415     1.007825032230
         H           -2.650299571035    -2.541582620688     0.046476826585     1.007825032230
         H           -3.410809571035    -1.231262620688     0.959547826585     1.007825032230
         H           -3.461547571035    -1.218697620688    -0.802538173415     1.007825032230
         H           -3.410797571035     1.231353379312     0.959558826585     1.007825032230
         H           -2.650302571035     2.541628379312     0.046409826585     1.007825032230
         H           -3.461559571035     1.218697379312    -0.802527173415     1.007825032230

  Basis Set: AUG-CC-PVTZ
    Blend: AUG-CC-PVTZ
  Basis Set: (AUG-CC-PVTZ AUX)
    Blend: AUG-CC-PVTZ-JKFIT
	 Reference Energy          =    -496.4500483952595573 [Eh]
	 Singles Energy            =      -0.0000000000000000 [Eh]
	 Same-Spin Energy          =      -0.5248622573782782 [Eh]
	 Opposite-Spin Energy      =      -1.6350768972770118 [Eh]
	 Correlation Energy        =      -2.1599391546552900 [Eh]
	 Total Energy              =    -498.6099875499148197 [Eh]

	 ================> DF-SCS-MP2 Energies <==================
	-----------------------------------------------------------
	 SCS Same-Spin Scale       =       0.3333333333333333 [-]
	 SCS Opposite-Spin Scale   =       1.2000000000000000 [-]
	 SCS Same-Spin Energy      =      -0.1749540857927594 [Eh]
	 SCS Opposite-Spin Energy  =      -1.9620922767324140 [Eh]
	 SCS Correlation Energy    =      -2.1370463625251732 [Eh]
	 SCS Total Energy          =    -498.5870947577847119 [Eh]
	-----------------------------------------------------------

  Dipole Moment: [D]
     X:    -0.4632      Y:     0.0229      Z:     0.4467     Total:     0.6439

*** Psi4 exiting successfully. Buy a developer a beer!
