                               Psi4 1.3.2 release

  ==> Input File <==

--------------------------------------------------------------------------
#psi4
#
memory 32 gb

molecule  {
0 1
  O        2.2381840    -1.1587810    -0.1175950
  O        2.2381840     1.1587830    -0.1175780
  C       -1.4506090    -0.7058110    -0.0005310
  C       -1.4506100     0.7058110    -0.0005190
  C        0.9370840    -0.6945160    -0.0405820
  C        0.9370830     0.6945180    -0.0405590
  C       -0.2384000    -1.4209720    -0.0261700
  C       -0.2384020     1.4209720    -0.0261890
  C        3.0186620    -0.0000010     0.2058680
  C       -2.7532520    -1.4635880     0.0322900
  C       -2.7532530     1.4635870     0.0322790
  H       -0.2251473    -2.5075537    -0.0840507
  H       -0.2243080     2.5079120    -0.0340480
  H        3.2379270    -0.0000100     1.2832160
  H        3.9284370     0.0000040    -0.3938210
  H       -2.5724980    -2.5416060     0.0194510
  H       -3.3330080    -1.2312860     0.9325220
  H       -3.3837460    -1.2187210    -0.8295640
  H       -3.3329960     1.2313300     0.9325330
  H       -2.5725010     2.5416050     0.0193840
  H       -3.3837580     1.2186740    -0.8295530
units angstrom
no_reorient  #important for SAPT in psi4, default
symmetry c1  #important for SAPT in psi4, default
}

set PROPERTIES_ORIGIN ["COM"]
properties('MP2/aug-cc-pvtz', properties = ['dipole'])
--------------------------------------------------------------------------

    Molecular point group: c1
  Charge       = 0
  Multiplicity = 1
  Basis Set: AUG-CC-PVTZ
    Blend: AUG-CC-PVTZ
  Basis Set: (AUG-CC-PVTZ AUX)
    Blend: AUG-CC-PVTZ-JKFIT

    Orbital Energies [Eh]
    ---------------------

    Doubly Occupied:

       1A    -20.596114     2A    -20.596088     3A    -11.352344
       4A    -11.292178     5A    -11.290906     6A    -11.242306
       7A    -11.241208     8A    -11.238385     9A    -11.238269
      10A    -11.225310    11A    -11.225293    12A     -1.467210
      13A     -1.364690    14A     -1.158503    15A     -1.053268
      16A     -1.038299    17A     -0.952345    18A     -0.942946
      19A     -0.882508    20A     -0.836936    21A     -0.795591
      22A     -0.716064    23A     -0.712775    24A     -0.674977
      25A     -0.648286    26A     -0.615017    27A     -0.611151
      28A     -0.595325    29A     -0.574050    30A     -0.565863
      31A     -0.551502    32A     -0.540938    33A     -0.535144
      34A     -0.533545    35A     -0.530259    36A     -0.500810
      37A     -0.491291    38A     -0.441696    39A     -0.334344
      40A     -0.293233

  @DF-RHF Final Energy:  -496.51421043168614

   => Energetics <=

    Nuclear Repulsion Energy =            601.2803166346261605
    One-Electron Energy =               -1868.5951243761783189
    Two-Electron Energy =                 770.8005973098660206
    Total Energy =                       -496.5142104316861378
  Basis Set: (AUG-CC-PVTZ AUX)
    Blend: AUG-CC-PVTZ-RI
    Molecular point group: c1

    Geometry (in Angstrom), charge = 0, multiplicity = 1:

       Center              X                  Y                   Z               Mass
    ------------   -----------------  -----------------  -----------------  -----------------
         O            2.159923890914    -1.158783552277    -0.110218961178    15.994914619570
         O            2.159923890914     1.158780447723    -0.110201961178    15.994914619570
         C           -1.528869109086    -0.705813552277     0.006845038822    12.000000000000
         C           -1.528870109086     0.705808447723     0.006857038822    12.000000000000
         C            0.858823890914    -0.694518552277    -0.033205961178    12.000000000000
         C            0.858822890914     0.694515447723    -0.033182961178    12.000000000000
         C           -0.316660109086    -1.420974552277    -0.018793961178    12.000000000000
         C           -0.316662109086     1.420969447723    -0.018812961178    12.000000000000
         C            2.940401890914    -0.000003552277     0.213244038822    12.000000000000
         C           -2.831512109086    -1.463590552277     0.039666038822    12.000000000000
         C           -2.831513109086     1.463584447723     0.039655038822    12.000000000000
         H           -0.303407409086    -2.507556252277    -0.076674661178     1.007825032230
         H           -0.302568109086     2.507909447723    -0.026671961178     1.007825032230
         H            3.159666890914    -0.000012552277     1.290592038822     1.007825032230
         H            3.850176890914     0.000001447723    -0.386444961178     1.007825032230
         H           -2.650758109086    -2.541608552277     0.026827038822     1.007825032230
         H           -3.411268109086    -1.231288552277     0.939898038822     1.007825032230
         H           -3.462006109086    -1.218723552277    -0.822187961178     1.007825032230
         H           -3.411256109086     1.231327447723     0.939909038822     1.007825032230
         H           -2.650761109086     2.541602447723     0.026760038822     1.007825032230
         H           -3.462018109086     1.218671447723    -0.822176961178     1.007825032230

  Basis Set: AUG-CC-PVTZ
    Blend: AUG-CC-PVTZ
  Basis Set: (AUG-CC-PVTZ AUX)
    Blend: AUG-CC-PVTZ-JKFIT
	 Reference Energy          =    -496.5142104316861378 [Eh]
	 Singles Energy            =      -0.0000000000000000 [Eh]
	 Same-Spin Energy          =      -0.5240496640727442 [Eh]
	 Opposite-Spin Energy      =      -1.6322452748217593 [Eh]
	 Correlation Energy        =      -2.1562949388945034 [Eh]
	 Total Energy              =    -498.6705053705806563 [Eh]

	 ================> DF-SCS-MP2 Energies <==================
	-----------------------------------------------------------
	 SCS Same-Spin Scale       =       0.3333333333333333 [-]
	 SCS Opposite-Spin Scale   =       1.2000000000000000 [-]
	 SCS Same-Spin Energy      =      -0.1746832213575814 [Eh]
	 SCS Opposite-Spin Energy  =      -1.9586943297861110 [Eh]
	 SCS Correlation Energy    =      -2.1333775511436923 [Eh]
	 SCS Total Energy          =    -498.6475879828298048 [Eh]
	-----------------------------------------------------------

  Dipole Moment: [D]
     X:    -0.5690      Y:     0.0014      Z:     0.5313     Total:     0.7785

*** Psi4 exiting successfully. Buy a developer a beer!
