                               Psi4 1.3.2 release

  ==> Input File <==

--------------------------------------------------------------------------
#psi4
#
memory 32 gb

molecule  {
1 1
  N       -0.0000030    -0.2590690    -0.0002410
  C        1.2757600     0.5504720    -0.0003510
  C       -1.2757460     0.5504610     0.0003700
  C        2.4891350    -0.3592320     0.0002730
  C       -2.4891440    -0.3592250    -0.0000420
  H       -0.0002510    -0.9435080    -0.8987615
  H        0.0002430    -0.8834350     0.8183340
  H        1.2343010     1.1850200    -0.8878530
  H        1.2339840     1.1857900     0.8865850
  H       -1.2340510     1.1848610     0.8879670
  H       -1.2342230     1.1859370    -0.8864660
  H        3.3917400     0.2556770    -0.0001140
  H        2.5206350    -0.9914160     0.8916960
  H        2.5206970    -0.9925990    -0.8903100
  H       -3.3917370     0.2557000     0.0002190
  H       -2.5206840    -0.9916000    -0.8913310
  H       -2.5206850    -0.9924050     0.8906710
units angstrom
no_reorient  #important for SAPT in psi4, default
symmetry c1  #important for SAPT in psi4, default
}

set PROPERTIES_ORIGIN ["COM"]
properties('MP2/aug-cc-pvtz', properties = ['dipole'])
--------------------------------------------------------------------------

    Molecular point group: c1
  Charge       = 1
  Multiplicity = 1
  Basis Set: AUG-CC-PVTZ
    Blend: AUG-CC-PVTZ
  Basis Set: (AUG-CC-PVTZ AUX)
    Blend: AUG-CC-PVTZ-JKFIT

    Orbital Energies [Eh]
    ---------------------

    Doubly Occupied:

       1A    -15.875942     2A    -11.464297     3A    -11.464283
       4A    -11.390974     5A    -11.390973     6A     -1.483929
       7A     -1.234037     8A     -1.172362     9A     -1.053413
      10A     -1.031737    11A     -0.946072    12A     -0.847637
      13A     -0.828110    14A     -0.801613    15A     -0.766636
      16A     -0.737183    17A     -0.701264    18A     -0.701057
      19A     -0.686266    20A     -0.683066    21A     -0.678707

  @DF-RHF Final Energy:  -212.76971016606743

   => Energetics <=

    Nuclear Repulsion Energy =            196.7608858095487960
    One-Electron Energy =                -667.1820756235742920
    Two-Electron Energy =                 257.6514796479581264
    Total Energy =                       -212.7697101660673979
  Basis Set: (AUG-CC-PVTZ AUX)
    Blend: AUG-CC-PVTZ-RI
    Molecular point group: c1

    Geometry (in Angstrom), charge = 1, multiplicity = 1:

       Center              X                  Y                   Z               Mass
    ------------   -----------------  -----------------  -----------------  -----------------
         N           -0.000002821156    -0.264679628893     0.000843514765    14.003074004430
         C            1.275760178844     0.544861371107     0.000733514765    12.000000000000
         C           -1.275745821156     0.544850371107     0.001454514765    12.000000000000
         C            2.489135178844    -0.364842628893     0.001357514765    12.000000000000
         C           -2.489143821156    -0.364835628893     0.001042514765    12.000000000000
         H           -0.000250821156    -0.949118628893    -0.897676985235     1.007825032230
         H            0.000243178844    -0.889045628893     0.819418514765     1.007825032230
         H            1.234301178844     1.179409371107    -0.886768485235     1.007825032230
         H            1.233984178844     1.180179371107     0.887669514765     1.007825032230
         H           -1.234050821156     1.179250371107     0.889051514765     1.007825032230
         H           -1.234222821156     1.180326371107    -0.885381485235     1.007825032230
         H            3.391740178844     0.250066371107     0.000970514765     1.007825032230
         H            2.520635178844    -0.997026628893     0.892780514765     1.007825032230
         H            2.520697178844    -0.998209628893    -0.889225485235     1.007825032230
         H           -3.391736821156     0.250089371107     0.001303514765     1.007825032230
         H           -2.520683821156    -0.997210628893    -0.890246485235     1.007825032230
         H           -2.520684821156    -0.998015628893     0.891755514765     1.007825032230

  Basis Set: AUG-CC-PVTZ
    Blend: AUG-CC-PVTZ
  Basis Set: (AUG-CC-PVTZ AUX)
    Blend: AUG-CC-PVTZ-JKFIT
	 Reference Energy          =    -212.7697101660674264 [Eh]
	 Singles Energy            =      -0.0000000000000000 [Eh]
	 Same-Spin Energy          =      -0.2162153694837605 [Eh]
	 Opposite-Spin Energy      =      -0.8111829801469241 [Eh]
	 Correlation Energy        =      -1.0273983496306847 [Eh]
	 Total Energy              =    -213.7971085156981133 [Eh]

	 ================> DF-SCS-MP2 Energies <==================
	-----------------------------------------------------------
	 SCS Same-Spin Scale       =       0.3333333333333333 [-]
	 SCS Opposite-Spin Scale   =       1.2000000000000000 [-]
	 SCS Same-Spin Energy      =      -0.0720717898279201 [Eh]
	 SCS Opposite-Spin Energy  =      -0.9734195761763089 [Eh]
	 SCS Correlation Energy    =      -1.0454913660042291 [Eh]
	 SCS Total Energy          =    -213.8152015320716544 [Eh]
	-----------------------------------------------------------

  Dipole Moment: [D]
     X:     0.0000      Y:    -0.5833      Z:    -0.0855     Total:     0.5896

*** Psi4 exiting successfully. Buy a developer a beer!
