                               Psi4 1.3.2 release

  ==> Input File <==

--------------------------------------------------------------------------
#psi4
#
memory 32 gb

molecule  {
1 1
  N       -0.0000030    -0.2590690    -0.0002410
  C        1.2161816     0.6374927    -0.0003072
  C       -1.2757460     0.5504610     0.0003700
  C        2.4891350    -0.3592320     0.0002730
  C       -2.4891440    -0.3592250    -0.0000420
  H       -0.0002290    -0.8829120    -0.8192120
  H        0.0002430    -0.8834350     0.8183340
  H        1.2343010     1.1850200    -0.8878530
  H        1.2339840     1.1857900     0.8865850
  H       -1.2340510     1.1848610     0.8879670
  H       -1.2342230     1.1859370    -0.8864660
  H        3.3917400     0.2556770    -0.0001140
  H        2.5206350    -0.9914160     0.8916960
  H        2.5206970    -0.9925990    -0.8903100
  H       -3.3917370     0.2557000     0.0002190
  H       -2.5206840    -0.9916000    -0.8913310
  H       -2.5206850    -0.9924050     0.8906710
units angstrom
no_reorient  #important for SAPT in psi4, default
symmetry c1  #important for SAPT in psi4, default
}

set PROPERTIES_ORIGIN ["COM"]
properties('MP2/aug-cc-pvtz', properties = ['dipole'])
--------------------------------------------------------------------------

    Molecular point group: c1
  Charge       = 1
  Multiplicity = 1
  Basis Set: AUG-CC-PVTZ
    Blend: AUG-CC-PVTZ
  Basis Set: (AUG-CC-PVTZ AUX)
    Blend: AUG-CC-PVTZ-JKFIT

    Orbital Energies [Eh]
    ---------------------

    Doubly Occupied:

       1A    -15.870384     2A    -11.463821     3A    -11.462007
       4A    -11.395031     5A    -11.390567     6A     -1.496336
       7A     -1.226872     8A     -1.169072     9A     -1.064710
      10A     -1.032921    11A     -0.965715    12A     -0.849841
      13A     -0.836821    14A     -0.810139    15A     -0.778004
      16A     -0.730317    17A     -0.703250    18A     -0.699539
      19A     -0.697735    20A     -0.682172    21A     -0.661289

  @DF-RHF Final Energy:  -212.76959815145722

   => Energetics <=

    Nuclear Repulsion Energy =            196.8426882988178477
    One-Electron Energy =                -667.2514900137991845
    Two-Electron Energy =                 257.6392035635241200
    Total Energy =                       -212.7695981514572168
  Basis Set: (AUG-CC-PVTZ AUX)
    Blend: AUG-CC-PVTZ-RI
    Molecular point group: c1

    Geometry (in Angstrom), charge = 1, multiplicity = 1:

       Center              X                  Y                   Z               Mass
    ------------   -----------------  -----------------  -----------------  -----------------
         N            0.009645597470    -0.279596817817    -0.000245565836    14.003074004430
         C            1.225830197470     0.616964882183    -0.000311765836    12.000000000000
         C           -1.266097402530     0.529933182183     0.000365434164    12.000000000000
         C            2.498783597470    -0.379759817817     0.000268434164    12.000000000000
         C           -2.479495402530    -0.379752817817    -0.000046565836    12.000000000000
         H            0.009419597470    -0.903439817817    -0.819216565836     1.007825032230
         H            0.009891597470    -0.903962817817     0.818329434164     1.007825032230
         H            1.243949597470     1.164492182183    -0.887857565836     1.007825032230
         H            1.243632597470     1.165262182183     0.886580434164     1.007825032230
         H           -1.224402402530     1.164333182183     0.887962434164     1.007825032230
         H           -1.224574402530     1.165409182183    -0.886470565836     1.007825032230
         H            3.401388597470     0.235149182183    -0.000118565836     1.007825032230
         H            2.530283597470    -1.011943817817     0.891691434164     1.007825032230
         H            2.530345597470    -1.013126817817    -0.890314565836     1.007825032230
         H           -3.382088402530     0.235172182183     0.000214434164     1.007825032230
         H           -2.511035402530    -1.012127817817    -0.891335565836     1.007825032230
         H           -2.511036402530    -1.012932817817     0.890666434164     1.007825032230

  Basis Set: AUG-CC-PVTZ
    Blend: AUG-CC-PVTZ
  Basis Set: (AUG-CC-PVTZ AUX)
    Blend: AUG-CC-PVTZ-JKFIT
	 Reference Energy          =    -212.7695981514572168 [Eh]
	 Singles Energy            =      -0.0000000000000000 [Eh]
	 Same-Spin Energy          =      -0.2151133395460653 [Eh]
	 Opposite-Spin Energy      =      -0.8093145429230889 [Eh]
	 Correlation Energy        =      -1.0244278824691542 [Eh]
	 Total Energy              =    -213.7940260339263716 [Eh]

	 ================> DF-SCS-MP2 Energies <==================
	-----------------------------------------------------------
	 SCS Same-Spin Scale       =       0.3333333333333333 [-]
	 SCS Opposite-Spin Scale   =       1.2000000000000000 [-]
	 SCS Same-Spin Energy      =      -0.0717044465153551 [Eh]
	 SCS Opposite-Spin Energy  =      -0.9711774515077066 [Eh]
	 SCS Correlation Energy    =      -1.0428818980230616 [Eh]
	 SCS Total Energy          =    -213.8124800494802855 [Eh]
	-----------------------------------------------------------

  Dipole Moment: [D]
     X:    -0.0000      Y:    -0.5422      Z:    -0.0007     Total:     0.5422

*** Psi4 exiting successfully. Buy a developer a beer!
