                               Psi4 1.3.2 release

  ==> Input File <==

--------------------------------------------------------------------------
#psi4
#
memory 32 gb

molecule  {
1 1
  N       -0.0000030    -0.2590690    -0.0002410
  C        1.2757600     0.5504720    -0.0003510
  C       -1.2757460     0.5504610     0.0003700
  C        2.4891350    -0.3592320     0.0002730
  C       -2.4891440    -0.3592250    -0.0000420
  H       -0.0002729    -1.0041041    -0.9783110
  H        0.0002430    -0.8834350     0.8183340
  H        1.2343010     1.1850200    -0.8878530
  H        1.2339840     1.1857900     0.8865850
  H       -1.2340510     1.1848610     0.8879670
  H       -1.2342230     1.1859370    -0.8864660
  H        3.3917400     0.2556770    -0.0001140
  H        2.5206350    -0.9914160     0.8916960
  H        2.5206970    -0.9925990    -0.8903100
  H       -3.3917370     0.2557000     0.0002190
  H       -2.5206840    -0.9916000    -0.8913310
  H       -2.5206850    -0.9924050     0.8906710
units angstrom
no_reorient  #important for SAPT in psi4, default
symmetry c1  #important for SAPT in psi4, default
}

set PROPERTIES_ORIGIN ["COM"]
properties('MP2/aug-cc-pvtz', properties = ['dipole'])
--------------------------------------------------------------------------

    Molecular point group: c1
  Charge       = 1
  Multiplicity = 1
  Basis Set: AUG-CC-PVTZ
    Blend: AUG-CC-PVTZ
  Basis Set: (AUG-CC-PVTZ AUX)
    Blend: AUG-CC-PVTZ-JKFIT

    Orbital Energies [Eh]
    ---------------------

    Doubly Occupied:

       1A    -15.880655     2A    -11.463496     3A    -11.463482
       4A    -11.390377     5A    -11.390376     6A     -1.474618
       7A     -1.232957     8A     -1.169076     9A     -1.049498
      10A     -1.030907    11A     -0.930849    12A     -0.845983
      13A     -0.822876    14A     -0.800760    15A     -0.759260
      16A     -0.734475    17A     -0.700530    18A     -0.699910
      19A     -0.684688    20A     -0.682198    21A     -0.678007

  @DF-RHF Final Energy:  -212.75189147409529

   => Energetics <=

    Nuclear Repulsion Energy =            196.3177658023259085
    One-Electron Energy =                -666.3693572528429740
    Two-Electron Energy =                 257.2996999764217776
    Total Energy =                       -212.7518914740953164
  Basis Set: (AUG-CC-PVTZ AUX)
    Blend: AUG-CC-PVTZ-RI
    Molecular point group: c1

    Geometry (in Angstrom), charge = 1, multiplicity = 1:

       Center              X                  Y                   Z               Mass
    ------------   -----------------  -----------------  -----------------  -----------------
         N           -0.000002523285    -0.263855435100     0.001925501959    14.003074004430
         C            1.275760476715     0.545685564900     0.001815501959    12.000000000000
         C           -1.275745523285     0.545674564900     0.002536501959    12.000000000000
         C            2.489135476715    -0.364018435100     0.002439501959    12.000000000000
         C           -2.489143523285    -0.364011435100     0.002124501959    12.000000000000
         H           -0.000272423285    -1.008890535100    -0.976144498041     1.007825032230
         H            0.000243476715    -0.888221435100     0.820500501959     1.007825032230
         H            1.234301476715     1.180233564900    -0.885686498041     1.007825032230
         H            1.233984476715     1.181003564900     0.888751501959     1.007825032230
         H           -1.234050523285     1.180074564900     0.890133501959     1.007825032230
         H           -1.234222523285     1.181150564900    -0.884299498041     1.007825032230
         H            3.391740476715     0.250890564900     0.002052501959     1.007825032230
         H            2.520635476715    -0.996202435100     0.893862501959     1.007825032230
         H            2.520697476715    -0.997385435100    -0.888143498041     1.007825032230
         H           -3.391736523285     0.250913564900     0.002385501959     1.007825032230
         H           -2.520683523285    -0.996386435100    -0.889164498041     1.007825032230
         H           -2.520684523285    -0.997191435100     0.892837501959     1.007825032230

  Basis Set: AUG-CC-PVTZ
    Blend: AUG-CC-PVTZ
  Basis Set: (AUG-CC-PVTZ AUX)
    Blend: AUG-CC-PVTZ-JKFIT
	 Reference Energy          =    -212.7518914740952880 [Eh]
	 Singles Energy            =      -0.0000000000000000 [Eh]
	 Same-Spin Energy          =      -0.2169397778333552 [Eh]
	 Opposite-Spin Energy      =      -0.8134132605240325 [Eh]
	 Correlation Energy        =      -1.0303530383573878 [Eh]
	 Total Energy              =    -213.7822445124526780 [Eh]

	 ================> DF-SCS-MP2 Energies <==================
	-----------------------------------------------------------
	 SCS Same-Spin Scale       =       0.3333333333333333 [-]
	 SCS Opposite-Spin Scale   =       1.2000000000000000 [-]
	 SCS Same-Spin Energy      =      -0.0723132592777851 [Eh]
	 SCS Opposite-Spin Energy  =      -0.9760959126288390 [Eh]
	 SCS Correlation Energy    =      -1.0484091719066240 [Eh]
	 SCS Total Energy          =    -213.8003006460019151 [Eh]
	-----------------------------------------------------------

  Dipole Moment: [D]
     X:    -0.0000      Y:    -0.6427      Z:    -0.1722     Total:     0.6653

*** Psi4 exiting successfully. Buy a developer a beer!
