                               Psi4 1.3.2 release

  ==> Input File <==

--------------------------------------------------------------------------
#psi4
#
memory 32 gb

molecule  {
1 1
  N       -0.0000030    -0.2590690    -0.0002410
  C        1.3145297     0.4739080    -0.1331934
  C       -1.2757460     0.5504610     0.0003700
  C        2.4891350    -0.3592320     0.0002730
  C       -2.4891440    -0.3592250    -0.0000420
  H       -0.0002290    -0.8829120    -0.8192120
  H        0.0002430    -0.8834350     0.8183340
  H        1.2343010     1.1850200    -0.8878530
  H        1.2339840     1.1857900     0.8865850
  H       -1.2340510     1.1848610     0.8879670
  H       -1.2342230     1.1859370    -0.8864660
  H        3.3917400     0.2556770    -0.0001140
  H        2.5206350    -0.9914160     0.8916960
  H        2.5206970    -0.9925990    -0.8903100
  H       -3.3917370     0.2557000     0.0002190
  H       -2.5206840    -0.9916000    -0.8913310
  H       -2.5206850    -0.9924050     0.8906710
units angstrom
no_reorient  #important for SAPT in psi4, default
symmetry c1  #important for SAPT in psi4, default
}

set PROPERTIES_ORIGIN ["COM"]
properties('MP2/aug-cc-pvtz', properties = ['dipole'])
--------------------------------------------------------------------------

    Molecular point group: c1
  Charge       = 1
  Multiplicity = 1
  Basis Set: AUG-CC-PVTZ
    Blend: AUG-CC-PVTZ
  Basis Set: (AUG-CC-PVTZ AUX)
    Blend: AUG-CC-PVTZ-JKFIT

    Orbital Energies [Eh]
    ---------------------

    Doubly Occupied:

       1A    -15.870689     2A    -11.471611     3A    -11.466572
       4A    -11.392487     5A    -11.390369     6A     -1.497798
       7A     -1.245057     8A     -1.184411     9A     -1.055692
      10A     -1.034163    11A     -0.961073    12A     -0.857166
      13A     -0.835455    14A     -0.796877    15A     -0.769113
      16A     -0.754224    17A     -0.718536    18A     -0.702225
      19A     -0.689842    20A     -0.683866    21A     -0.642224

  @DF-RHF Final Energy:  -212.75266022262224

   => Energetics <=

    Nuclear Repulsion Energy =            197.6157830918376419
    One-Electron Energy =                -668.6979849903226523
    Two-Electron Energy =                 258.3295416758627425
    Total Energy =                       -212.7526602226222394
  Basis Set: (AUG-CC-PVTZ AUX)
    Blend: AUG-CC-PVTZ-RI
    Molecular point group: c1

    Geometry (in Angstrom), charge = 1, multiplicity = 1:

       Center              X                  Y                   Z               Mass
    ------------   -----------------  -----------------  -----------------  -----------------
         N           -0.006281870685    -0.253104286696     0.021275345282    14.003074004430
         C            1.308250829315     0.479872713304    -0.111677054718    12.000000000000
         C           -1.282024870685     0.556425713304     0.021886345282    12.000000000000
         C            2.482856129315    -0.353267286696     0.021789345282    12.000000000000
         C           -2.495422870685    -0.353260286696     0.021474345282    12.000000000000
         H           -0.006507870685    -0.876947286696    -0.797695654718     1.007825032230
         H           -0.006035870685    -0.877470286696     0.839850345282     1.007825032230
         H            1.228022129315     1.190984713304    -0.866336654718     1.007825032230
         H            1.227705129315     1.191754713304     0.908101345282     1.007825032230
         H           -1.240329870685     1.190825713304     0.909483345282     1.007825032230
         H           -1.240501870685     1.191901713304    -0.864949654718     1.007825032230
         H            3.385461129315     0.261641713304     0.021402345282     1.007825032230
         H            2.514356129315    -0.985451286696     0.913212345282     1.007825032230
         H            2.514418129315    -0.986634286696    -0.868793654718     1.007825032230
         H           -3.398015870685     0.261664713304     0.021735345282     1.007825032230
         H           -2.526962870685    -0.985635286696    -0.869814654718     1.007825032230
         H           -2.526963870685    -0.986440286696     0.912187345282     1.007825032230

  Basis Set: AUG-CC-PVTZ
    Blend: AUG-CC-PVTZ
  Basis Set: (AUG-CC-PVTZ AUX)
    Blend: AUG-CC-PVTZ-JKFIT
	 Reference Energy          =    -212.7526602226222394 [Eh]
	 Singles Energy            =      -0.0000000000000000 [Eh]
	 Same-Spin Energy          =      -0.2167311907478829 [Eh]
	 Opposite-Spin Energy      =      -0.8112512519323793 [Eh]
	 Correlation Energy        =      -1.0279824426802624 [Eh]
	 Total Energy              =    -213.7806426653025085 [Eh]

	 ================> DF-SCS-MP2 Energies <==================
	-----------------------------------------------------------
	 SCS Same-Spin Scale       =       0.3333333333333333 [-]
	 SCS Opposite-Spin Scale   =       1.2000000000000000 [-]
	 SCS Same-Spin Energy      =      -0.0722437302492943 [Eh]
	 SCS Opposite-Spin Energy  =      -0.9735015023188551 [Eh]
	 SCS Correlation Energy    =      -1.0457452325681493 [Eh]
	 SCS Total Energy          =    -213.7984054551903910 [Eh]
	-----------------------------------------------------------

  Dipole Moment: [D]
     X:     0.0059      Y:    -0.5580      Z:    -0.0074     Total:     0.5581

*** Psi4 exiting successfully. Buy a developer a beer!
