                               Psi4 1.3.2 release

  ==> Input File <==

--------------------------------------------------------------------------
#psi4
#
memory 32 gb

molecule  {
1 1
  N       -0.0000030    -0.2590690    -0.0002410
  C        1.1068895     0.4433145    -0.0003364
  C       -1.2757460     0.5504610     0.0003700
  C        2.4891350    -0.3592320     0.0002730
  C       -2.4891440    -0.3592250    -0.0000420
  H       -0.0002290    -0.8829120    -0.8192120
  H        0.0002430    -0.8834350     0.8183340
  H        1.2343010     1.1850200    -0.8878530
  H        1.2339840     1.1857900     0.8865850
  H       -1.2340510     1.1848610     0.8879670
  H       -1.2342230     1.1859370    -0.8864660
  H        3.3917400     0.2556770    -0.0001140
  H        2.5206350    -0.9914160     0.8916960
  H        2.5206970    -0.9925990    -0.8903100
  H       -3.3917370     0.2557000     0.0002190
  H       -2.5206840    -0.9916000    -0.8913310
  H       -2.5206850    -0.9924050     0.8906710
units angstrom
no_reorient  #important for SAPT in psi4, default
symmetry c1  #important for SAPT in psi4, default
}

set PROPERTIES_ORIGIN ["COM"]
properties('MP2/aug-cc-pvtz', properties = ['dipole'])
--------------------------------------------------------------------------

    Molecular point group: c1
  Charge       = 1
  Multiplicity = 1
  Basis Set: AUG-CC-PVTZ
    Blend: AUG-CC-PVTZ
  Basis Set: (AUG-CC-PVTZ AUX)
    Blend: AUG-CC-PVTZ-JKFIT

    Orbital Energies [Eh]
    ---------------------

    Doubly Occupied:

       1A    -15.881977     2A    -11.471917     3A    -11.460250
       4A    -11.396435     5A    -11.393208     6A     -1.556163
       7A     -1.241860     8A     -1.161364     9A     -1.072565
      10A     -1.045292    11A     -0.992664    12A     -0.876957
      13A     -0.858375    14A     -0.800782    15A     -0.749868
      16A     -0.739412    17A     -0.711778    18A     -0.701550
      19A     -0.689547    20A     -0.656262    21A     -0.649203

  @DF-RHF Final Energy:  -212.73748735509045

   => Energetics <=

    Nuclear Repulsion Energy =            199.6220043434584852
    One-Electron Energy =                -672.5041249507846715
    Two-Electron Energy =                 260.1446332522357352
    Total Energy =                       -212.7374873550904795
  Basis Set: (AUG-CC-PVTZ AUX)
    Blend: AUG-CC-PVTZ-RI
    Molecular point group: c1

    Geometry (in Angstrom), charge = 1, multiplicity = 1:

       Center              X                  Y                   Z               Mass
    ------------   -----------------  -----------------  -----------------  -----------------
         N            0.027345445686    -0.248149671437    -0.000240836898    14.003074004430
         C            1.134237945686     0.454233828563    -0.000336236898    12.000000000000
         C           -1.248397554314     0.561380328563     0.000370163102    12.000000000000
         C            2.516483445686    -0.348312671437     0.000273163102    12.000000000000
         C           -2.461795554314    -0.348305671437    -0.000041836898    12.000000000000
         H            0.027119445686    -0.871992671437    -0.819211836898     1.007825032230
         H            0.027591445686    -0.872515671437     0.818334163102     1.007825032230
         H            1.261649445686     1.195939328563    -0.887852836898     1.007825032230
         H            1.261332445686     1.196709328563     0.886585163102     1.007825032230
         H           -1.206702554314     1.195780328563     0.887967163102     1.007825032230
         H           -1.206874554314     1.196856328563    -0.886465836898     1.007825032230
         H            3.419088445686     0.266596328563    -0.000113836898     1.007825032230
         H            2.547983445686    -0.980496671437     0.891696163102     1.007825032230
         H            2.548045445686    -0.981679671437    -0.890309836898     1.007825032230
         H           -3.364388554314     0.266619328563     0.000219163102     1.007825032230
         H           -2.493335554314    -0.980680671437    -0.891330836898     1.007825032230
         H           -2.493336554314    -0.981485671437     0.890671163102     1.007825032230

  Basis Set: AUG-CC-PVTZ
    Blend: AUG-CC-PVTZ
  Basis Set: (AUG-CC-PVTZ AUX)
    Blend: AUG-CC-PVTZ-JKFIT
	 Reference Energy          =    -212.7374873550904510 [Eh]
	 Singles Energy            =      -0.0000000000000000 [Eh]
	 Same-Spin Energy          =      -0.2174364347129850 [Eh]
	 Opposite-Spin Energy      =      -0.8109776366205372 [Eh]
	 Correlation Energy        =      -1.0284140713335224 [Eh]
	 Total Energy              =    -213.7659014264239659 [Eh]

	 ================> DF-SCS-MP2 Energies <==================
	-----------------------------------------------------------
	 SCS Same-Spin Scale       =       0.3333333333333333 [-]
	 SCS Opposite-Spin Scale   =       1.2000000000000000 [-]
	 SCS Same-Spin Energy      =      -0.0724788115709950 [Eh]
	 SCS Opposite-Spin Energy  =      -0.9731731639446446 [Eh]
	 SCS Correlation Energy    =      -1.0456519755156397 [Eh]
	 SCS Total Energy          =    -213.7831393306061045 [Eh]
	-----------------------------------------------------------

  Dipole Moment: [D]
     X:    -0.3027      Y:    -0.5960      Z:    -0.0006     Total:     0.6684

*** Psi4 exiting successfully. Buy a developer a beer!
