                               Psi4 1.3.2 release

  ==> Input File <==

--------------------------------------------------------------------------
#psi4
#
memory 32 gb

molecule  {
1 1
  N       -0.0000030    -0.2590690    -0.0002410
  C        1.2467303     0.5945023    -0.0003292
  C       -1.2757460     0.5504610     0.0003700
  C        2.4891350    -0.3592320     0.0002730
  C       -2.4891440    -0.3592250    -0.0000420
  H       -0.0002290    -0.8829120    -0.8192120
  H        0.0002430    -0.8834350     0.8183340
  H        1.2343010     1.1850200    -0.8878530
  H        1.2339840     1.1857900     0.8865850
  H       -1.2340510     1.1848610     0.8879670
  H       -1.2342230     1.1859370    -0.8864660
  H        3.3917400     0.2556770    -0.0001140
  H        2.5206350    -0.9914160     0.8916960
  H        2.5206970    -0.9925990    -0.8903100
  H       -3.3917370     0.2557000     0.0002190
  H       -2.5206840    -0.9916000    -0.8913310
  H       -2.5206850    -0.9924050     0.8906710
units angstrom
no_reorient  #important for SAPT in psi4, default
symmetry c1  #important for SAPT in psi4, default
}

set PROPERTIES_ORIGIN ["COM"]
properties('MP2/aug-cc-pvtz', properties = ['dipole'])
--------------------------------------------------------------------------

    Molecular point group: c1
  Charge       = 1
  Multiplicity = 1
  Basis Set: AUG-CC-PVTZ
    Blend: AUG-CC-PVTZ
  Basis Set: (AUG-CC-PVTZ AUX)
    Blend: AUG-CC-PVTZ-JKFIT

    Orbital Energies [Eh]
    ---------------------

    Doubly Occupied:

       1A    -15.869877     2A    -11.464421     3A    -11.463262
       4A    -11.393313     5A    -11.391037     6A     -1.496267
       7A     -1.230512     8A     -1.172589     9A     -1.061842
      10A     -1.032854    11A     -0.964436    12A     -0.849176
      13A     -0.835256    14A     -0.805415    15A     -0.775531
      16A     -0.734067    17A     -0.702622    18A     -0.699184
      19A     -0.693740    20A     -0.681691    21A     -0.674529

  @DF-RHF Final Energy:  -212.77729928494114

   => Energetics <=

    Nuclear Repulsion Energy =            197.0401661776188007
    One-Electron Energy =                -667.6516893840118883
    Two-Electron Energy =                 257.8342239214519509
    Total Energy =                       -212.7772992849411366
  Basis Set: (AUG-CC-PVTZ AUX)
    Blend: AUG-CC-PVTZ-RI
    Molecular point group: c1

    Geometry (in Angstrom), charge = 1, multiplicity = 1:

       Center              X                  Y                   Z               Mass
    ------------   -----------------  -----------------  -----------------  -----------------
         N            0.004698237568    -0.272634525439    -0.000242002937    14.003074004430
         C            1.251431537568     0.580936774561    -0.000330202937    12.000000000000
         C           -1.271044762432     0.536895474561     0.000368997063    12.000000000000
         C            2.493836237568    -0.372797525439     0.000271997063    12.000000000000
         C           -2.484442762432    -0.372790525439    -0.000043002937    12.000000000000
         H            0.004472237568    -0.896477525439    -0.819213002937     1.007825032230
         H            0.004944237568    -0.897000525439     0.818332997063     1.007825032230
         H            1.239002237568     1.171454474561    -0.887854002937     1.007825032230
         H            1.238685237568     1.172224474561     0.886583997063     1.007825032230
         H           -1.229349762432     1.171295474561     0.887965997063     1.007825032230
         H           -1.229521762432     1.172371474561    -0.886467002937     1.007825032230
         H            3.396441237568     0.242111474561    -0.000115002937     1.007825032230
         H            2.525336237568    -1.004981525439     0.891694997063     1.007825032230
         H            2.525398237568    -1.006164525439    -0.890311002937     1.007825032230
         H           -3.387035762432     0.242134474561     0.000217997063     1.007825032230
         H           -2.515982762432    -1.005165525439    -0.891332002937     1.007825032230
         H           -2.515983762432    -1.005970525439     0.890669997063     1.007825032230

  Basis Set: AUG-CC-PVTZ
    Blend: AUG-CC-PVTZ
  Basis Set: (AUG-CC-PVTZ AUX)
    Blend: AUG-CC-PVTZ-JKFIT
	 Reference Energy          =    -212.7772992849411366 [Eh]
	 Singles Energy            =      -0.0000000000000000 [Eh]
	 Same-Spin Energy          =      -0.2152163036557051 [Eh]
	 Opposite-Spin Energy      =      -0.8090454569050898 [Eh]
	 Correlation Energy        =      -1.0242617605607949 [Eh]
	 Total Energy              =    -213.8015610455019271 [Eh]

	 ================> DF-SCS-MP2 Energies <==================
	-----------------------------------------------------------
	 SCS Same-Spin Scale       =       0.3333333333333333 [-]
	 SCS Opposite-Spin Scale   =       1.2000000000000000 [-]
	 SCS Same-Spin Energy      =      -0.0717387678852350 [Eh]
	 SCS Opposite-Spin Energy  =      -0.9708545482861077 [Eh]
	 SCS Correlation Energy    =      -1.0425933161713428 [Eh]
	 SCS Total Energy          =    -213.8198926011124854 [Eh]
	-----------------------------------------------------------

  Dipole Moment: [D]
     X:    -0.0021      Y:    -0.5293      Z:    -0.0007     Total:     0.5293

*** Psi4 exiting successfully. Buy a developer a beer!
