                               Psi4 1.3.2 release

  ==> Input File <==

--------------------------------------------------------------------------
#psi4
#
memory 32 gb

molecule  {
1 1
  N       -0.0000030    -0.2590690    -0.0002410
  C        1.2757600     0.5504720    -0.0003510
  C       -1.2757460     0.5504610     0.0003700
  C        2.4891350    -0.3592320     0.0002730
  C       -2.4891440    -0.3592250    -0.0000420
  H       -0.0002323    -0.8685240    -0.8299748
  H        0.0002430    -0.8834350     0.8183340
  H        1.2343010     1.1850200    -0.8878530
  H        1.2339840     1.1857900     0.8865850
  H       -1.2340510     1.1848610     0.8879670
  H       -1.2342230     1.1859370    -0.8864660
  H        3.3917400     0.2556770    -0.0001140
  H        2.5206350    -0.9914160     0.8916960
  H        2.5206970    -0.9925990    -0.8903100
  H       -3.3917370     0.2557000     0.0002190
  H       -2.5206840    -0.9916000    -0.8913310
  H       -2.5206850    -0.9924050     0.8906710
units angstrom
no_reorient  #important for SAPT in psi4, default
symmetry c1  #important for SAPT in psi4, default
}

set PROPERTIES_ORIGIN ["COM"]
properties('MP2/aug-cc-pvtz', properties = ['dipole'])
--------------------------------------------------------------------------

    Molecular point group: c1
  Charge       = 1
  Multiplicity = 1
  Basis Set: AUG-CC-PVTZ
    Blend: AUG-CC-PVTZ
  Basis Set: (AUG-CC-PVTZ AUX)
    Blend: AUG-CC-PVTZ-JKFIT

    Orbital Energies [Eh]
    ---------------------

    Doubly Occupied:

       1A    -15.869579     2A    -11.465081     3A    -11.465067
       4A    -11.391522     5A    -11.391521     6A     -1.496416
       7A     -1.235134     8A     -1.176587     9A     -1.058040
      10A     -1.032574    11A     -0.965108    12A     -0.849378
      13A     -0.832443    14A     -0.802478    15A     -0.773630
      16A     -0.739027    17A     -0.701951    18A     -0.701774
      19A     -0.687503    20A     -0.683953    21A     -0.679374

  @DF-RHF Final Energy:  -212.77951926141787

   => Energetics <=

    Nuclear Repulsion Energy =            197.2666642918038349
    One-Electron Energy =                -668.0960812583840607
    Two-Electron Energy =                 258.0498977051623228
    Total Energy =                       -212.7795192614178745
  Basis Set: (AUG-CC-PVTZ AUX)
    Blend: AUG-CC-PVTZ-RI
    Molecular point group: c1

    Geometry (in Angstrom), charge = 1, multiplicity = 1:

       Center              X                  Y                   Z               Mass
    ------------   -----------------  -----------------  -----------------  -----------------
         N           -0.000003075503    -0.265699518745    -0.000092082926    14.003074004430
         C            1.275759924497     0.543841481255    -0.000202082926    12.000000000000
         C           -1.275746075503     0.543830481255     0.000518917074    12.000000000000
         C            2.489134924497    -0.365862518745     0.000421917074    12.000000000000
         C           -2.489144075503    -0.365855518745     0.000106917074    12.000000000000
         H           -0.000232375503    -0.875154518745    -0.829825882926     1.007825032230
         H            0.000242924497    -0.890065518745     0.818482917074     1.007825032230
         H            1.234300924497     1.178389481255    -0.887704082926     1.007825032230
         H            1.233983924497     1.179159481255     0.886733917074     1.007825032230
         H           -1.234051075503     1.178230481255     0.888115917074     1.007825032230
         H           -1.234223075503     1.179306481255    -0.886317082926     1.007825032230
         H            3.391739924497     0.249046481255     0.000034917074     1.007825032230
         H            2.520634924497    -0.998046518745     0.891844917074     1.007825032230
         H            2.520696924497    -0.999229518745    -0.890161082926     1.007825032230
         H           -3.391737075503     0.249069481255     0.000367917074     1.007825032230
         H           -2.520684075503    -0.998230518745    -0.891182082926     1.007825032230
         H           -2.520685075503    -0.999035518745     0.890819917074     1.007825032230

  Basis Set: AUG-CC-PVTZ
    Blend: AUG-CC-PVTZ
  Basis Set: (AUG-CC-PVTZ AUX)
    Blend: AUG-CC-PVTZ-JKFIT
	 Reference Energy          =    -212.7795192614178745 [Eh]
	 Singles Energy            =      -0.0000000000000000 [Eh]
	 Same-Spin Energy          =      -0.2155279695709552 [Eh]
	 Opposite-Spin Energy      =      -0.8092007326860838 [Eh]
	 Correlation Energy        =      -1.0247287022570390 [Eh]
	 Total Energy              =    -213.8042479636749249 [Eh]

	 ================> DF-SCS-MP2 Energies <==================
	-----------------------------------------------------------
	 SCS Same-Spin Scale       =       0.3333333333333333 [-]
	 SCS Opposite-Spin Scale   =       1.2000000000000000 [-]
	 SCS Same-Spin Energy      =      -0.0718426565236517 [Eh]
	 SCS Opposite-Spin Energy  =      -0.9710408792233005 [Eh]
	 SCS Correlation Energy    =      -1.0428835357469521 [Eh]
	 SCS Total Energy          =    -213.8224027971648127 [Eh]
	-----------------------------------------------------------

  Dipole Moment: [D]
     X:     0.0001      Y:    -0.5123      Z:    -0.0096     Total:     0.5124

*** Psi4 exiting successfully. Buy a developer a beer!
