                               Psi4 1.3.2 release

  ==> Input File <==

--------------------------------------------------------------------------
#psi4
#
memory 32 gb

molecule  {
1 1
  N        0.0331681    -0.3044621     0.0889853
  C        1.2757600     0.5504720    -0.0003510
  C       -1.2757460     0.5504610     0.0003700
  C        2.4891350    -0.3592320     0.0002730
  C       -2.4891440    -0.3592250    -0.0000420
  H       -0.0002290    -0.8829120    -0.8192120
  H        0.0002430    -0.8834350     0.8183340
  H        1.2343010     1.1850200    -0.8878530
  H        1.2339840     1.1857900     0.8865850
  H       -1.2340510     1.1848610     0.8879670
  H       -1.2342230     1.1859370    -0.8864660
  H        3.3917400     0.2556770    -0.0001140
  H        2.5206350    -0.9914160     0.8916960
  H        2.5206970    -0.9925990    -0.8903100
  H       -3.3917370     0.2557000     0.0002190
  H       -2.5206840    -0.9916000    -0.8913310
  H       -2.5206850    -0.9924050     0.8906710
units angstrom
no_reorient  #important for SAPT in psi4, default
symmetry c1  #important for SAPT in psi4, default
}

set PROPERTIES_ORIGIN ["COM"]
properties('MP2/aug-cc-pvtz', properties = ['dipole'])
--------------------------------------------------------------------------

    Molecular point group: c1
  Charge       = 1
  Multiplicity = 1
  Basis Set: AUG-CC-PVTZ
    Blend: AUG-CC-PVTZ
  Basis Set: (AUG-CC-PVTZ AUX)
    Blend: AUG-CC-PVTZ-JKFIT

    Orbital Energies [Eh]
    ---------------------

    Doubly Occupied:

       1A    -15.863304     2A    -11.470815     3A    -11.464794
       4A    -11.392489     5A    -11.388966     6A     -1.494528
       7A     -1.231744     8A     -1.182050     9A     -1.061921
      10A     -1.027586    11A     -0.968461    12A     -0.847404
      13A     -0.832314    14A     -0.801743    15A     -0.775628
      16A     -0.738956    17A     -0.704533    18A     -0.701416
      19A     -0.687334    20A     -0.680588    21A     -0.674898

  @DF-RHF Final Energy:  -212.76488262174828

   => Energetics <=

    Nuclear Repulsion Energy =            196.8709344841206814
    One-Electron Energy =                -667.2886927974215041
    Two-Electron Energy =                 257.6528756915525946
    Total Energy =                       -212.7648826217482565
  Basis Set: (AUG-CC-PVTZ AUX)
    Blend: AUG-CC-PVTZ-RI
    Molecular point group: c1

    Geometry (in Angstrom), charge = 1, multiplicity = 1:

       Center              X                  Y                   Z               Mass
    ------------   -----------------  -----------------  -----------------  -----------------
         N            0.026899203162    -0.302318393745     0.072125567104    14.003074004430
         C            1.269491103162     0.552615706255    -0.017210732896    12.000000000000
         C           -1.282014896838     0.552604706255    -0.016489732896    12.000000000000
         C            2.482866103162    -0.357088293745    -0.016586732896    12.000000000000
         C           -2.495412896838    -0.357081293745    -0.016901732896    12.000000000000
         H           -0.006497896838    -0.880768293745    -0.836071732896     1.007825032230
         H           -0.006025896838    -0.881291293745     0.801474267104     1.007825032230
         H            1.228032103162     1.187163706255    -0.904712732896     1.007825032230
         H            1.227715103162     1.187933706255     0.869725267104     1.007825032230
         H           -1.240319896838     1.187004706255     0.871107267104     1.007825032230
         H           -1.240491896838     1.188080706255    -0.903325732896     1.007825032230
         H            3.385471103162     0.257820706255    -0.016973732896     1.007825032230
         H            2.514366103162    -0.989272293745     0.874836267104     1.007825032230
         H            2.514428103162    -0.990455293745    -0.907169732896     1.007825032230
         H           -3.398005896838     0.257843706255    -0.016640732896     1.007825032230
         H           -2.526952896838    -0.989456293745    -0.908190732896     1.007825032230
         H           -2.526953896838    -0.990261293745     0.873811267104     1.007825032230

  Basis Set: AUG-CC-PVTZ
    Blend: AUG-CC-PVTZ
  Basis Set: (AUG-CC-PVTZ AUX)
    Blend: AUG-CC-PVTZ-JKFIT
	 Reference Energy          =    -212.7648826217482849 [Eh]
	 Singles Energy            =      -0.0000000000000000 [Eh]
	 Same-Spin Energy          =      -0.2151752518674257 [Eh]
	 Opposite-Spin Energy      =      -0.8093104025576625 [Eh]
	 Correlation Energy        =      -1.0244856544250882 [Eh]
	 Total Energy              =    -213.7893682761733771 [Eh]

	 ================> DF-SCS-MP2 Energies <==================
	-----------------------------------------------------------
	 SCS Same-Spin Scale       =       0.3333333333333333 [-]
	 SCS Opposite-Spin Scale   =       1.2000000000000000 [-]
	 SCS Same-Spin Energy      =      -0.0717250839558086 [Eh]
	 SCS Opposite-Spin Energy  =      -0.9711724830691950 [Eh]
	 SCS Correlation Energy    =      -1.0428975670250036 [Eh]
	 SCS Total Energy          =    -213.8077801887732790 [Eh]
	-----------------------------------------------------------

  Dipole Moment: [D]
     X:    -0.1312      Y:    -0.4198      Z:    -0.1272     Total:     0.4578

*** Psi4 exiting successfully. Buy a developer a beer!
