                               Psi4 1.4a3.dev225

  ==> Input File <==

--------------------------------------------------------------------------
#psi4
#
memory 32 gb

molecule  {
1 1
  N        0.0000000     0.2689290     0.0000000
  C        1.2628000    -0.5465180     0.0292690
  C       -1.2628000    -0.5465180    -0.0292690
  C        2.4835250     0.3513150    -0.0125090
  C       -2.4835250     0.3513150     0.0125090
  H       -0.0176686     0.8789514     0.8028895
  H        0.0180190     0.8910490    -0.8188120
  H        1.2213520    -1.1422140     0.9417860
  H        1.2165880    -1.2139890    -0.8318790
  H       -1.2213520    -1.1422140    -0.9417860
  H       -1.2165880    -1.2139890     0.8318790
  H        3.3791030    -0.2727590     0.0143590
  H        2.5088070     0.9427720    -0.9309290
  H        2.5122610     1.0251090     0.8471220
  H       -3.3791030    -0.2727590    -0.0143590
  H       -2.5088070     0.9427720     0.9309290
  H       -2.5122610     1.0251090    -0.8471220
units angstrom
no_reorient  #important for SAPT in psi4, default
symmetry c1  #important for SAPT in psi4, default
}

set PROPERTIES_ORIGIN ["COM"]
properties('MP2/aug-cc-pvtz', properties = ['dipole'])
--------------------------------------------------------------------------

    Molecular point group: c1
  Charge       = 1
  Multiplicity = 1
  Basis Set: AUG-CC-PVTZ
    Blend: AUG-CC-PVTZ
  Basis Set: (AUG-CC-PVTZ AUX)
    Blend: AUG-CC-PVTZ-JKFIT

    Orbital Energies [Eh]
    ---------------------

    Doubly Occupied:

       1A    -15.868689     2A    -11.464139     3A    -11.464124
       4A    -11.391438     5A    -11.391429     6A     -1.503467
       7A     -1.236572     8A     -1.178516     9A     -1.062183
      10A     -1.032538    11A     -0.970110    12A     -0.851927
      13A     -0.836438    14A     -0.803235    15A     -0.775283
      16A     -0.739981    17A     -0.703168    18A     -0.701762
      19A     -0.688303    20A     -0.684171    21A     -0.679440

  @DF-RHF Final Energy:  -212.78016029868382

   => Energetics <=

    Nuclear Repulsion Energy =            197.9660910300593457
    One-Electron Energy =                -669.4386762148574235
    Two-Electron Energy =                 258.6924248861142246
    Total Energy =                       -212.7801602986838247
  Basis Set: (AUG-CC-PVTZ AUX)
    Blend: AUG-CC-PVTZ-RI
    Molecular point group: c1

    Geometry (in Angstrom), charge = 1, multiplicity = 1:

       Center              X                  Y                   Z               Mass
    ------------   -----------------  -----------------  -----------------  -----------------
         N           -0.000004765942     0.275240952208     0.000216568817    14.003074004430
         C            1.262795234058    -0.540206047792     0.029485568817    12.000000000000
         C           -1.262804765942    -0.540206047792    -0.029052431183    12.000000000000
         C            2.483520234058     0.357626952208    -0.012292431183    12.000000000000
         C           -2.483529765942     0.357626952208     0.012725568817    12.000000000000
         H           -0.017673365942     0.885263352208     0.803106068817     1.007825032230
         H            0.018014234058     0.897360952208    -0.818595431183     1.007825032230
         H            1.221347234058    -1.135902047792     0.942002568817     1.007825032230
         H            1.216583234058    -1.207677047792    -0.831662431183     1.007825032230
         H           -1.221356765942    -1.135902047792    -0.941569431183     1.007825032230
         H           -1.216592765942    -1.207677047792     0.832095568817     1.007825032230
         H            3.379098234058    -0.266447047792     0.014575568817     1.007825032230
         H            2.508802234058     0.949083952208    -0.930712431183     1.007825032230
         H            2.512256234058     1.031420952208     0.847338568817     1.007825032230
         H           -3.379107765942    -0.266447047792    -0.014142431183     1.007825032230
         H           -2.508811765942     0.949083952208     0.931145568817     1.007825032230
         H           -2.512265765942     1.031420952208    -0.846905431183     1.007825032230

  Basis Set: AUG-CC-PVTZ
    Blend: AUG-CC-PVTZ
  Basis Set: (AUG-CC-PVTZ AUX)
    Blend: AUG-CC-PVTZ-JKFIT
	 Reference Energy          =    -212.7801602986838247 [Eh]
	 Singles Energy            =      -0.0000000000000000 [Eh]
	 Same-Spin Energy          =      -0.2155047976747926 [Eh]
	 Opposite-Spin Energy      =      -0.8087781136679247 [Eh]
	 Correlation Energy        =      -1.0242829113427172 [Eh]
	 Total Energy              =    -213.8044432100265340 [Eh]

	 ================> DF-SCS-MP2 Energies <==================
	-----------------------------------------------------------
	 SCS Same-Spin Scale       =       0.3333333333333333 [-]
	 SCS Opposite-Spin Scale   =       1.2000000000000000 [-]
	 SCS Same-Spin Energy      =      -0.0718349325582642 [Eh]
	 SCS Opposite-Spin Energy  =      -0.9705337364015096 [Eh]
	 SCS Correlation Energy    =      -1.0423686689597738 [Eh]
	 SCS Total Energy          =    -213.8225289676435921 [Eh]
	-----------------------------------------------------------

  Dipole Moment: [D]
     X:     0.0006      Y:     0.5330      Z:    -0.0168     Total:     0.5332

*** Psi4 exiting successfully. Buy a developer a beer!
