                               Psi4 1.3.2 release

  ==> Input File <==

--------------------------------------------------------------------------
#psi4
#
memory 32 gb

molecule  {
1 1
  N        0.0077129    -0.2707960     0.0220826
  C        1.2757600     0.5504720    -0.0003510
  C       -1.2757460     0.5504610     0.0003700
  C        2.4891350    -0.3592320     0.0002730
  C       -2.4891440    -0.3592250    -0.0000420
  H       -0.0002290    -0.8829120    -0.8192120
  H        0.0002430    -0.8834350     0.8183340
  H        1.2343010     1.1850200    -0.8878530
  H        1.2339840     1.1857900     0.8865850
  H       -1.2340510     1.1848610     0.8879670
  H       -1.2342230     1.1859370    -0.8864660
  H        3.3917400     0.2556770    -0.0001140
  H        2.5206350    -0.9914160     0.8916960
  H        2.5206970    -0.9925990    -0.8903100
  H       -3.3917370     0.2557000     0.0002190
  H       -2.5206840    -0.9916000    -0.8913310
  H       -2.5206850    -0.9924050     0.8906710
units angstrom
no_reorient  #important for SAPT in psi4, default
symmetry c1  #important for SAPT in psi4, default
}

set PROPERTIES_ORIGIN ["COM"]
properties('MP2/aug-cc-pvtz', properties = ['dipole'])
--------------------------------------------------------------------------

    Molecular point group: c1
  Charge       = 1
  Multiplicity = 1
  Basis Set: AUG-CC-PVTZ
    Blend: AUG-CC-PVTZ
  Basis Set: (AUG-CC-PVTZ AUX)
    Blend: AUG-CC-PVTZ-JKFIT

    Orbital Energies [Eh]
    ---------------------

    Doubly Occupied:

       1A    -15.868143     2A    -11.466384     3A    -11.464947
       4A    -11.391714     5A    -11.390907     6A     -1.495629
       7A     -1.234225     8A     -1.177716     9A     -1.058718
      10A     -1.031239    11A     -0.965649    12A     -0.848491
      13A     -0.832664    14A     -0.802320    15A     -0.774825
      16A     -0.739220    17A     -0.702551    18A     -0.701793
      19A     -0.687678    20A     -0.682532    21A     -0.679103

  @DF-RHF Final Energy:  -212.77901937201906

   => Energetics <=

    Nuclear Repulsion Energy =            197.1649409506902941
    One-Electron Energy =                -667.8950311612474025
    Two-Electron Energy =                 257.9510708385380440
    Total Energy =                       -212.7790193720190928
  Basis Set: (AUG-CC-PVTZ AUX)
    Blend: AUG-CC-PVTZ-RI
    Molecular point group: c1

    Geometry (in Angstrom), charge = 1, multiplicity = 1:

       Center              X                  Y                   Z               Mass
    ------------   -----------------  -----------------  -----------------  -----------------
         N            0.006254605111    -0.275014616817     0.017866345017    14.003074004430
         C            1.274301705111     0.546253383183    -0.004567254983    12.000000000000
         C           -1.277204294889     0.546242383183    -0.003846254983    12.000000000000
         C            2.487676705111    -0.363450616817    -0.003943254983    12.000000000000
         C           -2.490602294889    -0.363443616817    -0.004258254983    12.000000000000
         H           -0.001687294889    -0.887130616817    -0.823428254983     1.007825032230
         H           -0.001215294889    -0.887653616817     0.814117745017     1.007825032230
         H            1.232842705111     1.180801383183    -0.892069254983     1.007825032230
         H            1.232525705111     1.181571383183     0.882368745017     1.007825032230
         H           -1.235509294889     1.180642383183     0.883750745017     1.007825032230
         H           -1.235681294889     1.181718383183    -0.890682254983     1.007825032230
         H            3.390281705111     0.251458383183    -0.004330254983     1.007825032230
         H            2.519176705111    -0.995634616817     0.887479745017     1.007825032230
         H            2.519238705111    -0.996817616817    -0.894526254983     1.007825032230
         H           -3.393195294889     0.251481383183    -0.003997254983     1.007825032230
         H           -2.522142294889    -0.995818616817    -0.895547254983     1.007825032230
         H           -2.522143294889    -0.996623616817     0.886454745017     1.007825032230

  Basis Set: AUG-CC-PVTZ
    Blend: AUG-CC-PVTZ
  Basis Set: (AUG-CC-PVTZ AUX)
    Blend: AUG-CC-PVTZ-JKFIT
	 Reference Energy          =    -212.7790193720190643 [Eh]
	 Singles Energy            =      -0.0000000000000000 [Eh]
	 Same-Spin Energy          =      -0.2153758584944736 [Eh]
	 Opposite-Spin Energy      =      -0.8090456877740377 [Eh]
	 Correlation Energy        =      -1.0244215462685113 [Eh]
	 Total Energy              =    -213.8034409182875777 [Eh]

	 ================> DF-SCS-MP2 Energies <==================
	-----------------------------------------------------------
	 SCS Same-Spin Scale       =       0.3333333333333333 [-]
	 SCS Opposite-Spin Scale   =       1.2000000000000000 [-]
	 SCS Same-Spin Energy      =      -0.0717919528314912 [Eh]
	 SCS Opposite-Spin Energy  =      -0.9708548253288453 [Eh]
	 SCS Correlation Energy    =      -1.0426467781603366 [Eh]
	 SCS Total Energy          =    -213.8216661501793965 [Eh]
	-----------------------------------------------------------

  Dipole Moment: [D]
     X:    -0.0301      Y:    -0.4994      Z:    -0.0307     Total:     0.5012

*** Psi4 exiting successfully. Buy a developer a beer!
