                               Psi4 1.4a3.dev225

  ==> Input File <==

--------------------------------------------------------------------------
#psi4
#
memory 32 gb

molecule  {
1 1
  N        0.0000000     0.2689290     0.0000000
  C        1.3047957    -0.5736365     0.0302424
  C       -1.2628000    -0.5465180    -0.0292690
  C        2.4835250     0.3513150    -0.0125090
  C       -2.4835250     0.3513150     0.0125090
  H       -0.0180190     0.8910490     0.8188120
  H        0.0180190     0.8910490    -0.8188120
  H        1.2213520    -1.1422140     0.9417860
  H        1.2165880    -1.2139890    -0.8318790
  H       -1.2213520    -1.1422140    -0.9417860
  H       -1.2165880    -1.2139890     0.8318790
  H        3.3791030    -0.2727590     0.0143590
  H        2.5088070     0.9427720    -0.9309290
  H        2.5122610     1.0251090     0.8471220
  H       -3.3791030    -0.2727590    -0.0143590
  H       -2.5088070     0.9427720     0.9309290
  H       -2.5122610     1.0251090    -0.8471220
units angstrom
no_reorient  #important for SAPT in psi4, default
symmetry c1  #important for SAPT in psi4, default
}

set PROPERTIES_ORIGIN ["COM"]
properties('MP2/aug-cc-pvtz', properties = ['dipole'])
--------------------------------------------------------------------------

    Molecular point group: c1
  Charge       = 1
  Multiplicity = 1
  Basis Set: AUG-CC-PVTZ
    Blend: AUG-CC-PVTZ
  Basis Set: (AUG-CC-PVTZ AUX)
    Blend: AUG-CC-PVTZ-JKFIT

    Orbital Energies [Eh]
    ---------------------

    Doubly Occupied:

       1A    -15.864782     2A    -11.467136     3A    -11.461713
       4A    -11.391985     5A    -11.389608     6A     -1.488630
       7A     -1.236856     8A     -1.179392     9A     -1.058504
      10A     -1.030831    11A     -0.959862    12A     -0.844762
      13A     -0.828209    14A     -0.807563    15A     -0.776004
      16A     -0.740051    17A     -0.712204    18A     -0.700084
      19A     -0.690619    20A     -0.679803    21A     -0.678774

  @DF-RHF Final Energy:  -212.77795623675817

   => Energetics <=

    Nuclear Repulsion Energy =            197.3292765530829342
    One-Electron Energy =                -668.2397214845461804
    Two-Electron Energy =                 258.1324886947050459
    Total Energy =                       -212.7779562367582002
  Basis Set: (AUG-CC-PVTZ AUX)
    Blend: AUG-CC-PVTZ-RI
    Molecular point group: c1

    Geometry (in Angstrom), charge = 1, multiplicity = 1:

       Center              X                  Y                   Z               Mass
    ------------   -----------------  -----------------  -----------------  -----------------
         N           -0.006801200780     0.279468246757    -0.000157642064    14.003074004430
         C            1.297994499220    -0.563097253243     0.030084757936    12.000000000000
         C           -1.269601200780    -0.535978753243    -0.029426642064    12.000000000000
         C            2.476723799220     0.361854246757    -0.012666642064    12.000000000000
         C           -2.490326200780     0.361854246757     0.012351357936    12.000000000000
         H           -0.024820200780     0.901588246757     0.818654357936     1.007825032230
         H            0.011217799220     0.901588246757    -0.818969642064     1.007825032230
         H            1.214550799220    -1.131674753243     0.941628357936     1.007825032230
         H            1.209786799220    -1.203449753243    -0.832036642064     1.007825032230
         H           -1.228153200780    -1.131674753243    -0.941943642064     1.007825032230
         H           -1.223389200780    -1.203449753243     0.831721357936     1.007825032230
         H            3.372301799220    -0.262219753243     0.014201357936     1.007825032230
         H            2.502005799220     0.953311246757    -0.931086642064     1.007825032230
         H            2.505459799220     1.035648246757     0.846964357936     1.007825032230
         H           -3.385904200780    -0.262219753243    -0.014516642064     1.007825032230
         H           -2.515608200780     0.953311246757     0.930771357936     1.007825032230
         H           -2.519062200780     1.035648246757    -0.847279642064     1.007825032230

  Basis Set: AUG-CC-PVTZ
    Blend: AUG-CC-PVTZ
  Basis Set: (AUG-CC-PVTZ AUX)
    Blend: AUG-CC-PVTZ-JKFIT
	 Reference Energy          =    -212.7779562367581718 [Eh]
	 Singles Energy            =      -0.0000000000000000 [Eh]
	 Same-Spin Energy          =      -0.2155384545859564 [Eh]
	 Opposite-Spin Energy      =      -0.8093452995596777 [Eh]
	 Correlation Energy        =      -1.0248837541456342 [Eh]
	 Total Energy              =    -213.8028399909038058 [Eh]

	 ================> DF-SCS-MP2 Energies <==================
	-----------------------------------------------------------
	 SCS Same-Spin Scale       =       0.3333333333333333 [-]
	 SCS Opposite-Spin Scale   =       1.2000000000000000 [-]
	 SCS Same-Spin Energy      =      -0.0718461515286521 [Eh]
	 SCS Opposite-Spin Energy  =      -0.9712143594716132 [Eh]
	 SCS Correlation Energy    =      -1.0430605110002653 [Eh]
	 SCS Total Energy          =    -213.8210167477584491 [Eh]
	-----------------------------------------------------------

  Dipole Moment: [D]
     X:     0.1227      Y:     0.5175      Z:     0.0012     Total:     0.5318

*** Psi4 exiting successfully. Buy a developer a beer!
