                               Psi4 1.3.2 release

  ==> Input File <==

--------------------------------------------------------------------------
#psi4
#
memory 32 gb

molecule  {
1 1
  N       -0.0000030    -0.2590690    -0.0002410
  C        1.2757600     0.5504720    -0.0003510
  C       -1.2757460     0.5504610     0.0003700
  C        2.4891350    -0.3592320     0.0002730
  C       -2.4891440    -0.3592250    -0.0000420
  H       -0.0002419    -0.8242638    -0.8607341
  H        0.0002430    -0.8834350     0.8183340
  H        1.2343010     1.1850200    -0.8878530
  H        1.2339840     1.1857900     0.8865850
  H       -1.2340510     1.1848610     0.8879670
  H       -1.2342230     1.1859370    -0.8864660
  H        3.3917400     0.2556770    -0.0001140
  H        2.5206350    -0.9914160     0.8916960
  H        2.5206970    -0.9925990    -0.8903100
  H       -3.3917370     0.2557000     0.0002190
  H       -2.5206840    -0.9916000    -0.8913310
  H       -2.5206850    -0.9924050     0.8906710
units angstrom
no_reorient  #important for SAPT in psi4, default
symmetry c1  #important for SAPT in psi4, default
}

set PROPERTIES_ORIGIN ["COM"]
properties('MP2/aug-cc-pvtz', properties = ['dipole'])
--------------------------------------------------------------------------

    Molecular point group: c1
  Charge       = 1
  Multiplicity = 1
  Basis Set: AUG-CC-PVTZ
    Blend: AUG-CC-PVTZ
  Basis Set: (AUG-CC-PVTZ AUX)
    Blend: AUG-CC-PVTZ-JKFIT

    Orbital Energies [Eh]
    ---------------------

    Doubly Occupied:

       1A    -15.869632     2A    -11.464966     3A    -11.464952
       4A    -11.391493     5A    -11.391492     6A     -1.496628
       7A     -1.235239     8A     -1.175973     9A     -1.056256
      10A     -1.032632    11A     -0.970149    12A     -0.849396
      13A     -0.829766    14A     -0.802669    15A     -0.774626
      16A     -0.738770    17A     -0.701919    18A     -0.701207
      19A     -0.687546    20A     -0.683956    21A     -0.679439

  @DF-RHF Final Energy:  -212.77894335078062

   => Energetics <=

    Nuclear Repulsion Energy =            197.2913498259831329
    One-Electron Energy =                -668.1431755178106187
    Two-Electron Energy =                 258.0728823410468067
    Total Energy =                       -212.7789433507806507
  Basis Set: (AUG-CC-PVTZ AUX)
    Blend: AUG-CC-PVTZ-RI
    Molecular point group: c1

    Geometry (in Angstrom), charge = 1, multiplicity = 1:

       Center              X                  Y                   Z               Mass
    ------------   -----------------  -----------------  -----------------  -----------------
         N           -0.000002944929    -0.266301520890     0.000326287632    14.003074004430
         C            1.275760055071     0.543239479110     0.000216287632    12.000000000000
         C           -1.275745944929     0.543228479110     0.000937287632    12.000000000000
         C            2.489135055071    -0.366464520890     0.000840287632    12.000000000000
         C           -2.489143944929    -0.366457520890     0.000525287632    12.000000000000
         H           -0.000241844929    -0.831496320890    -0.860166812368     1.007825032230
         H            0.000243055071    -0.890667520890     0.818901287632     1.007825032230
         H            1.234301055071     1.177787479110    -0.887285712368     1.007825032230
         H            1.233984055071     1.178557479110     0.887152287632     1.007825032230
         H           -1.234050944929     1.177628479110     0.888534287632     1.007825032230
         H           -1.234222944929     1.178704479110    -0.885898712368     1.007825032230
         H            3.391740055071     0.248444479110     0.000453287632     1.007825032230
         H            2.520635055071    -0.998648520890     0.892263287632     1.007825032230
         H            2.520697055071    -0.999831520890    -0.889742712368     1.007825032230
         H           -3.391736944929     0.248467479110     0.000786287632     1.007825032230
         H           -2.520683944929    -0.998832520890    -0.890763712368     1.007825032230
         H           -2.520684944929    -0.999637520890     0.891238287632     1.007825032230

  Basis Set: AUG-CC-PVTZ
    Blend: AUG-CC-PVTZ
  Basis Set: (AUG-CC-PVTZ AUX)
    Blend: AUG-CC-PVTZ-JKFIT
	 Reference Energy          =    -212.7789433507806223 [Eh]
	 Singles Energy            =      -0.0000000000000000 [Eh]
	 Same-Spin Energy          =      -0.2155624715793872 [Eh]
	 Opposite-Spin Energy      =      -0.8092743586896571 [Eh]
	 Correlation Energy        =      -1.0248368302690443 [Eh]
	 Total Energy              =    -213.8037801810496603 [Eh]

	 ================> DF-SCS-MP2 Energies <==================
	-----------------------------------------------------------
	 SCS Same-Spin Scale       =       0.3333333333333333 [-]
	 SCS Opposite-Spin Scale   =       1.2000000000000000 [-]
	 SCS Same-Spin Energy      =      -0.0718541571931291 [Eh]
	 SCS Opposite-Spin Energy  =      -0.9711292304275885 [Eh]
	 SCS Correlation Energy    =      -1.0429833876207175 [Eh]
	 SCS Total Energy          =    -213.8219267384013449 [Eh]
	-----------------------------------------------------------

  Dipole Moment: [D]
     X:     0.0001      Y:    -0.4788      Z:    -0.0348     Total:     0.4801

*** Psi4 exiting successfully. Buy a developer a beer!
