                               Psi4 1.3.2 release

  ==> Input File <==

--------------------------------------------------------------------------
#psi4
#
memory 32 gb

molecule  {
1 1
  N       -0.0000030    -0.2590690    -0.0002410
  C        1.3601953     0.6040508    -0.0003583
  C       -1.2757460     0.5504610     0.0003700
  C        2.4891350    -0.3592320     0.0002730
  C       -2.4891440    -0.3592250    -0.0000420
  H       -0.0002290    -0.8829120    -0.8192120
  H        0.0002430    -0.8834350     0.8183340
  H        1.2343010     1.1850200    -0.8878530
  H        1.2339840     1.1857900     0.8865850
  H       -1.2340510     1.1848610     0.8879670
  H       -1.2342230     1.1859370    -0.8864660
  H        3.3917400     0.2556770    -0.0001140
  H        2.5206350    -0.9914160     0.8916960
  H        2.5206970    -0.9925990    -0.8903100
  H       -3.3917370     0.2557000     0.0002190
  H       -2.5206840    -0.9916000    -0.8913310
  H       -2.5206850    -0.9924050     0.8906710
units angstrom
no_reorient  #important for SAPT in psi4, default
symmetry c1  #important for SAPT in psi4, default
}

set PROPERTIES_ORIGIN ["COM"]
properties('MP2/aug-cc-pvtz', properties = ['dipole'])
--------------------------------------------------------------------------

    Molecular point group: c1
  Charge       = 1
  Multiplicity = 1
  Basis Set: AUG-CC-PVTZ
    Blend: AUG-CC-PVTZ
  Basis Set: (AUG-CC-PVTZ AUX)
    Blend: AUG-CC-PVTZ-JKFIT

    Orbital Energies [Eh]
    ---------------------

    Doubly Occupied:

       1A    -15.857617     2A    -11.472376     3A    -11.460212
       4A    -11.393448     5A    -11.387758     6A     -1.473572
       7A     -1.237299     8A     -1.179660     9A     -1.054664
      10A     -1.029754    11A     -0.950187    12A     -0.836168
      13A     -0.818678    14A     -0.812998    15A     -0.774951
      16A     -0.741155    17A     -0.721572    18A     -0.696890
      19A     -0.693832    20A     -0.678363    21A     -0.671218

  @DF-RHF Final Energy:  -212.77225964447700

   => Energetics <=

    Nuclear Repulsion Energy =            196.2306237982670325
    One-Electron Energy =                -666.1210244079198901
    Two-Electron Energy =                 257.1181409651758258
    Total Energy =                       -212.7722596444770033
  Basis Set: (AUG-CC-PVTZ AUX)
    Blend: AUG-CC-PVTZ-RI
    Molecular point group: c1

    Geometry (in Angstrom), charge = 1, multiplicity = 1:

       Center              X                  Y                   Z               Mass
    ------------   -----------------  -----------------  -----------------  -----------------
         N           -0.013677411522    -0.274180904370    -0.000237290194    14.003074004430
         C            1.346520888478     0.588938895630    -0.000354590194    12.000000000000
         C           -1.289420411522     0.535349095630     0.000373709806    12.000000000000
         C            2.475460588478    -0.374343904370     0.000276709806    12.000000000000
         C           -2.502818411522    -0.374336904370    -0.000038290194    12.000000000000
         H           -0.013903411522    -0.898023904370    -0.819208290194     1.007825032230
         H           -0.013431411522    -0.898546904370     0.818337709806     1.007825032230
         H            1.220626588478     1.169908095630    -0.887849290194     1.007825032230
         H            1.220309588478     1.170678095630     0.886588709806     1.007825032230
         H           -1.247725411522     1.169749095630     0.887970709806     1.007825032230
         H           -1.247897411522     1.170825095630    -0.886462290194     1.007825032230
         H            3.378065588478     0.240565095630    -0.000110290194     1.007825032230
         H            2.506960588478    -1.006527904370     0.891699709806     1.007825032230
         H            2.507022588478    -1.007710904370    -0.890306290194     1.007825032230
         H           -3.405411411522     0.240588095630     0.000222709806     1.007825032230
         H           -2.534358411522    -1.006711904370    -0.891327290194     1.007825032230
         H           -2.534359411522    -1.007516904370     0.890674709806     1.007825032230

  Basis Set: AUG-CC-PVTZ
    Blend: AUG-CC-PVTZ
  Basis Set: (AUG-CC-PVTZ AUX)
    Blend: AUG-CC-PVTZ-JKFIT
	 Reference Energy          =    -212.7722596444770033 [Eh]
	 Singles Energy            =      -0.0000000000000000 [Eh]
	 Same-Spin Energy          =      -0.2154539860046950 [Eh]
	 Opposite-Spin Energy      =      -0.8097772183447222 [Eh]
	 Correlation Energy        =      -1.0252312043494172 [Eh]
	 Total Energy              =    -213.7974908488264134 [Eh]

	 ================> DF-SCS-MP2 Energies <==================
	-----------------------------------------------------------
	 SCS Same-Spin Scale       =       0.3333333333333333 [-]
	 SCS Opposite-Spin Scale   =       1.2000000000000000 [-]
	 SCS Same-Spin Energy      =      -0.0718179953348983 [Eh]
	 SCS Opposite-Spin Energy  =      -0.9717326620136666 [Eh]
	 SCS Correlation Energy    =      -1.0435506573485649 [Eh]
	 SCS Total Energy          =    -213.8158103018255645 [Eh]
	-----------------------------------------------------------

  Dipole Moment: [D]
     X:     0.2747      Y:    -0.4631      Z:    -0.0006     Total:     0.5384

*** Psi4 exiting successfully. Buy a developer a beer!
