                               Psi4 1.3.2 release

  ==> Input File <==

--------------------------------------------------------------------------
#psi4
#
memory 32 gb

molecule  {
1 1
  N        0.0290267    -0.3030993    -0.0002164
  C        1.2757600     0.5504720    -0.0003510
  C       -1.2757460     0.5504610     0.0003700
  C        2.4891350    -0.3592320     0.0002730
  C       -2.4891440    -0.3592250    -0.0000420
  H       -0.0002290    -0.8829120    -0.8192120
  H        0.0002430    -0.8834350     0.8183340
  H        1.2343010     1.1850200    -0.8878530
  H        1.2339840     1.1857900     0.8865850
  H       -1.2340510     1.1848610     0.8879670
  H       -1.2342230     1.1859370    -0.8864660
  H        3.3917400     0.2556770    -0.0001140
  H        2.5206350    -0.9914160     0.8916960
  H        2.5206970    -0.9925990    -0.8903100
  H       -3.3917370     0.2557000     0.0002190
  H       -2.5206840    -0.9916000    -0.8913310
  H       -2.5206850    -0.9924050     0.8906710
units angstrom
no_reorient  #important for SAPT in psi4, default
symmetry c1  #important for SAPT in psi4, default
}

set PROPERTIES_ORIGIN ["COM"]
properties('MP2/aug-cc-pvtz', properties = ['dipole'])
--------------------------------------------------------------------------

    Molecular point group: c1
  Charge       = 1
  Multiplicity = 1
  Basis Set: AUG-CC-PVTZ
    Blend: AUG-CC-PVTZ
  Basis Set: (AUG-CC-PVTZ AUX)
    Blend: AUG-CC-PVTZ-JKFIT

    Orbital Energies [Eh]
    ---------------------

    Doubly Occupied:

       1A    -15.864290     2A    -11.469760     3A    -11.464421
       4A    -11.392279     5A    -11.389193     6A     -1.493660
       7A     -1.232040     8A     -1.179735     9A     -1.057741
      10A     -1.027911    11A     -0.973317    12A     -0.846779
      13A     -0.828702    14A     -0.802368    15A     -0.779603
      16A     -0.739853    17A     -0.703989    18A     -0.701332
      19A     -0.688622    20A     -0.678987    21A     -0.677577

  @DF-RHF Final Energy:  -212.77801252294458

   => Energetics <=

    Nuclear Repulsion Energy =            196.9166534632220475
    One-Electron Energy =                -667.4050150252020330
    Two-Electron Energy =                 257.7103490390354068
    Total Energy =                       -212.7780125229446071
  Basis Set: (AUG-CC-PVTZ AUX)
    Blend: AUG-CC-PVTZ-RI
    Molecular point group: c1

    Geometry (in Angstrom), charge = 1, multiplicity = 1:

       Center              X                  Y                   Z               Mass
    ------------   -----------------  -----------------  -----------------  -----------------
         N            0.023540457665    -0.301213139878    -0.000218521412    14.003074004430
         C            1.270273757665     0.552358160122    -0.000353121412    12.000000000000
         C           -1.281232242335     0.552347160122     0.000367878588    12.000000000000
         C            2.483648757665    -0.357345839878     0.000270878588    12.000000000000
         C           -2.494630242335    -0.357338839878    -0.000044121412    12.000000000000
         H           -0.005715242335    -0.881025839878    -0.819214121412     1.007825032230
         H           -0.005243242335    -0.881548839878     0.818331878588     1.007825032230
         H            1.228814757665     1.186906160122    -0.887855121412     1.007825032230
         H            1.228497757665     1.187676160122     0.886582878588     1.007825032230
         H           -1.239537242335     1.186747160122     0.887964878588     1.007825032230
         H           -1.239709242335     1.187823160122    -0.886468121412     1.007825032230
         H            3.386253757665     0.257563160122    -0.000116121412     1.007825032230
         H            2.515148757665    -0.989529839878     0.891693878588     1.007825032230
         H            2.515210757665    -0.990712839878    -0.890312121412     1.007825032230
         H           -3.397223242335     0.257586160122     0.000216878588     1.007825032230
         H           -2.526170242335    -0.989713839878    -0.891333121412     1.007825032230
         H           -2.526171242335    -0.990518839878     0.890668878588     1.007825032230

  Basis Set: AUG-CC-PVTZ
    Blend: AUG-CC-PVTZ
  Basis Set: (AUG-CC-PVTZ AUX)
    Blend: AUG-CC-PVTZ-JKFIT
	 Reference Energy          =    -212.7780125229445787 [Eh]
	 Singles Energy            =      -0.0000000000000000 [Eh]
	 Same-Spin Energy          =      -0.2150165915303158 [Eh]
	 Opposite-Spin Energy      =      -0.8086955917216084 [Eh]
	 Correlation Energy        =      -1.0237121832519243 [Eh]
	 Total Energy              =    -213.8017247061964952 [Eh]

	 ================> DF-SCS-MP2 Energies <==================
	-----------------------------------------------------------
	 SCS Same-Spin Scale       =       0.3333333333333333 [-]
	 SCS Opposite-Spin Scale   =       1.2000000000000000 [-]
	 SCS Same-Spin Energy      =      -0.0716721971767719 [Eh]
	 SCS Opposite-Spin Energy  =      -0.9704347100659301 [Eh]
	 SCS Correlation Energy    =      -1.0421069072427021 [Eh]
	 SCS Total Energy          =    -213.8201194301872761 [Eh]
	-----------------------------------------------------------

  Dipole Moment: [D]
     X:    -0.1154      Y:    -0.4340      Z:    -0.0007     Total:     0.4491

*** Psi4 exiting successfully. Buy a developer a beer!
