                               Psi4 1.4a3.dev225

  ==> Input File <==

--------------------------------------------------------------------------
#psi4
#
memory 32 gb

molecule  {
1 1
  N        0.0000000     0.2689290     0.0000000
  C        1.2628000    -0.5465180     0.0292690
  C       -1.2628000    -0.5465180    -0.0292690
  C        2.4835250     0.3513150    -0.0125090
  C       -2.4835250     0.3513150     0.0125090
  H       -0.0171430     0.8608049     0.7790059
  H        0.0180190     0.8910490    -0.8188120
  H        1.2213520    -1.1422140     0.9417860
  H        1.2165880    -1.2139890    -0.8318790
  H       -1.2213520    -1.1422140    -0.9417860
  H       -1.2165880    -1.2139890     0.8318790
  H        3.3791030    -0.2727590     0.0143590
  H        2.5088070     0.9427720    -0.9309290
  H        2.5122610     1.0251090     0.8471220
  H       -3.3791030    -0.2727590    -0.0143590
  H       -2.5088070     0.9427720     0.9309290
  H       -2.5122610     1.0251090    -0.8471220
units angstrom
no_reorient  #important for SAPT in psi4, default
symmetry c1  #important for SAPT in psi4, default
}

set PROPERTIES_ORIGIN ["COM"]
properties('MP2/aug-cc-pvtz', properties = ['dipole'])
--------------------------------------------------------------------------

    Molecular point group: c1
  Charge       = 1
  Multiplicity = 1
  Basis Set: AUG-CC-PVTZ
    Blend: AUG-CC-PVTZ
  Basis Set: (AUG-CC-PVTZ AUX)
    Blend: AUG-CC-PVTZ-JKFIT

    Orbital Energies [Eh]
    ---------------------

    Doubly Occupied:

       1A    -15.866352     2A    -11.464403     3A    -11.464386
       4A    -11.391603     5A    -11.391582     6A     -1.508236
       7A     -1.236890     8A     -1.180304     9A     -1.064249
      10A     -1.032793    11A     -0.975489    12A     -0.852474
      13A     -0.837942    14A     -0.803474    15A     -0.777008
      16A     -0.740429    17A     -0.703404    18A     -0.701968
      19A     -0.688604    20A     -0.684444    21A     -0.679623

  @DF-RHF Final Energy:  -212.77947496126032

   => Energetics <=

    Nuclear Repulsion Energy =            198.1337156765648047
    One-Electron Energy =                -669.7350684705791082
    Two-Electron Energy =                 258.8218778327540122
    Total Energy =                       -212.7794749612602914
  Basis Set: (AUG-CC-PVTZ AUX)
    Blend: AUG-CC-PVTZ-RI
    Molecular point group: c1

    Geometry (in Angstrom), charge = 1, multiplicity = 1:

       Center              X                  Y                   Z               Mass
    ------------   -----------------  -----------------  -----------------  -----------------
         N           -0.000011914855     0.275487770612     0.000541420002    14.003074004430
         C            1.262788085145    -0.539959229388     0.029810420002    12.000000000000
         C           -1.262811914855    -0.539959229388    -0.028727579998    12.000000000000
         C            2.483513085145     0.357873770612    -0.011967579998    12.000000000000
         C           -2.483536914855     0.357873770612     0.013050420002    12.000000000000
         H           -0.017154914855     0.867363670612     0.779547320002     1.007825032230
         H            0.018007085145     0.897607770612    -0.818270579998     1.007825032230
         H            1.221340085145    -1.135655229388     0.942327420002     1.007825032230
         H            1.216576085145    -1.207430229388    -0.831337579998     1.007825032230
         H           -1.221363914855    -1.135655229388    -0.941244579998     1.007825032230
         H           -1.216599914855    -1.207430229388     0.832420420002     1.007825032230
         H            3.379091085145    -0.266200229388     0.014900420002     1.007825032230
         H            2.508795085145     0.949330770612    -0.930387579998     1.007825032230
         H            2.512249085145     1.031667770612     0.847663420002     1.007825032230
         H           -3.379114914855    -0.266200229388    -0.013817579998     1.007825032230
         H           -2.508818914855     0.949330770612     0.931470420002     1.007825032230
         H           -2.512272914855     1.031667770612    -0.846580579998     1.007825032230

  Basis Set: AUG-CC-PVTZ
    Blend: AUG-CC-PVTZ
  Basis Set: (AUG-CC-PVTZ AUX)
    Blend: AUG-CC-PVTZ-JKFIT
	 Reference Energy          =    -212.7794749612603198 [Eh]
	 Singles Energy            =      -0.0000000000000000 [Eh]
	 Same-Spin Energy          =      -0.2153105688904031 [Eh]
	 Opposite-Spin Energy      =      -0.8082572427649907 [Eh]
	 Correlation Energy        =      -1.0235678116553937 [Eh]
	 Total Energy              =    -213.8030427729157168 [Eh]

	 ================> DF-SCS-MP2 Energies <==================
	-----------------------------------------------------------
	 SCS Same-Spin Scale       =       0.3333333333333333 [-]
	 SCS Opposite-Spin Scale   =       1.2000000000000000 [-]
	 SCS Same-Spin Energy      =      -0.0717701896301343 [Eh]
	 SCS Opposite-Spin Energy  =      -0.9699086913179887 [Eh]
	 SCS Correlation Energy    =      -1.0416788809481230 [Eh]
	 SCS Total Energy          =    -213.8211538422084459 [Eh]
	-----------------------------------------------------------

  Dipole Moment: [D]
     X:     0.0014      Y:     0.5148      Z:    -0.0417     Total:     0.5165

*** Psi4 exiting successfully. Buy a developer a beer!
