                               Psi4 1.4a3.dev225

  ==> Input File <==

--------------------------------------------------------------------------
#psi4
#
memory 32 gb

molecule  {
1 1
  N        0.0000000     0.2689290     0.0000000
  C        1.2628000    -0.5465180     0.0292690
  C       -1.2628000    -0.5465180    -0.0292690
  C        2.4835250     0.3513150    -0.0125090
  C       -2.4835250     0.3513150     0.0125090
  H       -0.0183694     0.9031466     0.8347345
  H        0.0180190     0.8910490    -0.8188120
  H        1.2213520    -1.1422140     0.9417860
  H        1.2165880    -1.2139890    -0.8318790
  H       -1.2213520    -1.1422140    -0.9417860
  H       -1.2165880    -1.2139890     0.8318790
  H        3.3791030    -0.2727590     0.0143590
  H        2.5088070     0.9427720    -0.9309290
  H        2.5122610     1.0251090     0.8471220
  H       -3.3791030    -0.2727590    -0.0143590
  H       -2.5088070     0.9427720     0.9309290
  H       -2.5122610     1.0251090    -0.8471220
units angstrom
no_reorient  #important for SAPT in psi4, default
symmetry c1  #important for SAPT in psi4, default
}

set PROPERTIES_ORIGIN ["COM"]
properties('MP2/aug-cc-pvtz', properties = ['dipole'])
--------------------------------------------------------------------------

    Molecular point group: c1
  Charge       = 1
  Multiplicity = 1
  Basis Set: AUG-CC-PVTZ
    Blend: AUG-CC-PVTZ
  Basis Set: (AUG-CC-PVTZ AUX)
    Blend: AUG-CC-PVTZ-JKFIT

    Orbital Energies [Eh]
    ---------------------

    Doubly Occupied:

       1A    -15.871573     2A    -11.463794     3A    -11.463780
       4A    -11.391220     5A    -11.391211     6A     -1.497745
       7A     -1.236144     8A     -1.176394     9A     -1.059710
      10A     -1.032198    11A     -0.962946    12A     -0.851212
      13A     -0.834387    14A     -0.802908    15A     -0.772826
      16A     -0.739333    17A     -0.702832    18A     -0.701483
      19A     -0.687872    20A     -0.683811    21A     -0.679188

  @DF-RHF Final Energy:  -212.77873800747969

   => Energetics <=

    Nuclear Repulsion Energy =            197.7529852823335830
    One-Electron Energy =                -669.0583106648006151
    Two-Electron Energy =                 258.5265873749873435
    Total Energy =                       -212.7787380074796602
  Basis Set: (AUG-CC-PVTZ AUX)
    Blend: AUG-CC-PVTZ-RI
    Molecular point group: c1

    Geometry (in Angstrom), charge = 1, multiplicity = 1:

       Center              X                  Y                   Z               Mass
    ------------   -----------------  -----------------  -----------------  -----------------
         N            0.000004765942     0.274911862817    -0.000216568817    14.003074004430
         C            1.262804765942    -0.540535137183     0.029052431183    12.000000000000
         C           -1.262795234058    -0.540535137183    -0.029485568817    12.000000000000
         C            2.483529765942     0.357297862817    -0.012725568817    12.000000000000
         C           -2.483520234058     0.357297862817     0.012292431183    12.000000000000
         H           -0.018364634058     0.909129462817     0.834517931183     1.007825032230
         H            0.018023765942     0.897031862817    -0.819028568817     1.007825032230
         H            1.221356765942    -1.136231137183     0.941569431183     1.007825032230
         H            1.216592765942    -1.208006137183    -0.832095568817     1.007825032230
         H           -1.221347234058    -1.136231137183    -0.942002568817     1.007825032230
         H           -1.216583234058    -1.208006137183     0.831662431183     1.007825032230
         H            3.379107765942    -0.266776137183     0.014142431183     1.007825032230
         H            2.508811765942     0.948754862817    -0.931145568817     1.007825032230
         H            2.512265765942     1.031091862817     0.846905431183     1.007825032230
         H           -3.379098234058    -0.266776137183    -0.014575568817     1.007825032230
         H           -2.508802234058     0.948754862817     0.930712431183     1.007825032230
         H           -2.512256234058     1.031091862817    -0.847338568817     1.007825032230

  Basis Set: AUG-CC-PVTZ
    Blend: AUG-CC-PVTZ
  Basis Set: (AUG-CC-PVTZ AUX)
    Blend: AUG-CC-PVTZ-JKFIT
	 Reference Energy          =    -212.7787380074796886 [Eh]
	 Singles Energy            =      -0.0000000000000000 [Eh]
	 Same-Spin Energy          =      -0.2157728285401851 [Eh]
	 Opposite-Spin Energy      =      -0.8095199700704284 [Eh]
	 Correlation Energy        =      -1.0252927986106135 [Eh]
	 Total Energy              =    -213.8040308060903101 [Eh]

	 ================> DF-SCS-MP2 Energies <==================
	-----------------------------------------------------------
	 SCS Same-Spin Scale       =       0.3333333333333333 [-]
	 SCS Opposite-Spin Scale   =       1.2000000000000000 [-]
	 SCS Same-Spin Energy      =      -0.0719242761800617 [Eh]
	 SCS Opposite-Spin Energy  =      -0.9714239640845140 [Eh]
	 SCS Correlation Energy    =      -1.0433482402645757 [Eh]
	 SCS Total Energy          =    -213.8220862477442665 [Eh]
	-----------------------------------------------------------

  Dipole Moment: [D]
     X:    -0.0006      Y:     0.5571      Z:     0.0169     Total:     0.5574

*** Psi4 exiting successfully. Buy a developer a beer!
