                               Psi4 1.3.2 release

  ==> Input File <==

--------------------------------------------------------------------------
#psi4
#
memory 32 gb

molecule  {
1 1
  N       -0.0000030    -0.2590690    -0.0002410
  C        1.4446305     0.6576295    -0.0003656
  C       -1.2757460     0.5504610     0.0003700
  C        2.4891350    -0.3592320     0.0002730
  C       -2.4891440    -0.3592250    -0.0000420
  H       -0.0002290    -0.8829120    -0.8192120
  H        0.0002430    -0.8834350     0.8183340
  H        1.2343010     1.1850200    -0.8878530
  H        1.2339840     1.1857900     0.8865850
  H       -1.2340510     1.1848610     0.8879670
  H       -1.2342230     1.1859370    -0.8864660
  H        3.3917400     0.2556770    -0.0001140
  H        2.5206350    -0.9914160     0.8916960
  H        2.5206970    -0.9925990    -0.8903100
  H       -3.3917370     0.2557000     0.0002190
  H       -2.5206840    -0.9916000    -0.8913310
  H       -2.5206850    -0.9924050     0.8906710
units angstrom
no_reorient  #important for SAPT in psi4, default
symmetry c1  #important for SAPT in psi4, default
}

set PROPERTIES_ORIGIN ["COM"]
properties('MP2/aug-cc-pvtz', properties = ['dipole'])
--------------------------------------------------------------------------

    Molecular point group: c1
  Charge       = 1
  Multiplicity = 1
  Basis Set: AUG-CC-PVTZ
    Blend: AUG-CC-PVTZ
  Basis Set: (AUG-CC-PVTZ AUX)
    Blend: AUG-CC-PVTZ-JKFIT

    Orbital Energies [Eh]
    ---------------------

    Doubly Occupied:

       1A    -15.842110     2A    -11.482804     3A    -11.454189
       4A    -11.397385     5A    -11.383018     6A     -1.453202
       7A     -1.243681     8A     -1.178272     9A     -1.053318
      10A     -1.026485    11A     -0.937194    12A     -0.826044
      13A     -0.824505    14A     -0.805882    15A     -0.770960
      16A     -0.751191    17A     -0.730736    18A     -0.701315
      19A     -0.691288    20A     -0.674017    21A     -0.654113

  @DF-RHF Final Energy:  -212.75470774665803

   => Energetics <=

    Nuclear Repulsion Energy =            195.2450494637621432
    One-Electron Energy =                -664.2360981598740182
    Two-Electron Energy =                 256.2363409494538473
    Total Energy =                       -212.7547077466580276
  Basis Set: (AUG-CC-PVTZ AUX)
    Blend: AUG-CC-PVTZ-RI
    Molecular point group: c1

    Geometry (in Angstrom), charge = 1, multiplicity = 1:

       Center              X                  Y                   Z               Mass
    ------------   -----------------  -----------------  -----------------  -----------------
         N           -0.027351686461    -0.282857971217    -0.000236107960    14.003074004430
         C            1.417281813539     0.633840528783    -0.000360707960    12.000000000000
         C           -1.303094686461     0.526672028783     0.000374892040    12.000000000000
         C            2.461786313539    -0.383020971217     0.000277892040    12.000000000000
         C           -2.516492686461    -0.383013971217    -0.000037107960    12.000000000000
         H           -0.027577686461    -0.906700971217    -0.819207107960     1.007825032230
         H           -0.027105686461    -0.907223971217     0.818338892040     1.007825032230
         H            1.206952313539     1.161231028783    -0.887848107960     1.007825032230
         H            1.206635313539     1.162001028783     0.886589892040     1.007825032230
         H           -1.261399686461     1.161072028783     0.887971892040     1.007825032230
         H           -1.261571686461     1.162148028783    -0.886461107960     1.007825032230
         H            3.364391313539     0.231888028783    -0.000109107960     1.007825032230
         H            2.493286313539    -1.015204971217     0.891700892040     1.007825032230
         H            2.493348313539    -1.016387971217    -0.890305107960     1.007825032230
         H           -3.419085686461     0.231911028783     0.000223892040     1.007825032230
         H           -2.548032686461    -1.015388971217    -0.891326107960     1.007825032230
         H           -2.548033686461    -1.016193971217     0.890675892040     1.007825032230

  Basis Set: AUG-CC-PVTZ
    Blend: AUG-CC-PVTZ
  Basis Set: (AUG-CC-PVTZ AUX)
    Blend: AUG-CC-PVTZ-JKFIT
	 Reference Energy          =    -212.7547077466580276 [Eh]
	 Singles Energy            =      -0.0000000000000000 [Eh]
	 Same-Spin Energy          =      -0.2157117513163276 [Eh]
	 Opposite-Spin Energy      =      -0.8107941556136866 [Eh]
	 Correlation Energy        =      -1.0265059069300142 [Eh]
	 Total Energy              =    -213.7812136535880541 [Eh]

	 ================> DF-SCS-MP2 Energies <==================
	-----------------------------------------------------------
	 SCS Same-Spin Scale       =       0.3333333333333333 [-]
	 SCS Opposite-Spin Scale   =       1.2000000000000000 [-]
	 SCS Same-Spin Energy      =      -0.0719039171054425 [Eh]
	 SCS Opposite-Spin Energy  =      -0.9729529867364239 [Eh]
	 SCS Correlation Energy    =      -1.0448569038418665 [Eh]
	 SCS Total Energy          =    -213.7995646504998888 [Eh]
	-----------------------------------------------------------

  Dipole Moment: [D]
     X:     0.6287      Y:    -0.3870      Z:    -0.0007     Total:     0.7382

*** Psi4 exiting successfully. Buy a developer a beer!
