                               Psi4 1.3.2 release

  ==> Input File <==

--------------------------------------------------------------------------
#psi4
#
memory 32 gb

molecule  {
1 1
  N       -0.0142667    -0.2348789    -0.0448816
  C        1.2757600     0.5504720    -0.0003510
  C       -1.2757460     0.5504610     0.0003700
  C        2.4891350    -0.3592320     0.0002730
  C       -2.4891440    -0.3592250    -0.0000420
  H       -0.0002290    -0.8829120    -0.8192120
  H        0.0002430    -0.8834350     0.8183340
  H        1.2343010     1.1850200    -0.8878530
  H        1.2339840     1.1857900     0.8865850
  H       -1.2340510     1.1848610     0.8879670
  H       -1.2342230     1.1859370    -0.8864660
  H        3.3917400     0.2556770    -0.0001140
  H        2.5206350    -0.9914160     0.8916960
  H        2.5206970    -0.9925990    -0.8903100
  H       -3.3917370     0.2557000     0.0002190
  H       -2.5206840    -0.9916000    -0.8913310
  H       -2.5206850    -0.9924050     0.8906710
units angstrom
no_reorient  #important for SAPT in psi4, default
symmetry c1  #important for SAPT in psi4, default
}

set PROPERTIES_ORIGIN ["COM"]
properties('MP2/aug-cc-pvtz', properties = ['dipole'])
--------------------------------------------------------------------------

    Molecular point group: c1
  Charge       = 1
  Multiplicity = 1
  Basis Set: AUG-CC-PVTZ
    Blend: AUG-CC-PVTZ
  Basis Set: (AUG-CC-PVTZ AUX)
    Blend: AUG-CC-PVTZ-JKFIT

    Orbital Energies [Eh]
    ---------------------

    Doubly Occupied:

       1A    -15.872107     2A    -11.465637     3A    -11.462926
       4A    -11.392748     5A    -11.391277     6A     -1.498237
       7A     -1.236894     8A     -1.175597     9A     -1.059907
      10A     -1.035296    11A     -0.957362    12A     -0.851570
      13A     -0.835713    14A     -0.802451    15A     -0.768730
      16A     -0.738417    17A     -0.702433    18A     -0.701046
      19A     -0.687112    20A     -0.685983    21A     -0.679185

  @DF-RHF Final Energy:  -212.77526205176139

   => Energetics <=

    Nuclear Repulsion Energy =            197.4363008339557553
    One-Electron Energy =                -668.4218701509521452
    Two-Electron Energy =                 258.2103072652349738
    Total Energy =                       -212.7752620517613877
  Basis Set: (AUG-CC-PVTZ AUX)
    Blend: AUG-CC-PVTZ-RI
    Molecular point group: c1

    Geometry (in Angstrom), charge = 1, multiplicity = 1:

       Center              X                  Y                   Z               Mass
    ------------   -----------------  -----------------  -----------------  -----------------
         N           -0.011571222513    -0.245885240789    -0.036442754610    14.003074004430
         C            1.278455477487     0.539465659211     0.008087845390    12.000000000000
         C           -1.273050522513     0.539454659211     0.008808845390    12.000000000000
         C            2.491830477487    -0.370238340789     0.008711845390    12.000000000000
         C           -2.486448522513    -0.370231340789     0.008396845390    12.000000000000
         H            0.002466477487    -0.893918340789    -0.810773154610     1.007825032230
         H            0.002938477487    -0.894441340789     0.826772845390     1.007825032230
         H            1.236996477487     1.174013659211    -0.879414154610     1.007825032230
         H            1.236679477487     1.174783659211     0.895023845390     1.007825032230
         H           -1.231355522513     1.173854659211     0.896405845390     1.007825032230
         H           -1.231527522513     1.174930659211    -0.878027154610     1.007825032230
         H            3.394435477487     0.244670659211     0.008324845390     1.007825032230
         H            2.523330477487    -1.002422340789     0.900134845390     1.007825032230
         H            2.523392477487    -1.003605340789    -0.881871154610     1.007825032230
         H           -3.389041522513     0.244693659211     0.008657845390     1.007825032230
         H           -2.517988522513    -1.002606340789    -0.882892154610     1.007825032230
         H           -2.517989522513    -1.003411340789     0.899109845390     1.007825032230

  Basis Set: AUG-CC-PVTZ
    Blend: AUG-CC-PVTZ
  Basis Set: (AUG-CC-PVTZ AUX)
    Blend: AUG-CC-PVTZ-JKFIT
	 Reference Energy          =    -212.7752620517613877 [Eh]
	 Singles Energy            =      -0.0000000000000000 [Eh]
	 Same-Spin Energy          =      -0.2159323937213816 [Eh]
	 Opposite-Spin Energy      =      -0.8098051229924086 [Eh]
	 Correlation Energy        =      -1.0257375167137901 [Eh]
	 Total Energy              =    -213.8009995684751914 [Eh]

	 ================> DF-SCS-MP2 Energies <==================
	-----------------------------------------------------------
	 SCS Same-Spin Scale       =       0.3333333333333333 [-]
	 SCS Opposite-Spin Scale   =       1.2000000000000000 [-]
	 SCS Same-Spin Energy      =      -0.0719774645737939 [Eh]
	 SCS Opposite-Spin Energy  =      -0.9717661475908903 [Eh]
	 SCS Correlation Energy    =      -1.0437436121646841 [Eh]
	 SCS Total Energy          =    -213.8190056639260774 [Eh]
	-----------------------------------------------------------

  Dipole Moment: [D]
     X:     0.0547      Y:    -0.5670      Z:     0.0560     Total:     0.5724

*** Psi4 exiting successfully. Buy a developer a beer!
