                               Psi4 1.3.2 release

  ==> Input File <==

--------------------------------------------------------------------------
#psi4
#
memory 32 gb

molecule  {
1 1
  N        0.0916058    -0.3879878    -0.0001678
  C        1.2757600     0.5504720    -0.0003510
  C       -1.2757460     0.5504610     0.0003700
  C        2.4891350    -0.3592320     0.0002730
  C       -2.4891440    -0.3592250    -0.0000420
  H       -0.0002290    -0.8829120    -0.8192120
  H        0.0002430    -0.8834350     0.8183340
  H        1.2343010     1.1850200    -0.8878530
  H        1.2339840     1.1857900     0.8865850
  H       -1.2340510     1.1848610     0.8879670
  H       -1.2342230     1.1859370    -0.8864660
  H        3.3917400     0.2556770    -0.0001140
  H        2.5206350    -0.9914160     0.8916960
  H        2.5206970    -0.9925990    -0.8903100
  H       -3.3917370     0.2557000     0.0002190
  H       -2.5206840    -0.9916000    -0.8913310
  H       -2.5206850    -0.9924050     0.8906710
units angstrom
no_reorient  #important for SAPT in psi4, default
symmetry c1  #important for SAPT in psi4, default
}

set PROPERTIES_ORIGIN ["COM"]
properties('MP2/aug-cc-pvtz', properties = ['dipole'])
--------------------------------------------------------------------------

    Molecular point group: c1
  Charge       = 1
  Multiplicity = 1
  Basis Set: AUG-CC-PVTZ
    Blend: AUG-CC-PVTZ
  Basis Set: (AUG-CC-PVTZ AUX)
    Blend: AUG-CC-PVTZ-JKFIT

    Orbital Energies [Eh]
    ---------------------

    Doubly Occupied:

       1A    -15.853157     2A    -11.479615     3A    -11.463220
       4A    -11.394638     5A    -11.384417     6A     -1.489319
       7A     -1.227636     8A     -1.184853     9A     -1.054773
      10A     -1.021245    11A     -0.993262    12A     -0.846665
      13A     -0.812732    14A     -0.804353    15A     -0.787779
      16A     -0.741892    17A     -0.707616    18A     -0.699959
      19A     -0.690754    20A     -0.677972    21A     -0.661548

  @DF-RHF Final Energy:  -212.75893297194719

   => Energetics <=

    Nuclear Repulsion Energy =            196.2590799371058665
    One-Electron Energy =                -666.0812175923892937
    Two-Electron Energy =                 257.0632046833362665
    Total Energy =                       -212.7589329719471607
  Basis Set: (AUG-CC-PVTZ AUX)
    Blend: AUG-CC-PVTZ-RI
    Molecular point group: c1

    Geometry (in Angstrom), charge = 1, multiplicity = 1:

       Center              X                  Y                   Z               Mass
    ------------   -----------------  -----------------  -----------------  -----------------
         N            0.074293166971    -0.370059150189    -0.000179105990    14.003074004430
         C            1.258447366971     0.568400649811    -0.000362305990    12.000000000000
         C           -1.293058633029     0.568389649811     0.000358694010    12.000000000000
         C            2.471822366971    -0.341303350189     0.000261694010    12.000000000000
         C           -2.506456633029    -0.341296350189    -0.000053305990    12.000000000000
         H           -0.017541633029    -0.864983350189    -0.819223305990     1.007825032230
         H           -0.017069633029    -0.865506350189     0.818322694010     1.007825032230
         H            1.216988366971     1.202948649811    -0.887864305990     1.007825032230
         H            1.216671366971     1.203718649811     0.886573694010     1.007825032230
         H           -1.251363633029     1.202789649811     0.887955694010     1.007825032230
         H           -1.251535633029     1.203865649811    -0.886477305990     1.007825032230
         H            3.374427366971     0.273605649811    -0.000125305990     1.007825032230
         H            2.503322366971    -0.973487350189     0.891684694010     1.007825032230
         H            2.503384366971    -0.974670350189    -0.890321305990     1.007825032230
         H           -3.409049633029     0.273628649811     0.000207694010     1.007825032230
         H           -2.537996633029    -0.973671350189    -0.891342305990     1.007825032230
         H           -2.537997633029    -0.974476350189     0.890659694010     1.007825032230

  Basis Set: AUG-CC-PVTZ
    Blend: AUG-CC-PVTZ
  Basis Set: (AUG-CC-PVTZ AUX)
    Blend: AUG-CC-PVTZ-JKFIT
	 Reference Energy          =    -212.7589329719471891 [Eh]
	 Singles Energy            =      -0.0000000000000000 [Eh]
	 Same-Spin Energy          =      -0.2147091378393608 [Eh]
	 Opposite-Spin Energy      =      -0.8091356215485102 [Eh]
	 Correlation Energy        =      -1.0238447593878710 [Eh]
	 Total Energy              =    -213.7827777313350737 [Eh]

	 ================> DF-SCS-MP2 Energies <==================
	-----------------------------------------------------------
	 SCS Same-Spin Scale       =       0.3333333333333333 [-]
	 SCS Opposite-Spin Scale   =       1.2000000000000000 [-]
	 SCS Same-Spin Energy      =      -0.0715697126131203 [Eh]
	 SCS Opposite-Spin Energy  =      -0.9709627458582122 [Eh]
	 SCS Correlation Energy    =      -1.0425324584713325 [Eh]
	 SCS Total Energy          =    -213.8014654304185171 [Eh]
	-----------------------------------------------------------

  Dipole Moment: [D]
     X:    -0.3807      Y:    -0.2481      Z:    -0.0008     Total:     0.4545

*** Psi4 exiting successfully. Buy a developer a beer!
