                               Psi4 1.3.2 release

  ==> Input File <==

--------------------------------------------------------------------------
#psi4
#
memory 32 gb

molecule  {
1 1
  N       -0.0000030    -0.2590690    -0.0002410
  C        1.3031890     0.5003649    -0.0890027
  C       -1.2757460     0.5504610     0.0003700
  C        2.4891350    -0.3592320     0.0002730
  C       -2.4891440    -0.3592250    -0.0000420
  H       -0.0002290    -0.8829120    -0.8192120
  H        0.0002430    -0.8834350     0.8183340
  H        1.2343010     1.1850200    -0.8878530
  H        1.2339840     1.1857900     0.8865850
  H       -1.2340510     1.1848610     0.8879670
  H       -1.2342230     1.1859370    -0.8864660
  H        3.3917400     0.2556770    -0.0001140
  H        2.5206350    -0.9914160     0.8916960
  H        2.5206970    -0.9925990    -0.8903100
  H       -3.3917370     0.2557000     0.0002190
  H       -2.5206840    -0.9916000    -0.8913310
  H       -2.5206850    -0.9924050     0.8906710
units angstrom
no_reorient  #important for SAPT in psi4, default
symmetry c1  #important for SAPT in psi4, default
}

set PROPERTIES_ORIGIN ["COM"]
properties('MP2/aug-cc-pvtz', properties = ['dipole'])
--------------------------------------------------------------------------

    Molecular point group: c1
  Charge       = 1
  Multiplicity = 1
  Basis Set: AUG-CC-PVTZ
    Blend: AUG-CC-PVTZ
  Basis Set: (AUG-CC-PVTZ AUX)
    Blend: AUG-CC-PVTZ-JKFIT

    Orbital Energies [Eh]
    ---------------------

    Doubly Occupied:

       1A    -15.869976     2A    -11.468749     3A    -11.466036
       4A    -11.392141     5A    -11.390349     6A     -1.497063
       7A     -1.241421     8A     -1.181878     9A     -1.056223
      10A     -1.033127    11A     -0.961974    12A     -0.853549
      13A     -0.834173    14A     -0.798540    15A     -0.770512
      16A     -0.747933    17A     -0.713215    18A     -0.702065
      19A     -0.688440    20A     -0.683969    21A     -0.658771

  @DF-RHF Final Energy:  -212.76672454039550

   => Energetics <=

    Nuclear Repulsion Energy =            197.5037280660609156
    One-Electron Energy =                -668.5206933033103951
    Two-Electron Energy =                 258.2502406968539503
    Total Energy =                       -212.7667245403955008
  Basis Set: (AUG-CC-PVTZ AUX)
    Blend: AUG-CC-PVTZ-RI
    Molecular point group: c1

    Geometry (in Angstrom), charge = 1, multiplicity = 1:

       Center              X                  Y                   Z               Mass
    ------------   -----------------  -----------------  -----------------  -----------------
         N           -0.004445245086    -0.257388979865     0.014118664401    14.003074004430
         C            1.298746754914     0.502044920135    -0.074643035599    12.000000000000
         C           -1.280188245086     0.552141020135     0.014729664401    12.000000000000
         C            2.484692754914    -0.357551979865     0.014632664401    12.000000000000
         C           -2.493586245086    -0.357544979865     0.014317664401    12.000000000000
         H           -0.004671245086    -0.881231979865    -0.804852335599     1.007825032230
         H           -0.004199245086    -0.881754979865     0.832693664401     1.007825032230
         H            1.229858754914     1.186700020135    -0.873493335599     1.007825032230
         H            1.229541754914     1.187470020135     0.900944664401     1.007825032230
         H           -1.238493245086     1.186541020135     0.902326664401     1.007825032230
         H           -1.238665245086     1.187617020135    -0.872106335599     1.007825032230
         H            3.387297754914     0.257357020135     0.014245664401     1.007825032230
         H            2.516192754914    -0.989735979865     0.906055664401     1.007825032230
         H            2.516254754914    -0.990918979865    -0.875950335599     1.007825032230
         H           -3.396179245086     0.257380020135     0.014578664401     1.007825032230
         H           -2.525126245086    -0.989919979865    -0.876971335599     1.007825032230
         H           -2.525127245086    -0.990724979865     0.905030664401     1.007825032230

  Basis Set: AUG-CC-PVTZ
    Blend: AUG-CC-PVTZ
  Basis Set: (AUG-CC-PVTZ AUX)
    Blend: AUG-CC-PVTZ-JKFIT
	 Reference Energy          =    -212.7667245403955008 [Eh]
	 Singles Energy            =      -0.0000000000000000 [Eh]
	 Same-Spin Energy          =      -0.2162121546359242 [Eh]
	 Opposite-Spin Energy      =      -0.8102446249913313 [Eh]
	 Correlation Energy        =      -1.0264567796272555 [Eh]
	 Total Energy              =    -213.7931813200227680 [Eh]

	 ================> DF-SCS-MP2 Energies <==================
	-----------------------------------------------------------
	 SCS Same-Spin Scale       =       0.3333333333333333 [-]
	 SCS Opposite-Spin Scale   =       1.2000000000000000 [-]
	 SCS Same-Spin Energy      =      -0.0720707182119747 [Eh]
	 SCS Opposite-Spin Energy  =      -0.9722935499895975 [Eh]
	 SCS Correlation Energy    =      -1.0443642682015721 [Eh]
	 SCS Total Energy          =    -213.8110888085970771 [Eh]
	-----------------------------------------------------------

  Dipole Moment: [D]
     X:     0.0041      Y:    -0.5383      Z:    -0.0010     Total:     0.5384

*** Psi4 exiting successfully. Buy a developer a beer!
