                               Psi4 1.3.2 release

  ==> Input File <==

--------------------------------------------------------------------------
#psi4
#
memory 32 gb

molecule  {
1 1
  N       -0.0000030    -0.2590690    -0.0002410
  C        1.2679257     0.5623916     0.0218289
  C       -1.2757460     0.5504610     0.0003700
  C        2.4891350    -0.3592320     0.0002730
  C       -2.4891440    -0.3592250    -0.0000420
  H       -0.0002290    -0.8829120    -0.8192120
  H        0.0002430    -0.8834350     0.8183340
  H        1.2343010     1.1850200    -0.8878530
  H        1.2339840     1.1857900     0.8865850
  H       -1.2340510     1.1848610     0.8879670
  H       -1.2342230     1.1859370    -0.8864660
  H        3.3917400     0.2556770    -0.0001140
  H        2.5206350    -0.9914160     0.8916960
  H        2.5206970    -0.9925990    -0.8903100
  H       -3.3917370     0.2557000     0.0002190
  H       -2.5206840    -0.9916000    -0.8913310
  H       -2.5206850    -0.9924050     0.8906710
units angstrom
no_reorient  #important for SAPT in psi4, default
symmetry c1  #important for SAPT in psi4, default
}

set PROPERTIES_ORIGIN ["COM"]
properties('MP2/aug-cc-pvtz', properties = ['dipole'])
--------------------------------------------------------------------------

    Molecular point group: c1
  Charge       = 1
  Multiplicity = 1
  Basis Set: AUG-CC-PVTZ
    Blend: AUG-CC-PVTZ
  Basis Set: (AUG-CC-PVTZ AUX)
    Blend: AUG-CC-PVTZ-JKFIT

    Orbital Energies [Eh]
    ---------------------

    Doubly Occupied:

       1A    -15.869653     2A    -11.464924     3A    -11.464619
       4A    -11.392066     5A    -11.391398     6A     -1.496346
       7A     -1.233755     8A     -1.175614     9A     -1.059619
      10A     -1.032750    11A     -0.963613    12A     -0.849600
      13A     -0.834086    14A     -0.802770    15A     -0.773705
      16A     -0.737669    17A     -0.702640    18A     -0.701627
      19A     -0.688101    20A     -0.682071    21A     -0.679709

  @DF-RHF Final Energy:  -212.77889701495442

   => Energetics <=

    Nuclear Repulsion Energy =            197.1970408373221062
    One-Electron Energy =                -667.9592090160409725
    Two-Electron Energy =                 257.9832711637644707
    Total Energy =                       -212.7788970149543957
  Basis Set: (AUG-CC-PVTZ AUX)
    Blend: AUG-CC-PVTZ-RI
    Molecular point group: c1

    Geometry (in Angstrom), charge = 1, multiplicity = 1:

       Center              X                  Y                   Z               Mass
    ------------   -----------------  -----------------  -----------------  -----------------
         N            0.001265643969    -0.267434199742    -0.003830505736    14.003074004430
         C            1.269194343969     0.554026400258     0.018239394264    12.000000000000
         C           -1.274477356031     0.542095800258    -0.003219505736    12.000000000000
         C            2.490403643969    -0.367597199742    -0.003316505736    12.000000000000
         C           -2.487875356031    -0.367590199742    -0.003631505736    12.000000000000
         H            0.001039643969    -0.891277199742    -0.822801505736     1.007825032230
         H            0.001511643969    -0.891800199742     0.814744494264     1.007825032230
         H            1.235569643969     1.176654800258    -0.891442505736     1.007825032230
         H            1.235252643969     1.177424800258     0.882995494264     1.007825032230
         H           -1.232782356031     1.176495800258     0.884377494264     1.007825032230
         H           -1.232954356031     1.177571800258    -0.890055505736     1.007825032230
         H            3.393008643969     0.247311800258    -0.003703505736     1.007825032230
         H            2.521903643969    -0.999781199742     0.888106494264     1.007825032230
         H            2.521965643969    -1.000964199742    -0.893899505736     1.007825032230
         H           -3.390468356031     0.247334800258    -0.003370505736     1.007825032230
         H           -2.519415356031    -0.999965199742    -0.894920505736     1.007825032230
         H           -2.519416356031    -1.000770199742     0.887081494264     1.007825032230

  Basis Set: AUG-CC-PVTZ
    Blend: AUG-CC-PVTZ
  Basis Set: (AUG-CC-PVTZ AUX)
    Blend: AUG-CC-PVTZ-JKFIT
	 Reference Energy          =    -212.7788970149544241 [Eh]
	 Singles Energy            =      -0.0000000000000000 [Eh]
	 Same-Spin Energy          =      -0.2154283682176953 [Eh]
	 Opposite-Spin Energy      =      -0.8091381319027280 [Eh]
	 Correlation Energy        =      -1.0245665001204234 [Eh]
	 Total Energy              =    -213.8034635150748386 [Eh]

	 ================> DF-SCS-MP2 Energies <==================
	-----------------------------------------------------------
	 SCS Same-Spin Scale       =       0.3333333333333333 [-]
	 SCS Opposite-Spin Scale   =       1.2000000000000000 [-]
	 SCS Same-Spin Energy      =      -0.0718094560725651 [Eh]
	 SCS Opposite-Spin Energy  =      -0.9709657582832736 [Eh]
	 SCS Correlation Energy    =      -1.0427752143558386 [Eh]
	 SCS Total Energy          =    -213.8216722293102521 [Eh]
	-----------------------------------------------------------

  Dipole Moment: [D]
     X:    -0.0011      Y:    -0.5251      Z:    -0.0035     Total:     0.5251

*** Psi4 exiting successfully. Buy a developer a beer!
