                               Psi4 1.3.2 release

  ==> Input File <==

--------------------------------------------------------------------------
#psi4
#
memory 32 gb

molecule  {
1 1
  N       -0.0000030    -0.2590690    -0.0002410
  C        1.3032354     0.5054554    -0.0003727
  C       -1.2757460     0.5504610     0.0003700
  C        2.4891350    -0.3592320     0.0002730
  C       -2.4891440    -0.3592250    -0.0000420
  H       -0.0002290    -0.8829120    -0.8192120
  H        0.0002430    -0.8834350     0.8183340
  H        1.2343010     1.1850200    -0.8878530
  H        1.2339840     1.1857900     0.8865850
  H       -1.2340510     1.1848610     0.8879670
  H       -1.2342230     1.1859370    -0.8864660
  H        3.3917400     0.2556770    -0.0001140
  H        2.5206350    -0.9914160     0.8916960
  H        2.5206970    -0.9925990    -0.8903100
  H       -3.3917370     0.2557000     0.0002190
  H       -2.5206840    -0.9916000    -0.8913310
  H       -2.5206850    -0.9924050     0.8906710
units angstrom
no_reorient  #important for SAPT in psi4, default
symmetry c1  #important for SAPT in psi4, default
}

set PROPERTIES_ORIGIN ["COM"]
properties('MP2/aug-cc-pvtz', properties = ['dipole'])
--------------------------------------------------------------------------

    Molecular point group: c1
  Charge       = 1
  Multiplicity = 1
  Basis Set: AUG-CC-PVTZ
    Blend: AUG-CC-PVTZ
  Basis Set: (AUG-CC-PVTZ AUX)
    Blend: AUG-CC-PVTZ-JKFIT

    Orbital Energies [Eh]
    ---------------------

    Doubly Occupied:

       1A    -15.869413     2A    -11.467524     3A    -11.465907
       4A    -11.392052     5A    -11.389709     6A     -1.496636
       7A     -1.240949     8A     -1.181507     9A     -1.055377
      10A     -1.031799    11A     -0.962633    12A     -0.850133
      13A     -0.831749    14A     -0.800916    15A     -0.771792
      16A     -0.745772    17A     -0.706765    18A     -0.701459
      19A     -0.687788    20A     -0.684869    21A     -0.670962

  @DF-RHF Final Energy:  -212.77565278374567

   => Energetics <=

    Nuclear Repulsion Energy =            197.5013492958795780
    One-Electron Energy =                -668.5425788056821830
    Two-Electron Energy =                 258.2655767260569633
    Total Energy =                       -212.7756527837456701
  Basis Set: (AUG-CC-PVTZ AUX)
    Blend: AUG-CC-PVTZ-RI
    Molecular point group: c1

    Geometry (in Angstrom), charge = 1, multiplicity = 1:

       Center              X                  Y                   Z               Mass
    ------------   -----------------  -----------------  -----------------  -----------------
         N           -0.004452759563    -0.258213385996    -0.000234958115    14.003074004430
         C            1.298785640437     0.506311014004    -0.000366658115    12.000000000000
         C           -1.280195759563     0.551316614004     0.000376041885    12.000000000000
         C            2.484685240437    -0.358376385996     0.000279041885    12.000000000000
         C           -2.493593759563    -0.358369385996    -0.000035958115    12.000000000000
         H           -0.004678759563    -0.882056385996    -0.819205958115     1.007825032230
         H           -0.004206759563    -0.882579385996     0.818340041885     1.007825032230
         H            1.229851240437     1.185875614004    -0.887846958115     1.007825032230
         H            1.229534240437     1.186645614004     0.886591041885     1.007825032230
         H           -1.238500759563     1.185716614004     0.887973041885     1.007825032230
         H           -1.238672759563     1.186792614004    -0.886459958115     1.007825032230
         H            3.387290240437     0.256532614004    -0.000107958115     1.007825032230
         H            2.516185240437    -0.990560385996     0.891702041885     1.007825032230
         H            2.516247240437    -0.991743385996    -0.890303958115     1.007825032230
         H           -3.396186759563     0.256555614004     0.000225041885     1.007825032230
         H           -2.525133759563    -0.990744385996    -0.891324958115     1.007825032230
         H           -2.525134759563    -0.991549385996     0.890677041885     1.007825032230

  Basis Set: AUG-CC-PVTZ
    Blend: AUG-CC-PVTZ
  Basis Set: (AUG-CC-PVTZ AUX)
    Blend: AUG-CC-PVTZ-JKFIT
	 Reference Energy          =    -212.7756527837456701 [Eh]
	 Singles Energy            =      -0.0000000000000000 [Eh]
	 Same-Spin Energy          =      -0.2160352226881064 [Eh]
	 Opposite-Spin Energy      =      -0.8097412356374121 [Eh]
	 Correlation Energy        =      -1.0257764583255184 [Eh]
	 Total Energy              =    -213.8014292420711797 [Eh]

	 ================> DF-SCS-MP2 Energies <==================
	-----------------------------------------------------------
	 SCS Same-Spin Scale       =       0.3333333333333333 [-]
	 SCS Opposite-Spin Scale   =       1.2000000000000000 [-]
	 SCS Same-Spin Energy      =      -0.0720117408960355 [Eh]
	 SCS Opposite-Spin Energy  =      -0.9716894827648944 [Eh]
	 SCS Correlation Energy    =      -1.0437012236609298 [Eh]
	 SCS Total Energy          =    -213.8193540074065879 [Eh]
	-----------------------------------------------------------

  Dipole Moment: [D]
     X:     0.0064      Y:    -0.5248      Z:    -0.0006     Total:     0.5249

*** Psi4 exiting successfully. Buy a developer a beer!
