                               Psi4 1.3.2 release

  ==> Input File <==

--------------------------------------------------------------------------
#psi4
#
memory 32 gb

molecule  {
1 1
  N       -0.0000030    -0.2590690    -0.0002410
  C        1.2757600     0.5504720    -0.0003510
  C       -1.2757460     0.5504610     0.0003700
  C        2.4891350    -0.3592320     0.0002730
  C       -2.4891440    -0.3592250    -0.0000420
  H       -0.0002076    -0.9651003    -0.7495162
  H        0.0002430    -0.8834350     0.8183340
  H        1.2343010     1.1850200    -0.8878530
  H        1.2339840     1.1857900     0.8865850
  H       -1.2340510     1.1848610     0.8879670
  H       -1.2342230     1.1859370    -0.8864660
  H        3.3917400     0.2556770    -0.0001140
  H        2.5206350    -0.9914160     0.8916960
  H        2.5206970    -0.9925990    -0.8903100
  H       -3.3917370     0.2557000     0.0002190
  H       -2.5206840    -0.9916000    -0.8913310
  H       -2.5206850    -0.9924050     0.8906710
units angstrom
no_reorient  #important for SAPT in psi4, default
symmetry c1  #important for SAPT in psi4, default
}

set PROPERTIES_ORIGIN ["COM"]
properties('MP2/aug-cc-pvtz', properties = ['dipole'])
--------------------------------------------------------------------------

    Molecular point group: c1
  Charge       = 1
  Multiplicity = 1
  Basis Set: AUG-CC-PVTZ
    Blend: AUG-CC-PVTZ
  Basis Set: (AUG-CC-PVTZ AUX)
    Blend: AUG-CC-PVTZ-JKFIT

    Orbital Energies [Eh]
    ---------------------

    Doubly Occupied:

       1A    -15.869200     2A    -11.465442     3A    -11.465428
       4A    -11.391603     5A    -11.391601     6A     -1.496287
       7A     -1.234928     8A     -1.178188     9A     -1.062354
      10A     -1.032475    11A     -0.953024    12A     -0.849322
      13A     -0.838951    14A     -0.802102    15A     -0.770456
      16A     -0.739629    17A     -0.703088    18A     -0.702053
      19A     -0.687130    20A     -0.683958    21A     -0.679255

  @DF-RHF Final Energy:  -212.77820294954398

   => Energetics <=

    Nuclear Repulsion Energy =            197.2184442760637069
    One-Electron Energy =                -668.0003481993472860
    Two-Electron Energy =                 258.0037009737396261
    Total Energy =                       -212.7782029495439815
  Basis Set: (AUG-CC-PVTZ AUX)
    Blend: AUG-CC-PVTZ-RI
    Molecular point group: c1

    Geometry (in Angstrom), charge = 1, multiplicity = 1:

       Center              X                  Y                   Z               Mass
    ------------   -----------------  -----------------  -----------------  -----------------
         N           -0.000003411458    -0.264385942672    -0.001186435182    14.003074004430
         C            1.275759588542     0.545155057328    -0.001296435182    12.000000000000
         C           -1.275746411458     0.545144057328    -0.000575435182    12.000000000000
         C            2.489134588542    -0.364548942672    -0.000672435182    12.000000000000
         C           -2.489144411458    -0.364541942672    -0.000987435182    12.000000000000
         H           -0.000208011458    -0.970417242672    -0.750461635182     1.007825032230
         H            0.000242588542    -0.888751942672     0.817388564818     1.007825032230
         H            1.234300588542     1.179703057328    -0.888798435182     1.007825032230
         H            1.233983588542     1.180473057328     0.885639564818     1.007825032230
         H           -1.234051411458     1.179544057328     0.887021564818     1.007825032230
         H           -1.234223411458     1.180620057328    -0.887411435182     1.007825032230
         H            3.391739588542     0.250360057328    -0.001059435182     1.007825032230
         H            2.520634588542    -0.996732942672     0.890750564818     1.007825032230
         H            2.520696588542    -0.997915942672    -0.891255435182     1.007825032230
         H           -3.391737411458     0.250383057328    -0.000726435182     1.007825032230
         H           -2.520684411458    -0.996916942672    -0.892276435182     1.007825032230
         H           -2.520685411458    -0.997721942672     0.889725564818     1.007825032230

  Basis Set: AUG-CC-PVTZ
    Blend: AUG-CC-PVTZ
  Basis Set: (AUG-CC-PVTZ AUX)
    Blend: AUG-CC-PVTZ-JKFIT
	 Reference Energy          =    -212.7782029495439815 [Eh]
	 Singles Energy            =      -0.0000000000000000 [Eh]
	 Same-Spin Energy          =      -0.2155549513597063 [Eh]
	 Opposite-Spin Energy      =      -0.8092189101031564 [Eh]
	 Correlation Energy        =      -1.0247738614628625 [Eh]
	 Total Energy              =    -213.8029768110068574 [Eh]

	 ================> DF-SCS-MP2 Energies <==================
	-----------------------------------------------------------
	 SCS Same-Spin Scale       =       0.3333333333333333 [-]
	 SCS Opposite-Spin Scale   =       1.2000000000000000 [-]
	 SCS Same-Spin Energy      =      -0.0718516504532354 [Eh]
	 SCS Opposite-Spin Energy  =      -0.9710626921237876 [Eh]
	 SCS Correlation Energy    =      -1.0429143425770231 [Eh]
	 SCS Total Energy          =    -213.8211172921210164 [Eh]
	-----------------------------------------------------------

  Dipole Moment: [D]
     X:     0.0001      Y:    -0.5870      Z:     0.0590     Total:     0.5900

*** Psi4 exiting successfully. Buy a developer a beer!
