                               Psi4 1.3.2 release

  ==> Input File <==

--------------------------------------------------------------------------
#psi4
#
memory 32 gb

molecule  {
1 1
  N       -0.0000030    -0.2590690    -0.0002410
  C        1.2757600     0.5504720    -0.0003510
  C       -1.2757460     0.5504610     0.0003700
  C        2.4891350    -0.3592320     0.0002730
  C       -2.4891440    -0.3592250    -0.0000420
  H       -0.0002221    -0.9111136    -0.7969413
  H        0.0002430    -0.8834350     0.8183340
  H        1.2343010     1.1850200    -0.8878530
  H        1.2339840     1.1857900     0.8865850
  H       -1.2340510     1.1848610     0.8879670
  H       -1.2342230     1.1859370    -0.8864660
  H        3.3917400     0.2556770    -0.0001140
  H        2.5206350    -0.9914160     0.8916960
  H        2.5206970    -0.9925990    -0.8903100
  H       -3.3917370     0.2557000     0.0002190
  H       -2.5206840    -0.9916000    -0.8913310
  H       -2.5206850    -0.9924050     0.8906710
units angstrom
no_reorient  #important for SAPT in psi4, default
symmetry c1  #important for SAPT in psi4, default
}

set PROPERTIES_ORIGIN ["COM"]
properties('MP2/aug-cc-pvtz', properties = ['dipole'])
--------------------------------------------------------------------------

    Molecular point group: c1
  Charge       = 1
  Multiplicity = 1
  Basis Set: AUG-CC-PVTZ
    Blend: AUG-CC-PVTZ
  Basis Set: (AUG-CC-PVTZ AUX)
    Blend: AUG-CC-PVTZ-JKFIT

    Orbital Energies [Eh]
    ---------------------

    Doubly Occupied:

       1A    -15.869459     2A    -11.465222     3A    -11.465208
       4A    -11.391555     5A    -11.391553     6A     -1.496295
       7A     -1.235039     8A     -1.177243     9A     -1.059870
      10A     -1.032527    11A     -0.959969    12A     -0.849356
      13A     -0.835200    14A     -0.802306    15A     -0.772408
      16A     -0.739285    17A     -0.702342    18A     -0.701991
      19A     -0.687387    20A     -0.683954    21A     -0.679318

  @DF-RHF Final Energy:  -212.77941135658617

   => Energetics <=

    Nuclear Repulsion Energy =            197.2443946241942569
    One-Electron Energy =                -668.0526342441714860
    Two-Electron Energy =                 258.0288282633911194
    Total Energy =                       -212.7794113565861380
  Basis Set: (AUG-CC-PVTZ AUX)
    Blend: AUG-CC-PVTZ-RI
    Molecular point group: c1

    Geometry (in Angstrom), charge = 1, multiplicity = 1:

       Center              X                  Y                   Z               Mass
    ------------   -----------------  -----------------  -----------------  -----------------
         N           -0.000003214237    -0.265120239154    -0.000541385863    14.003074004430
         C            1.275759785763     0.544420760846    -0.000651385863    12.000000000000
         C           -1.275746214237     0.544409760846     0.000069614137    12.000000000000
         C            2.489134785763    -0.365283239154    -0.000027385863    12.000000000000
         C           -2.489144214237    -0.365276239154    -0.000342385863    12.000000000000
         H           -0.000222314237    -0.917164839154    -0.797241685863     1.007825032230
         H            0.000242785763    -0.889486239154     0.818033614137     1.007825032230
         H            1.234300785763     1.178968760846    -0.888153385863     1.007825032230
         H            1.233983785763     1.179738760846     0.886284614137     1.007825032230
         H           -1.234051214237     1.178809760846     0.887666614137     1.007825032230
         H           -1.234223214237     1.179885760846    -0.886766385863     1.007825032230
         H            3.391739785763     0.249625760846    -0.000414385863     1.007825032230
         H            2.520634785763    -0.997467239154     0.891395614137     1.007825032230
         H            2.520696785763    -0.998650239154    -0.890610385863     1.007825032230
         H           -3.391737214237     0.249648760846    -0.000081385863     1.007825032230
         H           -2.520684214237    -0.997651239154    -0.891631385863     1.007825032230
         H           -2.520685214237    -0.998456239154     0.890370614137     1.007825032230

  Basis Set: AUG-CC-PVTZ
    Blend: AUG-CC-PVTZ
  Basis Set: (AUG-CC-PVTZ AUX)
    Blend: AUG-CC-PVTZ-JKFIT
	 Reference Energy          =    -212.7794113565861664 [Eh]
	 Singles Energy            =      -0.0000000000000000 [Eh]
	 Same-Spin Energy          =      -0.2155212543610900 [Eh]
	 Opposite-Spin Energy      =      -0.8091753264532232 [Eh]
	 Correlation Energy        =      -1.0246965808143131 [Eh]
	 Total Energy              =    -213.8041079374004880 [Eh]

	 ================> DF-SCS-MP2 Energies <==================
	-----------------------------------------------------------
	 SCS Same-Spin Scale       =       0.3333333333333333 [-]
	 SCS Opposite-Spin Scale   =       1.2000000000000000 [-]
	 SCS Same-Spin Energy      =      -0.0718404181203633 [Eh]
	 SCS Opposite-Spin Energy  =      -0.9710103917438678 [Eh]
	 SCS Correlation Energy    =      -1.0428508098642313 [Eh]
	 SCS Total Energy          =    -213.8222621664504004 [Eh]
	-----------------------------------------------------------

  Dipole Moment: [D]
     X:     0.0001      Y:    -0.5449      Z:     0.0181     Total:     0.5452

*** Psi4 exiting successfully. Buy a developer a beer!
