                               Psi4 1.3.2 release

  ==> Input File <==

--------------------------------------------------------------------------
#psi4
#
memory 32 gb

molecule  {
1 1
  N       -0.0000030    -0.2590690    -0.0002410
  C        1.2757600     0.5504720    -0.0003510
  C       -1.2757460     0.5504610     0.0003700
  C        2.4891350    -0.3592320     0.0002730
  C       -2.4891440    -0.3592250    -0.0000420
  H       -0.0002356    -0.8539503    -0.8404849
  H        0.0002430    -0.8834350     0.8183340
  H        1.2343010     1.1850200    -0.8878530
  H        1.2339840     1.1857900     0.8865850
  H       -1.2340510     1.1848610     0.8879670
  H       -1.2342230     1.1859370    -0.8864660
  H        3.3917400     0.2556770    -0.0001140
  H        2.5206350    -0.9914160     0.8916960
  H        2.5206970    -0.9925990    -0.8903100
  H       -3.3917370     0.2557000     0.0002190
  H       -2.5206840    -0.9916000    -0.8913310
  H       -2.5206850    -0.9924050     0.8906710
units angstrom
no_reorient  #important for SAPT in psi4, default
symmetry c1  #important for SAPT in psi4, default
}

set PROPERTIES_ORIGIN ["COM"]
properties('MP2/aug-cc-pvtz', properties = ['dipole'])
--------------------------------------------------------------------------

    Molecular point group: c1
  Charge       = 1
  Multiplicity = 1
  Basis Set: AUG-CC-PVTZ
    Blend: AUG-CC-PVTZ
  Basis Set: (AUG-CC-PVTZ AUX)
    Blend: AUG-CC-PVTZ-JKFIT

    Orbital Energies [Eh]
    ---------------------

    Doubly Occupied:

       1A    -15.869605     2A    -11.465040     3A    -11.465026
       4A    -11.391512     5A    -11.391510     6A     -1.496477
       7A     -1.235167     8A     -1.176378     9A     -1.057440
      10A     -1.032592    11A     -0.966801    12A     -0.849385
      13A     -0.831540    14A     -0.802540    15A     -0.773988
      16A     -0.738941    17A     -0.701940    18A     -0.701584
      19A     -0.687526    20A     -0.683954    21A     -0.679395

  @DF-RHF Final Energy:  -212.77940321440303

   => Energetics <=

    Nuclear Repulsion Energy =            197.2746237388905115
    One-Electron Energy =                -668.1113730102244972
    Two-Electron Energy =                 258.0573460569309532
    Total Energy =                       -212.7794032144030325
  Basis Set: (AUG-CC-PVTZ AUX)
    Blend: AUG-CC-PVTZ-RI
    Molecular point group: c1

    Geometry (in Angstrom), charge = 1, multiplicity = 1:

       Center              X                  Y                   Z               Mass
    ------------   -----------------  -----------------  -----------------  -----------------
         N           -0.000003030618    -0.265897741949     0.000050869495    14.003074004430
         C            1.275759969382     0.543643258051    -0.000059130505    12.000000000000
         C           -1.275746030618     0.543632258051     0.000661869495    12.000000000000
         C            2.489134969382    -0.366060741949     0.000564869495    12.000000000000
         C           -2.489144030618    -0.366053741949     0.000249869495    12.000000000000
         H           -0.000235630618    -0.860779041949    -0.840193030505     1.007825032230
         H            0.000242969382    -0.890263741949     0.818625869495     1.007825032230
         H            1.234300969382     1.178191258051    -0.887561130505     1.007825032230
         H            1.233983969382     1.178961258051     0.886876869495     1.007825032230
         H           -1.234051030618     1.178032258051     0.888258869495     1.007825032230
         H           -1.234223030618     1.179108258051    -0.886174130505     1.007825032230
         H            3.391739969382     0.248848258051     0.000177869495     1.007825032230
         H            2.520634969382    -0.998244741949     0.891987869495     1.007825032230
         H            2.520696969382    -0.999427741949    -0.890018130505     1.007825032230
         H           -3.391737030618     0.248871258051     0.000510869495     1.007825032230
         H           -2.520684030618    -0.998428741949    -0.891039130505     1.007825032230
         H           -2.520685030618    -0.999233741949     0.890962869495     1.007825032230

  Basis Set: AUG-CC-PVTZ
    Blend: AUG-CC-PVTZ
  Basis Set: (AUG-CC-PVTZ AUX)
    Blend: AUG-CC-PVTZ-JKFIT
	 Reference Energy          =    -212.7794032144030325 [Eh]
	 Singles Energy            =      -0.0000000000000000 [Eh]
	 Same-Spin Energy          =      -0.2155363653072231 [Eh]
	 Opposite-Spin Energy      =      -0.8092200171925177 [Eh]
	 Correlation Energy        =      -1.0247563824997408 [Eh]
	 Total Energy              =    -213.8041595969027640 [Eh]

	 ================> DF-SCS-MP2 Energies <==================
	-----------------------------------------------------------
	 SCS Same-Spin Scale       =       0.3333333333333333 [-]
	 SCS Opposite-Spin Scale   =       1.2000000000000000 [-]
	 SCS Same-Spin Energy      =      -0.0718454551024077 [Eh]
	 SCS Opposite-Spin Energy  =      -0.9710640206310212 [Eh]
	 SCS Correlation Energy    =      -1.0429094757334290 [Eh]
	 SCS Total Energy          =    -213.8223126901364708 [Eh]
	-----------------------------------------------------------

  Dipole Moment: [D]
     X:     0.0001      Y:    -0.5012      Z:    -0.0183     Total:     0.5016

*** Psi4 exiting successfully. Buy a developer a beer!
