                               Psi4 1.3.2 release

  ==> Input File <==

--------------------------------------------------------------------------
#psi4
#
memory 32 gb

molecule  {
1 1
  N       -0.0380636    -0.1836587    -0.1339456
  C        1.2757600     0.5504720    -0.0003510
  C       -1.2757460     0.5504610     0.0003700
  C        2.4891350    -0.3592320     0.0002730
  C       -2.4891440    -0.3592250    -0.0000420
  H       -0.0002290    -0.8829120    -0.8192120
  H        0.0002430    -0.8834350     0.8183340
  H        1.2343010     1.1850200    -0.8878530
  H        1.2339840     1.1857900     0.8865850
  H       -1.2340510     1.1848610     0.8879670
  H       -1.2342230     1.1859370    -0.8864660
  H        3.3917400     0.2556770    -0.0001140
  H        2.5206350    -0.9914160     0.8916960
  H        2.5206970    -0.9925990    -0.8903100
  H       -3.3917370     0.2557000     0.0002190
  H       -2.5206840    -0.9916000    -0.8913310
  H       -2.5206850    -0.9924050     0.8906710
units angstrom
no_reorient  #important for SAPT in psi4, default
symmetry c1  #important for SAPT in psi4, default
}

set PROPERTIES_ORIGIN ["COM"]
properties('MP2/aug-cc-pvtz', properties = ['dipole'])
--------------------------------------------------------------------------

    Molecular point group: c1
  Charge       = 1
  Multiplicity = 1
  Basis Set: AUG-CC-PVTZ
    Blend: AUG-CC-PVTZ
  Basis Set: (AUG-CC-PVTZ AUX)
    Blend: AUG-CC-PVTZ-JKFIT

    Orbital Energies [Eh]
    ---------------------

    Doubly Occupied:

       1A    -15.876607     2A    -11.467272     3A    -11.459966
       4A    -11.395015     5A    -11.391190     6A     -1.502864
       7A     -1.240515     8A     -1.174888     9A     -1.066063
      10A     -1.040933    11A     -0.941853    12A     -0.857020
      13A     -0.842731    14A     -0.801702    15A     -0.759478
      16A     -0.733938    17A     -0.704119    18A     -0.700470
      19A     -0.692558    20A     -0.678407    21A     -0.676843

  @DF-RHF Final Energy:  -212.74911796395489

   => Energetics <=

    Nuclear Repulsion Energy =            197.7250121386458375
    One-Electron Energy =                -668.9393954531600457
    Two-Electron Energy =                 258.4652653505593207
    Total Energy =                       -212.7491179639548591
  Basis Set: (AUG-CC-PVTZ AUX)
    Blend: AUG-CC-PVTZ-RI
    Molecular point group: c1

    Geometry (in Angstrom), charge = 1, multiplicity = 1:

       Center              X                  Y                   Z               Mass
    ------------   -----------------  -----------------  -----------------  -----------------
         N           -0.030870911196    -0.204344791642    -0.108675166095    14.003074004430
         C            1.282952688804     0.529785908358     0.024919433905    12.000000000000
         C           -1.268553311196     0.529774908358     0.025640433905    12.000000000000
         C            2.496327688804    -0.379918091642     0.025543433905    12.000000000000
         C           -2.481951311196    -0.379911091642     0.025228433905    12.000000000000
         H            0.006963688804    -0.903598091642    -0.793941566095     1.007825032230
         H            0.007435688804    -0.904121091642     0.843604433905     1.007825032230
         H            1.241493688804     1.164333908358    -0.862582566095     1.007825032230
         H            1.241176688804     1.165103908358     0.911855433905     1.007825032230
         H           -1.226858311196     1.164174908358     0.913237433905     1.007825032230
         H           -1.227030311196     1.165250908358    -0.861195566095     1.007825032230
         H            3.398932688804     0.234990908358     0.025156433905     1.007825032230
         H            2.527827688804    -1.012102091642     0.916966433905     1.007825032230
         H            2.527889688804    -1.013285091642    -0.865039566095     1.007825032230
         H           -3.384544311196     0.235013908358     0.025489433905     1.007825032230
         H           -2.513491311196    -1.012286091642    -0.866060566095     1.007825032230
         H           -2.513492311196    -1.013091091642     0.915941433905     1.007825032230

  Basis Set: AUG-CC-PVTZ
    Blend: AUG-CC-PVTZ
  Basis Set: (AUG-CC-PVTZ AUX)
    Blend: AUG-CC-PVTZ-JKFIT
	 Reference Energy          =    -212.7491179639548875 [Eh]
	 Singles Energy            =      -0.0000000000000000 [Eh]
	 Same-Spin Energy          =      -0.2172082517827102 [Eh]
	 Opposite-Spin Energy      =      -0.8123490961829960 [Eh]
	 Correlation Energy        =      -1.0295573479657063 [Eh]
	 Total Energy              =    -213.7786753119205798 [Eh]

	 ================> DF-SCS-MP2 Energies <==================
	-----------------------------------------------------------
	 SCS Same-Spin Scale       =       0.3333333333333333 [-]
	 SCS Opposite-Spin Scale   =       1.2000000000000000 [-]
	 SCS Same-Spin Energy      =      -0.0724027505942367 [Eh]
	 SCS Opposite-Spin Energy  =      -0.9748189154195952 [Eh]
	 SCS Correlation Energy    =      -1.0472216660138320 [Eh]
	 SCS Total Energy          =    -213.7963396299687133 [Eh]
	-----------------------------------------------------------

  Dipole Moment: [D]
     X:     0.1398      Y:    -0.6377      Z:     0.1543     Total:     0.6708

*** Psi4 exiting successfully. Buy a developer a beer!
