                               Psi4 1.4a3.dev225

  ==> Input File <==

--------------------------------------------------------------------------
#psi4
#
memory 32 gb

molecule  {
1 1
  N        0.0000000     0.2689290     0.0000000
  C        1.2795983    -0.5573654     0.0296583
  C       -1.2628000    -0.5465180    -0.0292690
  C        2.4835250     0.3513150    -0.0125090
  C       -2.4835250     0.3513150     0.0125090
  H       -0.0180190     0.8910490     0.8188120
  H        0.0180190     0.8910490    -0.8188120
  H        1.2213520    -1.1422140     0.9417860
  H        1.2165880    -1.2139890    -0.8318790
  H       -1.2213520    -1.1422140    -0.9417860
  H       -1.2165880    -1.2139890     0.8318790
  H        3.3791030    -0.2727590     0.0143590
  H        2.5088070     0.9427720    -0.9309290
  H        2.5122610     1.0251090     0.8471220
  H       -3.3791030    -0.2727590    -0.0143590
  H       -2.5088070     0.9427720     0.9309290
  H       -2.5122610     1.0251090    -0.8471220
units angstrom
no_reorient  #important for SAPT in psi4, default
symmetry c1  #important for SAPT in psi4, default
}

set PROPERTIES_ORIGIN ["COM"]
properties('MP2/aug-cc-pvtz', properties = ['dipole'])
--------------------------------------------------------------------------

    Molecular point group: c1
  Charge       = 1
  Multiplicity = 1
  Basis Set: AUG-CC-PVTZ
    Blend: AUG-CC-PVTZ
  Basis Set: (AUG-CC-PVTZ AUX)
    Blend: AUG-CC-PVTZ-JKFIT

    Orbital Energies [Eh]
    ---------------------

    Doubly Occupied:

       1A    -15.868130     2A    -11.465128     3A    -11.463093
       4A    -11.391530     5A    -11.390667     6A     -1.495655
       7A     -1.236428     8A     -1.178330     9A     -1.059890
      10A     -1.031700    11A     -0.963842    12A     -0.848782
      13A     -0.832574    14A     -0.804630    15A     -0.775139
      16A     -0.739764    17A     -0.706173    18A     -0.701411
      19A     -0.688881    20A     -0.682286    21A     -0.679787

  @DF-RHF Final Energy:  -212.77948181996683

   => Energetics <=

    Nuclear Repulsion Energy =            197.6443035365015248
    One-Electron Energy =                -668.8399275049393964
    Two-Electron Energy =                 258.4161421484710672
    Total Energy =                       -212.7794818199668043
  Basis Set: (AUG-CC-PVTZ AUX)
    Blend: AUG-CC-PVTZ-RI
    Molecular point group: c1

    Geometry (in Angstrom), charge = 1, multiplicity = 1:

       Center              X                  Y                   Z               Mass
    ------------   -----------------  -----------------  -----------------  -----------------
         N           -0.002720483551     0.276833143210    -0.000063047109    14.003074004430
         C            1.276877816449    -0.549461256790     0.029595252891    12.000000000000
         C           -1.265520483551    -0.538613856790    -0.029332047109    12.000000000000
         C            2.480804516449     0.359219143210    -0.012572047109    12.000000000000
         C           -2.486245483551     0.359219143210     0.012445952891    12.000000000000
         H           -0.020739483551     0.898953143210     0.818748952891     1.007825032230
         H            0.015298516449     0.898953143210    -0.818875047109     1.007825032230
         H            1.218631516449    -1.134309856790     0.941722952891     1.007825032230
         H            1.213867516449    -1.206084856790    -0.831942047109     1.007825032230
         H           -1.224072483551    -1.134309856790    -0.941849047109     1.007825032230
         H           -1.219308483551    -1.206084856790     0.831815952891     1.007825032230
         H            3.376382516449    -0.264854856790     0.014295952891     1.007825032230
         H            2.506086516449     0.950676143210    -0.930992047109     1.007825032230
         H            2.509540516449     1.033013143210     0.847058952891     1.007825032230
         H           -3.381823483551    -0.264854856790    -0.014422047109     1.007825032230
         H           -2.511527483551     0.950676143210     0.930865952891     1.007825032230
         H           -2.514981483551     1.033013143210    -0.847185047109     1.007825032230

  Basis Set: AUG-CC-PVTZ
    Blend: AUG-CC-PVTZ
  Basis Set: (AUG-CC-PVTZ AUX)
    Blend: AUG-CC-PVTZ-JKFIT
	 Reference Energy          =    -212.7794818199668327 [Eh]
	 Singles Energy            =      -0.0000000000000000 [Eh]
	 Same-Spin Energy          =      -0.2155831900910531 [Eh]
	 Opposite-Spin Energy      =      -0.8091999786386331 [Eh]
	 Correlation Energy        =      -1.0247831687296862 [Eh]
	 Total Energy              =    -213.8042649886965307 [Eh]

	 ================> DF-SCS-MP2 Energies <==================
	-----------------------------------------------------------
	 SCS Same-Spin Scale       =       0.3333333333333333 [-]
	 SCS Opposite-Spin Scale   =       1.2000000000000000 [-]
	 SCS Same-Spin Energy      =      -0.0718610633636844 [Eh]
	 SCS Opposite-Spin Energy  =      -0.9710399743663597 [Eh]
	 SCS Correlation Energy    =      -1.0429010377300441 [Eh]
	 SCS Total Energy          =    -213.8223828576968799 [Eh]
	-----------------------------------------------------------

  Dipole Moment: [D]
     X:     0.0465      Y:     0.5346      Z:     0.0004     Total:     0.5366

*** Psi4 exiting successfully. Buy a developer a beer!
