                               Psi4 1.3.2 release

  ==> Input File <==

--------------------------------------------------------------------------
#psi4
#
memory 32 gb

molecule  {
1 1
  N       -0.0000030    -0.2590690    -0.0002410
  C        1.2757600     0.5504720    -0.0003510
  C       -1.2757460     0.5504610     0.0003700
  C        2.4891350    -0.3592320     0.0002730
  C       -2.4891440    -0.3592250    -0.0000420
  H       -0.0001851    -0.7617199    -0.6601130
  H        0.0002430    -0.8834350     0.8183340
  H        1.2343010     1.1850200    -0.8878530
  H        1.2339840     1.1857900     0.8865850
  H       -1.2340510     1.1848610     0.8879670
  H       -1.2342230     1.1859370    -0.8864660
  H        3.3917400     0.2556770    -0.0001140
  H        2.5206350    -0.9914160     0.8916960
  H        2.5206970    -0.9925990    -0.8903100
  H       -3.3917370     0.2557000     0.0002190
  H       -2.5206840    -0.9916000    -0.8913310
  H       -2.5206850    -0.9924050     0.8906710
units angstrom
no_reorient  #important for SAPT in psi4, default
symmetry c1  #important for SAPT in psi4, default
}

set PROPERTIES_ORIGIN ["COM"]
properties('MP2/aug-cc-pvtz', properties = ['dipole'])
--------------------------------------------------------------------------

    Molecular point group: c1
  Charge       = 1
  Multiplicity = 1
  Basis Set: AUG-CC-PVTZ
    Blend: AUG-CC-PVTZ
  Basis Set: (AUG-CC-PVTZ AUX)
    Blend: AUG-CC-PVTZ-JKFIT

    Orbital Energies [Eh]
    ---------------------

    Doubly Occupied:

       1A    -15.852122     2A    -11.466918     3A    -11.466905
       4A    -11.392518     5A    -11.392516     6A     -1.535750
       7A     -1.237136     8A     -1.191441     9A     -1.075042
      10A     -1.034188    11A     -0.997186    12A     -0.853146
      13A     -0.842851    14A     -0.803858    15A     -0.783321
      16A     -0.741834    17A     -0.703337    18A     -0.703244
      19A     -0.689261    20A     -0.685865    21A     -0.680479

  @DF-RHF Final Energy:  -212.74014065682562

   => Energetics <=

    Nuclear Repulsion Energy =            198.4926415609077139
    One-Electron Energy =                -670.2077332228930118
    Two-Electron Energy =                 258.9749510051597099
    Total Energy =                       -212.7401406568255879
  Basis Set: (AUG-CC-PVTZ AUX)
    Blend: AUG-CC-PVTZ-RI
    Molecular point group: c1

    Geometry (in Angstrom), charge = 1, multiplicity = 1:

       Center              X                  Y                   Z               Mass
    ------------   -----------------  -----------------  -----------------  -----------------
         N           -0.000003717490    -0.267152207555    -0.002402446817    14.003074004430
         C            1.275759282510     0.542388792445    -0.002512446817    12.000000000000
         C           -1.275746717490     0.542377792445    -0.001791446817    12.000000000000
         C            2.489134282510    -0.367315207555    -0.001888446817    12.000000000000
         C           -2.489144717490    -0.367308207555    -0.002203446817    12.000000000000
         H           -0.000185817490    -0.769803107555    -0.662274446817     1.007825032230
         H            0.000242282510    -0.891518207555     0.816172553183     1.007825032230
         H            1.234300282510     1.176936792445    -0.890014446817     1.007825032230
         H            1.233983282510     1.177706792445     0.884423553183     1.007825032230
         H           -1.234051717490     1.176777792445     0.885805553183     1.007825032230
         H           -1.234223717490     1.177853792445    -0.888627446817     1.007825032230
         H            3.391739282510     0.247593792445    -0.002275446817     1.007825032230
         H            2.520634282510    -0.999499207555     0.889534553183     1.007825032230
         H            2.520696282510    -1.000682207555    -0.892471446817     1.007825032230
         H           -3.391737717490     0.247616792445    -0.001942446817     1.007825032230
         H           -2.520684717490    -0.999683207555    -0.893492446817     1.007825032230
         H           -2.520685717490    -1.000488207555     0.888509553183     1.007825032230

  Basis Set: AUG-CC-PVTZ
    Blend: AUG-CC-PVTZ
  Basis Set: (AUG-CC-PVTZ AUX)
    Blend: AUG-CC-PVTZ-JKFIT
	 Reference Energy          =    -212.7401406568256164 [Eh]
	 Singles Energy            =      -0.0000000000000000 [Eh]
	 Same-Spin Energy          =      -0.2143704206798934 [Eh]
	 Opposite-Spin Energy      =      -0.8062949894886502 [Eh]
	 Correlation Energy        =      -1.0206654101685435 [Eh]
	 Total Energy              =    -213.7608060669941494 [Eh]

	 ================> DF-SCS-MP2 Energies <==================
	-----------------------------------------------------------
	 SCS Same-Spin Scale       =       0.3333333333333333 [-]
	 SCS Opposite-Spin Scale   =       1.2000000000000000 [-]
	 SCS Same-Spin Energy      =      -0.0714568068932978 [Eh]
	 SCS Opposite-Spin Energy  =      -0.9675539873863802 [Eh]
	 SCS Correlation Energy    =      -1.0390107942796780 [Eh]
	 SCS Total Energy          =    -213.7791514511052924 [Eh]
	-----------------------------------------------------------

  Dipole Moment: [D]
     X:     0.0001      Y:    -0.4039      Z:     0.1604     Total:     0.4346

*** Psi4 exiting successfully. Buy a developer a beer!
