                               Psi4 1.3.2 release

  ==> Input File <==

--------------------------------------------------------------------------
#psi4
#
memory 32 gb

molecule  {
1 1
  N       -0.0000030    -0.2590690    -0.0002410
  C        1.2421156     0.5966351     0.0883013
  C       -1.2757460     0.5504610     0.0003700
  C        2.4891350    -0.3592320     0.0002730
  C       -2.4891440    -0.3592250    -0.0000420
  H       -0.0002290    -0.8829120    -0.8192120
  H        0.0002430    -0.8834350     0.8183340
  H        1.2343010     1.1850200    -0.8878530
  H        1.2339840     1.1857900     0.8865850
  H       -1.2340510     1.1848610     0.8879670
  H       -1.2342230     1.1859370    -0.8864660
  H        3.3917400     0.2556770    -0.0001140
  H        2.5206350    -0.9914160     0.8916960
  H        2.5206970    -0.9925990    -0.8903100
  H       -3.3917370     0.2557000     0.0002190
  H       -2.5206840    -0.9916000    -0.8913310
  H       -2.5206850    -0.9924050     0.8906710
units angstrom
no_reorient  #important for SAPT in psi4, default
symmetry c1  #important for SAPT in psi4, default
}

set PROPERTIES_ORIGIN ["COM"]
properties('MP2/aug-cc-pvtz', properties = ['dipole'])
--------------------------------------------------------------------------

    Molecular point group: c1
  Charge       = 1
  Multiplicity = 1
  Basis Set: AUG-CC-PVTZ
    Blend: AUG-CC-PVTZ
  Basis Set: (AUG-CC-PVTZ AUX)
    Blend: AUG-CC-PVTZ-JKFIT

    Orbital Energies [Eh]
    ---------------------

    Doubly Occupied:

       1A    -15.870490     2A    -11.464440     3A    -11.464009
       4A    -11.394165     5A    -11.391047     6A     -1.496634
       7A     -1.230344     8A     -1.172608     9A     -1.063608
      10A     -1.034006    11A     -0.963772    12A     -0.856898
      13A     -0.837261    14A     -0.800556    15A     -0.773875
      16A     -0.734629    17A     -0.710271    18A     -0.701622
      19A     -0.685939    20A     -0.681095    21A     -0.667747

  @DF-RHF Final Energy:  -212.76566461108405

   => Energetics <=

    Nuclear Repulsion Energy =            197.0188024956045751
    One-Electron Energy =                -667.5789014401181021
    Two-Electron Energy =                 257.7944343334294786
    Total Energy =                       -212.7656646110840484
  Basis Set: (AUG-CC-PVTZ AUX)
    Blend: AUG-CC-PVTZ-RI
    Molecular point group: c1

    Geometry (in Angstrom), charge = 1, multiplicity = 1:

       Center              X                  Y                   Z               Mass
    ------------   -----------------  -----------------  -----------------  -----------------
         N            0.005445587921    -0.272979932255    -0.014595706428    14.003074004430
         C            1.247564187921     0.582724167745     0.073946593572    12.000000000000
         C           -1.270297412079     0.536550067745    -0.013984706428    12.000000000000
         C            2.494583587921    -0.373142932255    -0.014081706428    12.000000000000
         C           -2.483695412079    -0.373135932255    -0.014396706428    12.000000000000
         H            0.005219587921    -0.896822932255    -0.833566706428     1.007825032230
         H            0.005691587921    -0.897345932255     0.803979293572     1.007825032230
         H            1.239749587921     1.171109067745    -0.902207706428     1.007825032230
         H            1.239432587921     1.171879067745     0.872230293572     1.007825032230
         H           -1.228602412079     1.170950067745     0.873612293572     1.007825032230
         H           -1.228774412079     1.172026067745    -0.900820706428     1.007825032230
         H            3.397188587921     0.241766067745    -0.014468706428     1.007825032230
         H            2.526083587921    -1.005326932255     0.877341293572     1.007825032230
         H            2.526145587921    -1.006509932255    -0.904664706428     1.007825032230
         H           -3.386288412079     0.241789067745    -0.014135706428     1.007825032230
         H           -2.515235412079    -1.005510932255    -0.905685706428     1.007825032230
         H           -2.515236412079    -1.006315932255     0.876316293572     1.007825032230

  Basis Set: AUG-CC-PVTZ
    Blend: AUG-CC-PVTZ
  Basis Set: (AUG-CC-PVTZ AUX)
    Blend: AUG-CC-PVTZ-JKFIT
	 Reference Energy          =    -212.7656646110840484 [Eh]
	 Singles Energy            =      -0.0000000000000000 [Eh]
	 Same-Spin Energy          =      -0.2153479783401280 [Eh]
	 Opposite-Spin Energy      =      -0.8095641368753421 [Eh]
	 Correlation Energy        =      -1.0249121152154701 [Eh]
	 Total Energy              =    -213.7905767262995198 [Eh]

	 ================> DF-SCS-MP2 Energies <==================
	-----------------------------------------------------------
	 SCS Same-Spin Scale       =       0.3333333333333333 [-]
	 SCS Opposite-Spin Scale   =       1.2000000000000000 [-]
	 SCS Same-Spin Energy      =      -0.0717826594467093 [Eh]
	 SCS Opposite-Spin Energy  =      -0.9714769642504105 [Eh]
	 SCS Correlation Energy    =      -1.0432596236971199 [Eh]
	 SCS Total Energy          =    -213.8089242347811592 [Eh]
	-----------------------------------------------------------

  Dipole Moment: [D]
     X:    -0.0057      Y:    -0.5446      Z:    -0.0193     Total:     0.5450

*** Psi4 exiting successfully. Buy a developer a beer!
