                               Psi4 1.3.2 release

  ==> Input File <==

--------------------------------------------------------------------------
#psi4
#
memory 32 gb

molecule  {
1 1
  N        0.0520351    -0.3256098     0.1334624
  C        1.2757600     0.5504720    -0.0003510
  C       -1.2757460     0.5504610     0.0003700
  C        2.4891350    -0.3592320     0.0002730
  C       -2.4891440    -0.3592250    -0.0000420
  H       -0.0002290    -0.8829120    -0.8192120
  H        0.0002430    -0.8834350     0.8183340
  H        1.2343010     1.1850200    -0.8878530
  H        1.2339840     1.1857900     0.8865850
  H       -1.2340510     1.1848610     0.8879670
  H       -1.2342230     1.1859370    -0.8864660
  H        3.3917400     0.2556770    -0.0001140
  H        2.5206350    -0.9914160     0.8916960
  H        2.5206970    -0.9925990    -0.8903100
  H       -3.3917370     0.2557000     0.0002190
  H       -2.5206840    -0.9916000    -0.8913310
  H       -2.5206850    -0.9924050     0.8906710
units angstrom
no_reorient  #important for SAPT in psi4, default
symmetry c1  #important for SAPT in psi4, default
}

set PROPERTIES_ORIGIN ["COM"]
properties('MP2/aug-cc-pvtz', properties = ['dipole'])
--------------------------------------------------------------------------

    Molecular point group: c1
  Charge       = 1
  Multiplicity = 1
  Basis Set: AUG-CC-PVTZ
    Blend: AUG-CC-PVTZ
  Basis Set: (AUG-CC-PVTZ AUX)
    Blend: AUG-CC-PVTZ-JKFIT

    Orbital Energies [Eh]
    ---------------------

    Doubly Occupied:

       1A    -15.859484     2A    -11.474237     3A    -11.465021
       4A    -11.393202     5A    -11.387627     6A     -1.494940
       7A     -1.230285     8A     -1.186482     9A     -1.065918
      10A     -1.025484    11A     -0.967064    12A     -0.848704
      13A     -0.832374    14A     -0.801098    15A     -0.773126
      16A     -0.738441    17A     -0.705886    18A     -0.701224
      19A     -0.686931    20A     -0.679822    21A     -0.670398

  @DF-RHF Final Energy:  -212.74353316863954

   => Energetics <=

    Nuclear Repulsion Energy =            196.6723488415942711
    One-Electron Energy =                -666.8562686428977031
    Two-Electron Energy =                 257.4403866326638877
    Total Energy =                       -212.7435331686395443
  Basis Set: (AUG-CC-PVTZ AUX)
    Blend: AUG-CC-PVTZ-RI
    Molecular point group: c1

    Geometry (in Angstrom), charge = 1, multiplicity = 1:

       Center              X                  Y                   Z               Mass
    ------------   -----------------  -----------------  -----------------  -----------------
         N            0.042200659502    -0.319469536388     0.108197248017    14.003074004430
         C            1.265925559502     0.556612263612    -0.025616151983    12.000000000000
         C           -1.285580440498     0.556601263612    -0.024895151983    12.000000000000
         C            2.479300559502    -0.353091736388    -0.024992151983    12.000000000000
         C           -2.498978440498    -0.353084736388    -0.025307151983    12.000000000000
         H           -0.010063440498    -0.876771736388    -0.844477151983     1.007825032230
         H           -0.009591440498    -0.877294736388     0.793068848017     1.007825032230
         H            1.224466559502     1.191160263612    -0.913118151983     1.007825032230
         H            1.224149559502     1.191930263612     0.861319848017     1.007825032230
         H           -1.243885440498     1.191001263612     0.862701848017     1.007825032230
         H           -1.244057440498     1.192077263612    -0.911731151983     1.007825032230
         H            3.381905559502     0.261817263612    -0.025379151983     1.007825032230
         H            2.510800559502    -0.985275736388     0.866430848017     1.007825032230
         H            2.510862559502    -0.986458736388    -0.915575151983     1.007825032230
         H           -3.401571440498     0.261840263612    -0.025046151983     1.007825032230
         H           -2.530518440498    -0.985459736388    -0.916596151983     1.007825032230
         H           -2.530519440498    -0.986264736388     0.865405848017     1.007825032230

  Basis Set: AUG-CC-PVTZ
    Blend: AUG-CC-PVTZ
  Basis Set: (AUG-CC-PVTZ AUX)
    Blend: AUG-CC-PVTZ-JKFIT
	 Reference Energy          =    -212.7435331686395443 [Eh]
	 Singles Energy            =      -0.0000000000000000 [Eh]
	 Same-Spin Energy          =      -0.2152475867076122 [Eh]
	 Opposite-Spin Energy      =      -0.8100652617422985 [Eh]
	 Correlation Energy        =      -1.0253128484499108 [Eh]
	 Total Energy              =    -213.7688460170894587 [Eh]

	 ================> DF-SCS-MP2 Energies <==================
	-----------------------------------------------------------
	 SCS Same-Spin Scale       =       0.3333333333333333 [-]
	 SCS Opposite-Spin Scale   =       1.2000000000000000 [-]
	 SCS Same-Spin Energy      =      -0.0717491955692041 [Eh]
	 SCS Opposite-Spin Energy  =      -0.9720783140907582 [Eh]
	 SCS Correlation Energy    =      -1.0438275096599623 [Eh]
	 SCS Total Energy          =    -213.7873606782995068 [Eh]
	-----------------------------------------------------------

  Dipole Moment: [D]
     X:    -0.2066      Y:    -0.3605      Z:    -0.1959     Total:     0.4594

*** Psi4 exiting successfully. Buy a developer a beer!
