                               Psi4 1.3.2 release

  ==> Input File <==

--------------------------------------------------------------------------
#psi4
#
memory 32 gb

molecule  {
1 1
  N       -0.0000030    -0.2590690    -0.0002410
  C        1.2757600     0.5504720    -0.0003510
  C       -1.2757460     0.5504610     0.0003700
  C        2.4891350    -0.3592320     0.0002730
  C       -2.4891440    -0.3592250    -0.0000420
  H       -0.0002479    -0.7938887    -0.8799349
  H        0.0002430    -0.8834350     0.8183340
  H        1.2343010     1.1850200    -0.8878530
  H        1.2339840     1.1857900     0.8865850
  H       -1.2340510     1.1848610     0.8879670
  H       -1.2342230     1.1859370    -0.8864660
  H        3.3917400     0.2556770    -0.0001140
  H        2.5206350    -0.9914160     0.8916960
  H        2.5206970    -0.9925990    -0.8903100
  H       -3.3917370     0.2557000     0.0002190
  H       -2.5206840    -0.9916000    -0.8913310
  H       -2.5206850    -0.9924050     0.8906710
units angstrom
no_reorient  #important for SAPT in psi4, default
symmetry c1  #important for SAPT in psi4, default
}

set PROPERTIES_ORIGIN ["COM"]
properties('MP2/aug-cc-pvtz', properties = ['dipole'])
--------------------------------------------------------------------------

    Molecular point group: c1
  Charge       = 1
  Multiplicity = 1
  Basis Set: AUG-CC-PVTZ
    Blend: AUG-CC-PVTZ
  Basis Set: (AUG-CC-PVTZ AUX)
    Blend: AUG-CC-PVTZ-JKFIT

    Orbital Energies [Eh]
    ---------------------

    Doubly Occupied:

       1A    -15.869627     2A    -11.464905     3A    -11.464891
       4A    -11.391476     5A    -11.391475     6A     -1.496818
       7A     -1.235316     8A     -1.175584     9A     -1.055102
      10A     -1.032677    11A     -0.973436    12A     -0.849407
      13A     -0.828042    14A     -0.802808    15A     -0.775155
      16A     -0.738599    17A     -0.701903    18A     -0.700835
      19A     -0.687529    20A     -0.683959    21A     -0.679489

  @DF-RHF Final Energy:  -212.77818025136696

   => Energetics <=

    Nuclear Repulsion Energy =            197.3091563803789938
    One-Electron Energy =                -668.1766102596742485
    Two-Electron Energy =                 258.0892736279282644
    Total Energy =                       -212.7781802513669618
  Basis Set: (AUG-CC-PVTZ AUX)
    Blend: AUG-CC-PVTZ-RI
    Molecular point group: c1

    Geometry (in Angstrom), charge = 1, multiplicity = 1:

       Center              X                  Y                   Z               Mass
    ------------   -----------------  -----------------  -----------------  -----------------
         N           -0.000002863320    -0.266714665777     0.000587446027    14.003074004430
         C            1.275760136680     0.542826334223     0.000477446027    12.000000000000
         C           -1.275745863320     0.542815334223     0.001198446027    12.000000000000
         C            2.489135136680    -0.366877665777     0.001101446027    12.000000000000
         C           -2.489143863320    -0.366870665777     0.000786446027    12.000000000000
         H           -0.000247763320    -0.801534365777    -0.879106453973     1.007825032230
         H            0.000243136680    -0.891080665777     0.819162446027     1.007825032230
         H            1.234301136680     1.177374334223    -0.887024553973     1.007825032230
         H            1.233984136680     1.178144334223     0.887413446027     1.007825032230
         H           -1.234050863320     1.177215334223     0.888795446027     1.007825032230
         H           -1.234222863320     1.178291334223    -0.885637553973     1.007825032230
         H            3.391740136680     0.248031334223     0.000714446027     1.007825032230
         H            2.520635136680    -0.999061665777     0.892524446027     1.007825032230
         H            2.520697136680    -1.000244665777    -0.889481553973     1.007825032230
         H           -3.391736863320     0.248054334223     0.001047446027     1.007825032230
         H           -2.520683863320    -0.999245665777    -0.890502553973     1.007825032230
         H           -2.520684863320    -1.000050665777     0.891499446027     1.007825032230

  Basis Set: AUG-CC-PVTZ
    Blend: AUG-CC-PVTZ
  Basis Set: (AUG-CC-PVTZ AUX)
    Blend: AUG-CC-PVTZ-JKFIT
	 Reference Energy          =    -212.7781802513669618 [Eh]
	 Singles Energy            =      -0.0000000000000000 [Eh]
	 Same-Spin Energy          =      -0.2156010952996950 [Eh]
	 Opposite-Spin Energy      =      -0.8093491627578794 [Eh]
	 Correlation Energy        =      -1.0249502580575744 [Eh]
	 Total Energy              =    -213.8031305094245340 [Eh]

	 ================> DF-SCS-MP2 Energies <==================
	-----------------------------------------------------------
	 SCS Same-Spin Scale       =       0.3333333333333333 [-]
	 SCS Opposite-Spin Scale   =       1.2000000000000000 [-]
	 SCS Same-Spin Energy      =      -0.0718670317665650 [Eh]
	 SCS Opposite-Spin Energy  =      -0.9712189953094552 [Eh]
	 SCS Correlation Energy    =      -1.0430860270760203 [Eh]
	 SCS Total Energy          =    -213.8212662784429767 [Eh]
	-----------------------------------------------------------

  Dipole Moment: [D]
     X:     0.0001      Y:    -0.4559      Z:    -0.0502     Total:     0.4587

*** Psi4 exiting successfully. Buy a developer a beer!
