                               Psi4 1.3.2 release

  ==> Input File <==

--------------------------------------------------------------------------
#psi4
#
memory 32 gb

molecule  {
1 1
  N       -0.0000030    -0.2590690    -0.0002410
  C        1.3533913     0.4126837    -0.0004156
  C       -1.2757460     0.5504610     0.0003700
  C        2.4891350    -0.3592320     0.0002730
  C       -2.4891440    -0.3592250    -0.0000420
  H       -0.0002290    -0.8829120    -0.8192120
  H        0.0002430    -0.8834350     0.8183340
  H        1.2343010     1.1850200    -0.8878530
  H        1.2339840     1.1857900     0.8865850
  H       -1.2340510     1.1848610     0.8879670
  H       -1.2342230     1.1859370    -0.8864660
  H        3.3917400     0.2556770    -0.0001140
  H        2.5206350    -0.9914160     0.8916960
  H        2.5206970    -0.9925990    -0.8903100
  H       -3.3917370     0.2557000     0.0002190
  H       -2.5206840    -0.9916000    -0.8913310
  H       -2.5206850    -0.9924050     0.8906710
units angstrom
no_reorient  #important for SAPT in psi4, default
symmetry c1  #important for SAPT in psi4, default
}

set PROPERTIES_ORIGIN ["COM"]
properties('MP2/aug-cc-pvtz', properties = ['dipole'])
--------------------------------------------------------------------------

    Molecular point group: c1
  Charge       = 1
  Multiplicity = 1
  Basis Set: AUG-CC-PVTZ
    Blend: AUG-CC-PVTZ
  Basis Set: (AUG-CC-PVTZ AUX)
    Blend: AUG-CC-PVTZ-JKFIT

    Orbital Energies [Eh]
    ---------------------

    Doubly Occupied:

       1A    -15.869804     2A    -11.473724     3A    -11.467736
       4A    -11.393169     5A    -11.386159     6A     -1.497716
       7A     -1.257638     8A     -1.191174     9A     -1.050331
      10A     -1.027527    11A     -0.961885    12A     -0.852693
      13A     -0.831581    14A     -0.801248    15A     -0.772377
      16A     -0.762557    17A     -0.715953    18A     -0.701477
      19A     -0.684432    20A     -0.683703    21A     -0.643595

  @DF-RHF Final Energy:  -212.74690344492129

   => Energetics <=

    Nuclear Repulsion Energy =            198.0623585198827641
    One-Electron Energy =                -669.5655641229686807
    Two-Electron Energy =                 258.7563021581646581
    Total Energy =                       -212.7469034449212586
  Basis Set: (AUG-CC-PVTZ AUX)
    Blend: AUG-CC-PVTZ-RI
    Molecular point group: c1

    Geometry (in Angstrom), charge = 1, multiplicity = 1:

       Center              X                  Y                   Z               Mass
    ------------   -----------------  -----------------  -----------------  -----------------
         N           -0.012575504181    -0.243189015445    -0.000228010463    14.003074004430
         C            1.340818795819     0.428563684555    -0.000402610463    12.000000000000
         C           -1.288318504181     0.566340984555     0.000382989537    12.000000000000
         C            2.476562495819    -0.343352015445     0.000285989537    12.000000000000
         C           -2.501716504181    -0.343345015445    -0.000029010463    12.000000000000
         H           -0.012801504181    -0.867032015445    -0.819199010463     1.007825032230
         H           -0.012329504181    -0.867555015445     0.818346989537     1.007825032230
         H            1.221728495819     1.200899984555    -0.887840010463     1.007825032230
         H            1.221411495819     1.201669984555     0.886597989537     1.007825032230
         H           -1.246623504181     1.200740984555     0.887979989537     1.007825032230
         H           -1.246795504181     1.201816984555    -0.886453010463     1.007825032230
         H            3.379167495819     0.271556984555    -0.000101010463     1.007825032230
         H            2.508062495819    -0.975536015445     0.891708989537     1.007825032230
         H            2.508124495819    -0.976719015445    -0.890297010463     1.007825032230
         H           -3.404309504181     0.271579984555     0.000231989537     1.007825032230
         H           -2.533256504181    -0.975720015445    -0.891318010463     1.007825032230
         H           -2.533257504181    -0.976525015445     0.890683989537     1.007825032230

  Basis Set: AUG-CC-PVTZ
    Blend: AUG-CC-PVTZ
  Basis Set: (AUG-CC-PVTZ AUX)
    Blend: AUG-CC-PVTZ-JKFIT
	 Reference Energy          =    -212.7469034449212870 [Eh]
	 Singles Energy            =      -0.0000000000000000 [Eh]
	 Same-Spin Energy          =      -0.2176862774327461 [Eh]
	 Opposite-Spin Energy      =      -0.8120796471206682 [Eh]
	 Correlation Energy        =      -1.0297659245534143 [Eh]
	 Total Energy              =    -213.7766693694746891 [Eh]

	 ================> DF-SCS-MP2 Energies <==================
	-----------------------------------------------------------
	 SCS Same-Spin Scale       =       0.3333333333333333 [-]
	 SCS Opposite-Spin Scale   =       1.2000000000000000 [-]
	 SCS Same-Spin Energy      =      -0.0725620924775820 [Eh]
	 SCS Opposite-Spin Energy  =      -0.9744955765448018 [Eh]
	 SCS Correlation Energy    =      -1.0470576690223838 [Eh]
	 SCS Total Energy          =    -213.7939611139436806 [Eh]
	-----------------------------------------------------------

  Dipole Moment: [D]
     X:     0.0331      Y:    -0.5553      Z:    -0.0006     Total:     0.5563

*** Psi4 exiting successfully. Buy a developer a beer!
