                               Psi4 1.3.2 release

  ==> Input File <==

--------------------------------------------------------------------------
#psi4
#
memory 32 gb

molecule  {
1 1
  N        0.0595754    -0.3460897    -0.0001920
  C        1.2757600     0.5504720    -0.0003510
  C       -1.2757460     0.5504610     0.0003700
  C        2.4891350    -0.3592320     0.0002730
  C       -2.4891440    -0.3592250    -0.0000420
  H       -0.0002290    -0.8829120    -0.8192120
  H        0.0002430    -0.8834350     0.8183340
  H        1.2343010     1.1850200    -0.8878530
  H        1.2339840     1.1857900     0.8865850
  H       -1.2340510     1.1848610     0.8879670
  H       -1.2342230     1.1859370    -0.8864660
  H        3.3917400     0.2556770    -0.0001140
  H        2.5206350    -0.9914160     0.8916960
  H        2.5206970    -0.9925990    -0.8903100
  H       -3.3917370     0.2557000     0.0002190
  H       -2.5206840    -0.9916000    -0.8913310
  H       -2.5206850    -0.9924050     0.8906710
units angstrom
no_reorient  #important for SAPT in psi4, default
symmetry c1  #important for SAPT in psi4, default
}

set PROPERTIES_ORIGIN ["COM"]
properties('MP2/aug-cc-pvtz', properties = ['dipole'])
--------------------------------------------------------------------------

    Molecular point group: c1
  Charge       = 1
  Multiplicity = 1
  Basis Set: AUG-CC-PVTZ
    Blend: AUG-CC-PVTZ
  Basis Set: (AUG-CC-PVTZ AUX)
    Blend: AUG-CC-PVTZ-JKFIT

    Orbital Energies [Eh]
    ---------------------

    Doubly Occupied:

       1A    -15.858797     2A    -11.474582     3A    -11.463810
       4A    -11.393306     5A    -11.386826     6A     -1.491420
       7A     -1.229541     8A     -1.182446     9A     -1.056415
      10A     -1.024129    11A     -0.983523    12A     -0.846149
      13A     -0.821486    14A     -0.802924    15A     -0.784513
      16A     -0.740773    17A     -0.705856    18A     -0.700708
      19A     -0.689661    20A     -0.678533    21A     -0.670037

  @DF-RHF Final Energy:  -212.77083732853652

   => Energetics <=

    Nuclear Repulsion Energy =            196.5842166133942897
    One-Electron Energy =                -666.7392400393503067
    Two-Electron Energy =                 257.3841860974195015
    Total Energy =                       -212.7708373285365155
  Basis Set: (AUG-CC-PVTZ AUX)
    Blend: AUG-CC-PVTZ-RI
    Molecular point group: c1

    Geometry (in Angstrom), charge = 1, multiplicity = 1:

       Center              X                  Y                   Z               Mass
    ------------   -----------------  -----------------  -----------------  -----------------
         N            0.048315970429    -0.336079081928    -0.000198732599    14.003074004430
         C            1.264500570429     0.560482618072    -0.000357732599    12.000000000000
         C           -1.287005429571     0.560471618072     0.000363267401    12.000000000000
         C            2.477875570429    -0.349221381928     0.000266267401    12.000000000000
         C           -2.500403429571    -0.349214381928    -0.000048732599    12.000000000000
         H           -0.011488429571    -0.872901381928    -0.819218732599     1.007825032230
         H           -0.011016429571    -0.873424381928     0.818327267401     1.007825032230
         H            1.223041570429     1.195030618072    -0.887859732599     1.007825032230
         H            1.222724570429     1.195800618072     0.886578267401     1.007825032230
         H           -1.245310429571     1.194871618072     0.887960267401     1.007825032230
         H           -1.245482429571     1.195947618072    -0.886472732599     1.007825032230
         H            3.380480570429     0.265687618072    -0.000120732599     1.007825032230
         H            2.509375570429    -0.981405381928     0.891689267401     1.007825032230
         H            2.509437570429    -0.982588381928    -0.890316732599     1.007825032230
         H           -3.402996429571     0.265710618072     0.000212267401     1.007825032230
         H           -2.531943429571    -0.981589381928    -0.891337732599     1.007825032230
         H           -2.531944429571    -0.982394381928     0.890664267401     1.007825032230

  Basis Set: AUG-CC-PVTZ
    Blend: AUG-CC-PVTZ
  Basis Set: (AUG-CC-PVTZ AUX)
    Blend: AUG-CC-PVTZ-JKFIT
	 Reference Energy          =    -212.7708373285365155 [Eh]
	 Singles Energy            =      -0.0000000000000000 [Eh]
	 Same-Spin Energy          =      -0.2147473708729734 [Eh]
	 Opposite-Spin Energy      =      -0.8086887359015564 [Eh]
	 Correlation Energy        =      -1.0234361067745299 [Eh]
	 Total Energy              =    -213.7942734353110552 [Eh]

	 ================> DF-SCS-MP2 Energies <==================
	-----------------------------------------------------------
	 SCS Same-Spin Scale       =       0.3333333333333333 [-]
	 SCS Opposite-Spin Scale   =       1.2000000000000000 [-]
	 SCS Same-Spin Energy      =      -0.0715824569576578 [Eh]
	 SCS Opposite-Spin Energy  =      -0.9704264830818676 [Eh]
	 SCS Correlation Energy    =      -1.0420089400395254 [Eh]
	 SCS Total Energy          =    -213.8128462685760383 [Eh]
	-----------------------------------------------------------

  Dipole Moment: [D]
     X:    -0.2423      Y:    -0.3419      Z:    -0.0007     Total:     0.4191

*** Psi4 exiting successfully. Buy a developer a beer!
