                               Psi4 1.3.2 release

  ==> Input File <==

--------------------------------------------------------------------------
#psi4
#
memory 32 gb

molecule  {
1 1
  N       -0.0000030    -0.2590690    -0.0002410
  C        1.2757600     0.5504720    -0.0003510
  C       -1.2757460     0.5504610     0.0003700
  C        2.4891350    -0.3592320     0.0002730
  C       -2.4891440    -0.3592250    -0.0000420
  H       -0.0002070    -0.8223160    -0.7396625
  H        0.0002430    -0.8834350     0.8183340
  H        1.2343010     1.1850200    -0.8878530
  H        1.2339840     1.1857900     0.8865850
  H       -1.2340510     1.1848610     0.8879670
  H       -1.2342230     1.1859370    -0.8864660
  H        3.3917400     0.2556770    -0.0001140
  H        2.5206350    -0.9914160     0.8916960
  H        2.5206970    -0.9925990    -0.8903100
  H       -3.3917370     0.2557000     0.0002190
  H       -2.5206840    -0.9916000    -0.8913310
  H       -2.5206850    -0.9924050     0.8906710
units angstrom
no_reorient  #important for SAPT in psi4, default
symmetry c1  #important for SAPT in psi4, default
}

set PROPERTIES_ORIGIN ["COM"]
properties('MP2/aug-cc-pvtz', properties = ['dipole'])
--------------------------------------------------------------------------

    Molecular point group: c1
  Charge       = 1
  Multiplicity = 1
  Basis Set: AUG-CC-PVTZ
    Blend: AUG-CC-PVTZ
  Basis Set: (AUG-CC-PVTZ AUX)
    Blend: AUG-CC-PVTZ-JKFIT

    Orbital Energies [Eh]
    ---------------------

    Doubly Occupied:

       1A    -15.861495     2A    -11.465995     3A    -11.465982
       4A    -11.392050     5A    -11.392048     6A     -1.513159
       7A     -1.236140     8A     -1.182951     9A     -1.065763
      10A     -1.033375    11A     -0.981185    12A     -0.851204
      13A     -0.838314    14A     -0.803170    15A     -0.778777
      16A     -0.740611    17A     -0.702707    18A     -0.702626
      19A     -0.688447    20A     -0.684879    21A     -0.679947

  @DF-RHF Final Energy:  -212.77407368554222

   => Energetics <=

    Nuclear Repulsion Energy =            197.8282048024583730
    One-Electron Energy =                -669.0829142803207787
    Two-Electron Energy =                 258.4806357923201858
    Total Energy =                       -212.7740736855422483
  Basis Set: (AUG-CC-PVTZ AUX)
    Blend: AUG-CC-PVTZ-RI
    Molecular point group: c1

    Geometry (in Angstrom), charge = 1, multiplicity = 1:

       Center              X                  Y                   Z               Mass
    ------------   -----------------  -----------------  -----------------  -----------------
         N           -0.000003419619    -0.266328013761    -0.001320459623    14.003074004430
         C            1.275759580381     0.543212986239    -0.001430459623    12.000000000000
         C           -1.275746419619     0.543201986239    -0.000709459623    12.000000000000
         C            2.489134580381    -0.366491013761    -0.000806459623    12.000000000000
         C           -2.489144419619    -0.366484013761    -0.001121459623    12.000000000000
         H           -0.000207419619    -0.829575013761    -0.740741959623     1.007825032230
         H            0.000242580381    -0.890694013761     0.817254540377     1.007825032230
         H            1.234300580381     1.177760986239    -0.888932459623     1.007825032230
         H            1.233983580381     1.178530986239     0.885505540377     1.007825032230
         H           -1.234051419619     1.177601986239     0.886887540377     1.007825032230
         H           -1.234223419619     1.178677986239    -0.887545459623     1.007825032230
         H            3.391739580381     0.248417986239    -0.001193459623     1.007825032230
         H            2.520634580381    -0.998675013761     0.890616540377     1.007825032230
         H            2.520696580381    -0.999858013761    -0.891389459623     1.007825032230
         H           -3.391737419619     0.248440986239    -0.000860459623     1.007825032230
         H           -2.520684419619    -0.998859013761    -0.892410459623     1.007825032230
         H           -2.520685419619    -0.999664013761     0.889591540377     1.007825032230

  Basis Set: AUG-CC-PVTZ
    Blend: AUG-CC-PVTZ
  Basis Set: (AUG-CC-PVTZ AUX)
    Blend: AUG-CC-PVTZ-JKFIT
	 Reference Energy          =    -212.7740736855422199 [Eh]
	 Singles Energy            =      -0.0000000000000000 [Eh]
	 Same-Spin Energy          =      -0.2148876682746508 [Eh]
	 Opposite-Spin Energy      =      -0.8075126257698808 [Eh]
	 Correlation Energy        =      -1.0224002940445316 [Eh]
	 Total Energy              =    -213.7964739795867501 [Eh]

	 ================> DF-SCS-MP2 Energies <==================
	-----------------------------------------------------------
	 SCS Same-Spin Scale       =       0.3333333333333333 [-]
	 SCS Opposite-Spin Scale   =       1.2000000000000000 [-]
	 SCS Same-Spin Energy      =      -0.0716292227582169 [Eh]
	 SCS Opposite-Spin Energy  =      -0.9690151509238569 [Eh]
	 SCS Correlation Energy    =      -1.0406443736820739 [Eh]
	 SCS Total Energy          =    -213.8147180592243046 [Eh]
	-----------------------------------------------------------

  Dipole Moment: [D]
     X:     0.0001      Y:    -0.4632      Z:     0.0815     Total:     0.4703

*** Psi4 exiting successfully. Buy a developer a beer!
