                               Psi4 1.4a3.dev225

  ==> Input File <==

--------------------------------------------------------------------------
#psi4
#
memory 32 gb

molecule  {
1 1
  N        0.0000000     0.2689290     0.0000000
  C        1.2460017    -0.5356706     0.0288797
  C       -1.2628000    -0.5465180    -0.0292690
  C        2.4835250     0.3513150    -0.0125090
  C       -2.4835250     0.3513150     0.0125090
  H       -0.0180190     0.8910490     0.8188120
  H        0.0180190     0.8910490    -0.8188120
  H        1.2213520    -1.1422140     0.9417860
  H        1.2165880    -1.2139890    -0.8318790
  H       -1.2213520    -1.1422140    -0.9417860
  H       -1.2165880    -1.2139890     0.8318790
  H        3.3791030    -0.2727590     0.0143590
  H        2.5088070     0.9427720    -0.9309290
  H        2.5122610     1.0251090     0.8471220
  H       -3.3791030    -0.2727590    -0.0143590
  H       -2.5088070     0.9427720     0.9309290
  H       -2.5122610     1.0251090    -0.8471220
units angstrom
no_reorient  #important for SAPT in psi4, default
symmetry c1  #important for SAPT in psi4, default
}

set PROPERTIES_ORIGIN ["COM"]
properties('MP2/aug-cc-pvtz', properties = ['dipole'])
--------------------------------------------------------------------------

    Molecular point group: c1
  Charge       = 1
  Multiplicity = 1
  Basis Set: AUG-CC-PVTZ
    Blend: AUG-CC-PVTZ
  Basis Set: (AUG-CC-PVTZ AUX)
    Blend: AUG-CC-PVTZ-JKFIT

    Orbital Energies [Eh]
    ---------------------

    Doubly Occupied:

       1A    -15.872040     2A    -11.464781     3A    -11.462923
       4A    -11.391946     5A    -11.391199     6A     -1.505549
       7A     -1.236454     8A     -1.176358     9A     -1.061997
      10A     -1.033127    11A     -0.969222    12A     -0.854426
      13A     -0.838187    14A     -0.801869    15A     -0.772618
      16A     -0.739613    17A     -0.703426    18A     -0.698854
      19A     -0.687671    20A     -0.684782    21A     -0.678361

  @DF-RHF Final Energy:  -212.77935285988752

   => Energetics <=

    Nuclear Repulsion Energy =            198.0754070268629619
    One-Electron Energy =                -669.6587113986760187
    Two-Electron Energy =                 258.8039515119255043
    Total Energy =                       -212.7793528598875241
  Basis Set: (AUG-CC-PVTZ AUX)
    Blend: AUG-CC-PVTZ-RI
    Molecular point group: c1

    Geometry (in Angstrom), charge = 1, multiplicity = 1:

       Center              X                  Y                   Z               Mass
    ------------   -----------------  -----------------  -----------------  -----------------
         N            0.002720483551     0.273319671815     0.000063047109    14.003074004430
         C            1.248722183551    -0.531279928185     0.028942747109    12.000000000000
         C           -1.260079516449    -0.542127328185    -0.029205952891    12.000000000000
         C            2.486245483551     0.355705671815    -0.012445952891    12.000000000000
         C           -2.480804516449     0.355705671815     0.012572047109    12.000000000000
         H           -0.015298516449     0.895439671815     0.818875047109     1.007825032230
         H            0.020739483551     0.895439671815    -0.818748952891     1.007825032230
         H            1.224072483551    -1.137823328185     0.941849047109     1.007825032230
         H            1.219308483551    -1.209598328185    -0.831815952891     1.007825032230
         H           -1.218631516449    -1.137823328185    -0.941722952891     1.007825032230
         H           -1.213867516449    -1.209598328185     0.831942047109     1.007825032230
         H            3.381823483551    -0.268368328185     0.014422047109     1.007825032230
         H            2.511527483551     0.947162671815    -0.930865952891     1.007825032230
         H            2.514981483551     1.029499671815     0.847185047109     1.007825032230
         H           -3.376382516449    -0.268368328185    -0.014295952891     1.007825032230
         H           -2.506086516449     0.947162671815     0.930992047109     1.007825032230
         H           -2.509540516449     1.029499671815    -0.847058952891     1.007825032230

  Basis Set: AUG-CC-PVTZ
    Blend: AUG-CC-PVTZ
  Basis Set: (AUG-CC-PVTZ AUX)
    Blend: AUG-CC-PVTZ-JKFIT
	 Reference Energy          =    -212.7793528598875241 [Eh]
	 Singles Energy            =      -0.0000000000000000 [Eh]
	 Same-Spin Energy          =      -0.2157138454076133 [Eh]
	 Opposite-Spin Energy      =      -0.8091212143875768 [Eh]
	 Correlation Energy        =      -1.0248350597951901 [Eh]
	 Total Energy              =    -213.8041879196827040 [Eh]

	 ================> DF-SCS-MP2 Energies <==================
	-----------------------------------------------------------
	 SCS Same-Spin Scale       =       0.3333333333333333 [-]
	 SCS Opposite-Spin Scale   =       1.2000000000000000 [-]
	 SCS Same-Spin Energy      =      -0.0719046151358711 [Eh]
	 SCS Opposite-Spin Energy  =      -0.9709454572650921 [Eh]
	 SCS Correlation Energy    =      -1.0428500724009633 [Eh]
	 SCS Total Energy          =    -213.8222029322884907 [Eh]
	-----------------------------------------------------------

  Dipole Moment: [D]
     X:    -0.0432      Y:     0.5548      Z:    -0.0004     Total:     0.5565

*** Psi4 exiting successfully. Buy a developer a beer!
