                               Psi4 1.3.2 release

  ==> Input File <==

--------------------------------------------------------------------------
#psi4
#
memory 32 gb

molecule  {
1 1
  N       -0.0139371    -0.2366806    -0.0002533
  C        1.2757600     0.5504720    -0.0003510
  C       -1.2757460     0.5504610     0.0003700
  C        2.4891350    -0.3592320     0.0002730
  C       -2.4891440    -0.3592250    -0.0000420
  H       -0.0002290    -0.8829120    -0.8192120
  H        0.0002430    -0.8834350     0.8183340
  H        1.2343010     1.1850200    -0.8878530
  H        1.2339840     1.1857900     0.8865850
  H       -1.2340510     1.1848610     0.8879670
  H       -1.2342230     1.1859370    -0.8864660
  H        3.3917400     0.2556770    -0.0001140
  H        2.5206350    -0.9914160     0.8916960
  H        2.5206970    -0.9925990    -0.8903100
  H       -3.3917370     0.2557000     0.0002190
  H       -2.5206840    -0.9916000    -0.8913310
  H       -2.5206850    -0.9924050     0.8906710
units angstrom
no_reorient  #important for SAPT in psi4, default
symmetry c1  #important for SAPT in psi4, default
}

set PROPERTIES_ORIGIN ["COM"]
properties('MP2/aug-cc-pvtz', properties = ['dipole'])
--------------------------------------------------------------------------

    Molecular point group: c1
  Charge       = 1
  Multiplicity = 1
  Basis Set: AUG-CC-PVTZ
    Blend: AUG-CC-PVTZ
  Basis Set: (AUG-CC-PVTZ AUX)
    Blend: AUG-CC-PVTZ-JKFIT

    Orbital Energies [Eh]
    ---------------------

    Doubly Occupied:

       1A    -15.872056     2A    -11.465520     3A    -11.462864
       4A    -11.392695     5A    -11.391256     6A     -1.497998
       7A     -1.236828     8A     -1.175284     9A     -1.058925
      10A     -1.035154    11A     -0.958771    12A     -0.851380
      13A     -0.834697    14A     -0.802605    15A     -0.769606
      16A     -0.738812    17A     -0.702367    18A     -0.700927
      19A     -0.686803    20A     -0.686551    21A     -0.679493

  @DF-RHF Final Energy:  -212.77799207913080

   => Energetics <=

    Nuclear Repulsion Energy =            197.4344548065941183
    One-Electron Energy =                -668.4237075991978827
    Two-Electron Energy =                 258.2112607134729956
    Total Energy =                       -212.7779920791307973
  Basis Set: (AUG-CC-PVTZ AUX)
    Blend: AUG-CC-PVTZ-RI
    Molecular point group: c1

    Geometry (in Angstrom), charge = 1, multiplicity = 1:

       Center              X                  Y                   Z               Mass
    ------------   -----------------  -----------------  -----------------  -----------------
         N           -0.011303911334    -0.247346449984    -0.000248447937    14.003074004430
         C            1.278393188666     0.539806150016    -0.000346147937    12.000000000000
         C           -1.273112811334     0.539795150016     0.000374852063    12.000000000000
         C            2.491768188666    -0.369897849984     0.000277852063    12.000000000000
         C           -2.486510811334    -0.369890849984    -0.000037147937    12.000000000000
         H            0.002404188666    -0.893577849984    -0.819207147937     1.007825032230
         H            0.002876188666    -0.894100849984     0.818338852063     1.007825032230
         H            1.236934188666     1.174354150016    -0.887848147937     1.007825032230
         H            1.236617188666     1.175124150016     0.886589852063     1.007825032230
         H           -1.231417811334     1.174195150016     0.887971852063     1.007825032230
         H           -1.231589811334     1.175271150016    -0.886461147937     1.007825032230
         H            3.394373188666     0.245011150016    -0.000109147937     1.007825032230
         H            2.523268188666    -1.002081849984     0.891700852063     1.007825032230
         H            2.523330188666    -1.003264849984    -0.890305147937     1.007825032230
         H           -3.389103811334     0.245034150016     0.000223852063     1.007825032230
         H           -2.518050811334    -1.002265849984    -0.891326147937     1.007825032230
         H           -2.518051811334    -1.003070849984     0.890675852063     1.007825032230

  Basis Set: AUG-CC-PVTZ
    Blend: AUG-CC-PVTZ
  Basis Set: (AUG-CC-PVTZ AUX)
    Blend: AUG-CC-PVTZ-JKFIT
	 Reference Energy          =    -212.7779920791307973 [Eh]
	 Singles Energy            =      -0.0000000000000000 [Eh]
	 Same-Spin Energy          =      -0.2158652763707151 [Eh]
	 Opposite-Spin Energy      =      -0.8096229715856923 [Eh]
	 Correlation Energy        =      -1.0254882479564074 [Eh]
	 Total Energy              =    -213.8034803270872146 [Eh]

	 ================> DF-SCS-MP2 Energies <==================
	-----------------------------------------------------------
	 SCS Same-Spin Scale       =       0.3333333333333333 [-]
	 SCS Opposite-Spin Scale   =       1.2000000000000000 [-]
	 SCS Same-Spin Energy      =      -0.0719550921235717 [Eh]
	 SCS Opposite-Spin Energy  =      -0.9715475659028308 [Eh]
	 SCS Correlation Energy    =      -1.0435026580264024 [Eh]
	 SCS Total Energy          =    -213.8214947371571952 [Eh]
	-----------------------------------------------------------

  Dipole Moment: [D]
     X:     0.0536      Y:    -0.5664      Z:    -0.0006     Total:     0.5689

*** Psi4 exiting successfully. Buy a developer a beer!
