                               Psi4 1.3.2 release

  ==> Input File <==

--------------------------------------------------------------------------
#psi4
#
memory 32 gb

molecule  {
1 1
  N       -0.0000030    -0.2590690    -0.0002410
  C        1.1913247     0.4968932    -0.0003437
  C       -1.2757460     0.5504610     0.0003700
  C        2.4891350    -0.3592320     0.0002730
  C       -2.4891440    -0.3592250    -0.0000420
  H       -0.0002290    -0.8829120    -0.8192120
  H        0.0002430    -0.8834350     0.8183340
  H        1.2343010     1.1850200    -0.8878530
  H        1.2339840     1.1857900     0.8865850
  H       -1.2340510     1.1848610     0.8879670
  H       -1.2342230     1.1859370    -0.8864660
  H        3.3917400     0.2556770    -0.0001140
  H        2.5206350    -0.9914160     0.8916960
  H        2.5206970    -0.9925990    -0.8903100
  H       -3.3917370     0.2557000     0.0002190
  H       -2.5206840    -0.9916000    -0.8913310
  H       -2.5206850    -0.9924050     0.8906710
units angstrom
no_reorient  #important for SAPT in psi4, default
symmetry c1  #important for SAPT in psi4, default
}

set PROPERTIES_ORIGIN ["COM"]
properties('MP2/aug-cc-pvtz', properties = ['dipole'])
--------------------------------------------------------------------------

    Molecular point group: c1
  Charge       = 1
  Multiplicity = 1
  Basis Set: AUG-CC-PVTZ
    Blend: AUG-CC-PVTZ
  Basis Set: (AUG-CC-PVTZ AUX)
    Blend: AUG-CC-PVTZ-JKFIT

    Orbital Energies [Eh]
    ---------------------

    Doubly Occupied:

       1A    -15.877574     2A    -11.468944     3A    -11.461160
       4A    -11.394365     5A    -11.391557     6A     -1.523182
       7A     -1.236990     8A     -1.170192     9A     -1.064541
      10A     -1.037370    11A     -0.977244    12A     -0.864070
      13A     -0.846500    14A     -0.799421    15A     -0.763004
      16A     -0.739025    17A     -0.706926    18A     -0.696703
      19A     -0.687652    20A     -0.674352    21A     -0.670762

  @DF-RHF Final Energy:  -212.77061266649173

   => Energetics <=

    Nuclear Repulsion Energy =            198.3726103820047229
    One-Electron Energy =                -670.1833766578236009
    Two-Electron Energy =                 259.0401536093271488
    Total Energy =                       -212.7706126664917292
  Basis Set: (AUG-CC-PVTZ AUX)
    Blend: AUG-CC-PVTZ-RI
    Molecular point group: c1

    Geometry (in Angstrom), charge = 1, multiplicity = 1:

       Center              X                  Y                   Z               Mass
    ------------   -----------------  -----------------  -----------------  -----------------
         N            0.013671170747    -0.256826738284    -0.000239654663    14.003074004430
         C            1.204998870747     0.499135461716    -0.000342354663    12.000000000000
         C           -1.262071829253     0.552703261716     0.000371345337    12.000000000000
         C            2.502809170747    -0.356989738284     0.000274345337    12.000000000000
         C           -2.475469829253    -0.356982738284    -0.000040654663    12.000000000000
         H            0.013445170747    -0.880669738284    -0.819210654663     1.007825032230
         H            0.013917170747    -0.881192738284     0.818335345337     1.007825032230
         H            1.247975170747     1.187262261716    -0.887851654663     1.007825032230
         H            1.247658170747     1.188032261716     0.886586345337     1.007825032230
         H           -1.220376829253     1.187103261716     0.887968345337     1.007825032230
         H           -1.220548829253     1.188179261716    -0.886464654663     1.007825032230
         H            3.405414170747     0.257919261716    -0.000112654663     1.007825032230
         H            2.534309170747    -0.989173738284     0.891697345337     1.007825032230
         H            2.534371170747    -0.990356738284    -0.890308654663     1.007825032230
         H           -3.378062829253     0.257942261716     0.000220345337     1.007825032230
         H           -2.507009829253    -0.989357738284    -0.891329654663     1.007825032230
         H           -2.507010829253    -0.990162738284     0.890672345337     1.007825032230

  Basis Set: AUG-CC-PVTZ
    Blend: AUG-CC-PVTZ
  Basis Set: (AUG-CC-PVTZ AUX)
    Blend: AUG-CC-PVTZ-JKFIT
	 Reference Energy          =    -212.7706126664917292 [Eh]
	 Singles Energy            =      -0.0000000000000000 [Eh]
	 Same-Spin Energy          =      -0.2161173077122720 [Eh]
	 Opposite-Spin Energy      =      -0.8094593077176070 [Eh]
	 Correlation Energy        =      -1.0255766154298791 [Eh]
	 Total Energy              =    -213.7961892819216132 [Eh]

	 ================> DF-SCS-MP2 Energies <==================
	-----------------------------------------------------------
	 SCS Same-Spin Scale       =       0.3333333333333333 [-]
	 SCS Opposite-Spin Scale   =       1.2000000000000000 [-]
	 SCS Same-Spin Energy      =      -0.0720391025707573 [Eh]
	 SCS Opposite-Spin Energy  =      -0.9713511692611283 [Eh]
	 SCS Correlation Energy    =      -1.0433902718318857 [Eh]
	 SCS Total Energy          =    -213.8140029383236254 [Eh]
	-----------------------------------------------------------

  Dipole Moment: [D]
     X:    -0.1898      Y:    -0.5664      Z:    -0.0006     Total:     0.5973

*** Psi4 exiting successfully. Buy a developer a beer!
