                               Psi4 1.3.2 release

  ==> Input File <==

--------------------------------------------------------------------------
#psi4
#
memory 32 gb

molecule  {
1 1
  N       -0.0000030    -0.2590690    -0.0002410
  C        1.2757600     0.5504720    -0.0003510
  C       -1.2757460     0.5504610     0.0003700
  C        2.4891350    -0.3592320     0.0002730
  C       -2.4891440    -0.3592250    -0.0000420
  H       -0.0002256    -0.8971100    -0.8081997
  H        0.0002430    -0.8834350     0.8183340
  H        1.2343010     1.1850200    -0.8878530
  H        1.2339840     1.1857900     0.8865850
  H       -1.2340510     1.1848610     0.8879670
  H       -1.2342230     1.1859370    -0.8864660
  H        3.3917400     0.2556770    -0.0001140
  H        2.5206350    -0.9914160     0.8916960
  H        2.5206970    -0.9925990    -0.8903100
  H       -3.3917370     0.2557000     0.0002190
  H       -2.5206840    -0.9916000    -0.8913310
  H       -2.5206850    -0.9924050     0.8906710
units angstrom
no_reorient  #important for SAPT in psi4, default
symmetry c1  #important for SAPT in psi4, default
}

set PROPERTIES_ORIGIN ["COM"]
properties('MP2/aug-cc-pvtz', properties = ['dipole'])
--------------------------------------------------------------------------

    Molecular point group: c1
  Charge       = 1
  Multiplicity = 1
  Basis Set: AUG-CC-PVTZ
    Blend: AUG-CC-PVTZ
  Basis Set: (AUG-CC-PVTZ AUX)
    Blend: AUG-CC-PVTZ-JKFIT

    Orbital Energies [Eh]
    ---------------------

    Doubly Occupied:

       1A    -15.869506     2A    -11.465173     3A    -11.465159
       4A    -11.391544     5A    -11.391542     6A     -1.496325
       7A     -1.235070     8A     -1.177020     9A     -1.059256
      10A     -1.032542    11A     -0.961691    12A     -0.849364
      13A     -0.834274    14A     -0.802362    15A     -0.772839
      16A     -0.739199    17A     -0.702153    18A     -0.701977
      19A     -0.687433    20A     -0.683953    21A     -0.679336

  @DF-RHF Final Energy:  -212.77952335658330

   => Energetics <=

    Nuclear Repulsion Energy =            197.2515500629723704
    One-Electron Energy =                -668.0667124747220669
    Two-Electron Energy =                 258.0356390551664276
    Total Energy =                       -212.7795233565832973
  Basis Set: (AUG-CC-PVTZ AUX)
    Blend: AUG-CC-PVTZ-RI
    Molecular point group: c1

    Geometry (in Angstrom), charge = 1, multiplicity = 1:

       Center              X                  Y                   Z               Mass
    ------------   -----------------  -----------------  -----------------  -----------------
         N           -0.000003166632    -0.265310708181    -0.000388255489    14.003074004430
         C            1.275759833368     0.544230291819    -0.000498255489    12.000000000000
         C           -1.275746166632     0.544219291819     0.000222744511    12.000000000000
         C            2.489134833368    -0.365473708181     0.000125744511    12.000000000000
         C           -2.489144166632    -0.365466708181    -0.000189255489    12.000000000000
         H           -0.000225766632    -0.903351708181    -0.808346955489     1.007825032230
         H            0.000242833368    -0.889676708181     0.818186744511     1.007825032230
         H            1.234300833368     1.178778291819    -0.888000255489     1.007825032230
         H            1.233983833368     1.179548291819     0.886437744511     1.007825032230
         H           -1.234051166632     1.178619291819     0.887819744511     1.007825032230
         H           -1.234223166632     1.179695291819    -0.886613255489     1.007825032230
         H            3.391739833368     0.249435291819    -0.000261255489     1.007825032230
         H            2.520634833368    -0.997657708181     0.891548744511     1.007825032230
         H            2.520696833368    -0.998840708181    -0.890457255489     1.007825032230
         H           -3.391737166632     0.249458291819     0.000071744511     1.007825032230
         H           -2.520684166632    -0.997841708181    -0.891478255489     1.007825032230
         H           -2.520685166632    -0.998646708181     0.890523744511     1.007825032230

  Basis Set: AUG-CC-PVTZ
    Blend: AUG-CC-PVTZ
  Basis Set: (AUG-CC-PVTZ AUX)
    Blend: AUG-CC-PVTZ-JKFIT
	 Reference Energy          =    -212.7795233565832973 [Eh]
	 Singles Energy            =      -0.0000000000000000 [Eh]
	 Same-Spin Energy          =      -0.2155204265982216 [Eh]
	 Opposite-Spin Energy      =      -0.8091783228480451 [Eh]
	 Correlation Energy        =      -1.0246987494462667 [Eh]
	 Total Energy              =    -213.8042221060295560 [Eh]

	 ================> DF-SCS-MP2 Energies <==================
	-----------------------------------------------------------
	 SCS Same-Spin Scale       =       0.3333333333333333 [-]
	 SCS Opposite-Spin Scale   =       1.2000000000000000 [-]
	 SCS Same-Spin Energy      =      -0.0718401421994072 [Eh]
	 SCS Opposite-Spin Energy  =      -0.9710139874176541 [Eh]
	 SCS Correlation Energy    =      -1.0428541296170613 [Eh]
	 SCS Total Energy          =    -213.8223774862003665 [Eh]
	-----------------------------------------------------------

  Dipole Moment: [D]
     X:     0.0001      Y:    -0.5342      Z:     0.0086     Total:     0.5342

*** Psi4 exiting successfully. Buy a developer a beer!
