                               Psi4 1.3.2 release

  ==> Input File <==

--------------------------------------------------------------------------
#psi4
#
memory 32 gb

molecule  {
1 1
  N       -0.0533660    -0.1681043    -0.0002905
  C        1.2757600     0.5504720    -0.0003510
  C       -1.2757460     0.5504610     0.0003700
  C        2.4891350    -0.3592320     0.0002730
  C       -2.4891440    -0.3592250    -0.0000420
  H       -0.0002290    -0.8829120    -0.8192120
  H        0.0002430    -0.8834350     0.8183340
  H        1.2343010     1.1850200    -0.8878530
  H        1.2339840     1.1857900     0.8865850
  H       -1.2340510     1.1848610     0.8879670
  H       -1.2342230     1.1859370    -0.8864660
  H        3.3917400     0.2556770    -0.0001140
  H        2.5206350    -0.9914160     0.8916960
  H        2.5206970    -0.9925990    -0.8903100
  H       -3.3917370     0.2557000     0.0002190
  H       -2.5206840    -0.9916000    -0.8913310
  H       -2.5206850    -0.9924050     0.8906710
units angstrom
no_reorient  #important for SAPT in psi4, default
symmetry c1  #important for SAPT in psi4, default
}

set PROPERTIES_ORIGIN ["COM"]
properties('MP2/aug-cc-pvtz', properties = ['dipole'])
--------------------------------------------------------------------------

    Molecular point group: c1
  Charge       = 1
  Multiplicity = 1
  Basis Set: AUG-CC-PVTZ
    Blend: AUG-CC-PVTZ
  Basis Set: (AUG-CC-PVTZ AUX)
    Blend: AUG-CC-PVTZ-JKFIT

    Orbital Energies [Eh]
    ---------------------

    Doubly Occupied:

       1A    -15.878983     2A    -11.466997     3A    -11.456439
       4A    -11.396153     5A    -11.390820     6A     -1.504508
       7A     -1.242683     8A     -1.170738     9A     -1.059314
      10A     -1.043349    11A     -0.946972    12A     -0.858192
      13A     -0.836785    14A     -0.803637    15A     -0.757390
      16A     -0.738225    17A     -0.704705    18A     -0.698983
      19A     -0.689801    20A     -0.684462    21A     -0.679199

  @DF-RHF Final Energy:  -212.76310316344410

   => Energetics <=

    Nuclear Repulsion Energy =            197.9797272483418169
    One-Electron Energy =                -669.4689972518276591
    Two-Electron Energy =                 258.7261668400417420
    Total Energy =                       -212.7631031634441001
  Basis Set: (AUG-CC-PVTZ AUX)
    Blend: AUG-CC-PVTZ-RI
    Molecular point group: c1

    Geometry (in Angstrom), charge = 1, multiplicity = 1:

       Center              X                  Y                   Z               Mass
    ------------   -----------------  -----------------  -----------------  -----------------
         N           -0.043281416603    -0.191729909971    -0.000278617767    14.003074004430
         C            1.285844583397     0.526846390029    -0.000339117767    12.000000000000
         C           -1.265661416603     0.526835390029     0.000381882233    12.000000000000
         C            2.499219583397    -0.382857609971     0.000284882233    12.000000000000
         C           -2.479059416603    -0.382850609971    -0.000030117767    12.000000000000
         H            0.009855583397    -0.906537609971    -0.819200117767     1.007825032230
         H            0.010327583397    -0.907060609971     0.818345882233     1.007825032230
         H            1.244385583397     1.161394390029    -0.887841117767     1.007825032230
         H            1.244068583397     1.162164390029     0.886596882233     1.007825032230
         H           -1.223966416603     1.161235390029     0.887978882233     1.007825032230
         H           -1.224138416603     1.162311390029    -0.886454117767     1.007825032230
         H            3.401824583397     0.232051390029    -0.000102117767     1.007825032230
         H            2.530719583397    -1.015041609971     0.891707882233     1.007825032230
         H            2.530781583397    -1.016224609971    -0.890298117767     1.007825032230
         H           -3.381652416603     0.232074390029     0.000230882233     1.007825032230
         H           -2.510599416603    -1.015225609971    -0.891319117767     1.007825032230
         H           -2.510600416603    -1.016030609971     0.890682882233     1.007825032230

  Basis Set: AUG-CC-PVTZ
    Blend: AUG-CC-PVTZ
  Basis Set: (AUG-CC-PVTZ AUX)
    Blend: AUG-CC-PVTZ-JKFIT
	 Reference Energy          =    -212.7631031634441001 [Eh]
	 Singles Energy            =      -0.0000000000000000 [Eh]
	 Same-Spin Energy          =      -0.2172517775378006 [Eh]
	 Opposite-Spin Energy      =      -0.8117202775548605 [Eh]
	 Correlation Energy        =      -1.0289720550926611 [Eh]
	 Total Energy              =    -213.7920752185367519 [Eh]

	 ================> DF-SCS-MP2 Energies <==================
	-----------------------------------------------------------
	 SCS Same-Spin Scale       =       0.3333333333333333 [-]
	 SCS Opposite-Spin Scale   =       1.2000000000000000 [-]
	 SCS Same-Spin Energy      =      -0.0724172591792668 [Eh]
	 SCS Opposite-Spin Energy  =      -0.9740643330658326 [Eh]
	 SCS Correlation Energy    =      -1.0464815922450994 [Eh]
	 SCS Total Energy          =    -213.8095847556892011 [Eh]
	-----------------------------------------------------------

  Dipole Moment: [D]
     X:     0.1963      Y:    -0.6858      Z:    -0.0006     Total:     0.7134

*** Psi4 exiting successfully. Buy a developer a beer!
