                               Psi4 1.3.2 release

  ==> Input File <==

--------------------------------------------------------------------------
#psi4
#
memory 32 gb

molecule  {
1 1
  N       -0.0000030    -0.2590690    -0.0002410
  C        1.3291230     0.4595073    -0.0003942
  C       -1.2757460     0.5504610     0.0003700
  C        2.4891350    -0.3592320     0.0002730
  C       -2.4891440    -0.3592250    -0.0000420
  H       -0.0002290    -0.8829120    -0.8192120
  H        0.0002430    -0.8834350     0.8183340
  H        1.2343010     1.1850200    -0.8878530
  H        1.2339840     1.1857900     0.8865850
  H       -1.2340510     1.1848610     0.8879670
  H       -1.2342230     1.1859370    -0.8864660
  H        3.3917400     0.2556770    -0.0001140
  H        2.5206350    -0.9914160     0.8916960
  H        2.5206970    -0.9925990    -0.8903100
  H       -3.3917370     0.2557000     0.0002190
  H       -2.5206840    -0.9916000    -0.8913310
  H       -2.5206850    -0.9924050     0.8906710
units angstrom
no_reorient  #important for SAPT in psi4, default
symmetry c1  #important for SAPT in psi4, default
}

set PROPERTIES_ORIGIN ["COM"]
properties('MP2/aug-cc-pvtz', properties = ['dipole'])
--------------------------------------------------------------------------

    Molecular point group: c1
  Charge       = 1
  Multiplicity = 1
  Basis Set: AUG-CC-PVTZ
    Blend: AUG-CC-PVTZ
  Basis Set: (AUG-CC-PVTZ AUX)
    Blend: AUG-CC-PVTZ-JKFIT

    Orbital Energies [Eh]
    ---------------------

    Doubly Occupied:

       1A    -15.869493     2A    -11.470411     3A    -11.466783
       4A    -11.392598     5A    -11.387892     6A     -1.497085
       7A     -1.248378     8A     -1.186404     9A     -1.052455
      10A     -1.030235    11A     -0.962126    12A     -0.851269
      13A     -0.831007    14A     -0.800588    15A     -0.771510
      16A     -0.753847    17A     -0.711888    18A     -0.701303
      19A     -0.687150    20A     -0.684422    21A     -0.658314

  @DF-RHF Final Energy:  -212.76494797318779

   => Energetics <=

    Nuclear Repulsion Energy =            197.7688845249526537
    One-Electron Energy =                -669.0373496064771643
    Two-Electron Energy =                 258.5035171083366663
    Total Energy =                       -212.7649479731878159
  Basis Set: (AUG-CC-PVTZ AUX)
    Blend: AUG-CC-PVTZ-RI
    Molecular point group: c1

    Geometry (in Angstrom), charge = 1, multiplicity = 1:

       Center              X                  Y                   Z               Mass
    ------------   -----------------  -----------------  -----------------  -----------------
         N           -0.008645254635    -0.250772094304    -0.000231476192    14.003074004430
         C            1.320480745365     0.467804205696    -0.000384676192    12.000000000000
         C           -1.284388254635     0.558757905696     0.000379523808    12.000000000000
         C            2.480492745365    -0.350935094304     0.000282523808    12.000000000000
         C           -2.497786254635    -0.350928094304    -0.000032476192    12.000000000000
         H           -0.008871254635    -0.874615094304    -0.819202476192     1.007825032230
         H           -0.008399254635    -0.875138094304     0.818343523808     1.007825032230
         H            1.225658745365     1.193316905696    -0.887843476192     1.007825032230
         H            1.225341745365     1.194086905696     0.886594523808     1.007825032230
         H           -1.242693254635     1.193157905696     0.887976523808     1.007825032230
         H           -1.242865254635     1.194233905696    -0.886456476192     1.007825032230
         H            3.383097745365     0.263973905696    -0.000104476192     1.007825032230
         H            2.511992745365    -0.983119094304     0.891705523808     1.007825032230
         H            2.512054745365    -0.984302094304    -0.890300476192     1.007825032230
         H           -3.400379254635     0.263996905696     0.000228523808     1.007825032230
         H           -2.529326254635    -0.983303094304    -0.891321476192     1.007825032230
         H           -2.529327254635    -0.984108094304     0.890680523808     1.007825032230

  Basis Set: AUG-CC-PVTZ
    Blend: AUG-CC-PVTZ
  Basis Set: (AUG-CC-PVTZ AUX)
    Blend: AUG-CC-PVTZ-JKFIT
	 Reference Energy          =    -212.7649479731877875 [Eh]
	 Singles Energy            =      -0.0000000000000000 [Eh]
	 Same-Spin Energy          =      -0.2167560693337127 [Eh]
	 Opposite-Spin Energy      =      -0.8107068811215866 [Eh]
	 Correlation Energy        =      -1.0274629504552995 [Eh]
	 Total Energy              =    -213.7924109236430752 [Eh]

	 ================> DF-SCS-MP2 Energies <==================
	-----------------------------------------------------------
	 SCS Same-Spin Scale       =       0.3333333333333333 [-]
	 SCS Opposite-Spin Scale   =       1.2000000000000000 [-]
	 SCS Same-Spin Energy      =      -0.0722520231112376 [Eh]
	 SCS Opposite-Spin Energy  =      -0.9728482573459039 [Eh]
	 SCS Correlation Energy    =      -1.0451002804571414 [Eh]
	 SCS Total Energy          =    -213.8100482536449363 [Eh]
	-----------------------------------------------------------

  Dipole Moment: [D]
     X:     0.0173      Y:    -0.5350      Z:    -0.0006     Total:     0.5353

*** Psi4 exiting successfully. Buy a developer a beer!
