                               Psi4 1.4a3.dev225

  ==> Input File <==

--------------------------------------------------------------------------
#psi4
#
memory 32 gb

molecule  {
1 1
  N        0.0000000     0.2689290     0.0000000
  C        1.2208043    -0.5193995     0.0282956
  C       -1.2628000    -0.5465180    -0.0292690
  C        2.4835250     0.3513150    -0.0125090
  C       -2.4835250     0.3513150     0.0125090
  H       -0.0180190     0.8910490     0.8188120
  H        0.0180190     0.8910490    -0.8188120
  H        1.2213520    -1.1422140     0.9417860
  H        1.2165880    -1.2139890    -0.8318790
  H       -1.2213520    -1.1422140    -0.9417860
  H       -1.2165880    -1.2139890     0.8318790
  H        3.3791030    -0.2727590     0.0143590
  H        2.5088070     0.9427720    -0.9309290
  H        2.5122610     1.0251090     0.8471220
  H       -3.3791030    -0.2727590    -0.0143590
  H       -2.5088070     0.9427720     0.9309290
  H       -2.5122610     1.0251090    -0.8471220
units angstrom
no_reorient  #important for SAPT in psi4, default
symmetry c1  #important for SAPT in psi4, default
}

set PROPERTIES_ORIGIN ["COM"]
properties('MP2/aug-cc-pvtz', properties = ['dipole'])
--------------------------------------------------------------------------

    Molecular point group: c1
  Charge       = 1
  Multiplicity = 1
  Basis Set: AUG-CC-PVTZ
    Blend: AUG-CC-PVTZ
  Basis Set: (AUG-CC-PVTZ AUX)
    Blend: AUG-CC-PVTZ-JKFIT

    Orbital Energies [Eh]
    ---------------------

    Doubly Occupied:

       1A    -15.874560     2A    -11.465939     3A    -11.461617
       4A    -11.392809     5A    -11.391149     6A     -1.513435
       7A     -1.236886     8A     -1.174509     9A     -1.063762
      10A     -1.034470    11A     -0.973336    12A     -0.858805
      13A     -0.842180    14A     -0.800701    15A     -0.769756
      16A     -0.739596    17A     -0.704731    18A     -0.696664
      19A     -0.687528    20A     -0.682912    21A     -0.676116

  @DF-RHF Final Energy:  -212.77738817613314

   => Energetics <=

    Nuclear Repulsion Energy =            198.4086809940473017
    One-Electron Energy =                -670.2892147699245697
    Two-Electron Energy =                 259.1031455997440958
    Total Energy =                       -212.7773881761331722
  Basis Set: (AUG-CC-PVTZ AUX)
    Blend: AUG-CC-PVTZ-RI
    Molecular point group: c1

    Geometry (in Angstrom), charge = 1, multiplicity = 1:

       Center              X                  Y                   Z               Mass
    ------------   -----------------  -----------------  -----------------  -----------------
         N            0.006801200780     0.270684568269     0.000157642064    14.003074004430
         C            1.227605500780    -0.517643931731     0.028453242064    12.000000000000
         C           -1.255998799220    -0.544762431731    -0.029111357936    12.000000000000
         C            2.490326200780     0.353070568269    -0.012351357936    12.000000000000
         C           -2.476723799220     0.353070568269     0.012666642064    12.000000000000
         H           -0.011217799220     0.892804568269     0.818969642064     1.007825032230
         H            0.024820200780     0.892804568269    -0.818654357936     1.007825032230
         H            1.228153200780    -1.140458431731     0.941943642064     1.007825032230
         H            1.223389200780    -1.212233431731    -0.831721357936     1.007825032230
         H           -1.214550799220    -1.140458431731    -0.941628357936     1.007825032230
         H           -1.209786799220    -1.212233431731     0.832036642064     1.007825032230
         H            3.385904200780    -0.271003431731     0.014516642064     1.007825032230
         H            2.515608200780     0.944527568269    -0.930771357936     1.007825032230
         H            2.519062200780     1.026864568269     0.847279642064     1.007825032230
         H           -3.372301799220    -0.271003431731    -0.014201357936     1.007825032230
         H           -2.502005799220     0.944527568269     0.931086642064     1.007825032230
         H           -2.505459799220     1.026864568269    -0.846964357936     1.007825032230

  Basis Set: AUG-CC-PVTZ
    Blend: AUG-CC-PVTZ
  Basis Set: (AUG-CC-PVTZ AUX)
    Blend: AUG-CC-PVTZ-JKFIT
	 Reference Energy          =    -212.7773881761331438 [Eh]
	 Singles Energy            =      -0.0000000000000000 [Eh]
	 Same-Spin Energy          =      -0.2158720786365850 [Eh]
	 Opposite-Spin Energy      =      -0.8091631792678406 [Eh]
	 Correlation Energy        =      -1.0250352579044257 [Eh]
	 Total Energy              =    -213.8024234340375642 [Eh]

	 ================> DF-SCS-MP2 Energies <==================
	-----------------------------------------------------------
	 SCS Same-Spin Scale       =       0.3333333333333333 [-]
	 SCS Opposite-Spin Scale   =       1.2000000000000000 [-]
	 SCS Same-Spin Energy      =      -0.0719573595455283 [Eh]
	 SCS Opposite-Spin Energy  =      -0.9709958151214088 [Eh]
	 SCS Correlation Energy    =      -1.0429531746669372 [Eh]
	 SCS Total Energy          =    -213.8203413508000779 [Eh]
	-----------------------------------------------------------

  Dipole Moment: [D]
     X:    -0.1017      Y:     0.5681      Z:    -0.0010     Total:     0.5771

*** Psi4 exiting successfully. Buy a developer a beer!
