                               Psi4 1.3.2 release

  ==> Input File <==

--------------------------------------------------------------------------
#psi4
#
memory 32 gb

molecule  {
1 1
  N       -0.0776343    -0.1212807    -0.0003154
  C        1.2757600     0.5504720    -0.0003510
  C       -1.2757460     0.5504610     0.0003700
  C        2.4891350    -0.3592320     0.0002730
  C       -2.4891440    -0.3592250    -0.0000420
  H       -0.0002290    -0.8829120    -0.8192120
  H        0.0002430    -0.8834350     0.8183340
  H        1.2343010     1.1850200    -0.8878530
  H        1.2339840     1.1857900     0.8865850
  H       -1.2340510     1.1848610     0.8879670
  H       -1.2342230     1.1859370    -0.8864660
  H        3.3917400     0.2556770    -0.0001140
  H        2.5206350    -0.9914160     0.8916960
  H        2.5206970    -0.9925990    -0.8903100
  H       -3.3917370     0.2557000     0.0002190
  H       -2.5206840    -0.9916000    -0.8913310
  H       -2.5206850    -0.9924050     0.8906710
units angstrom
no_reorient  #important for SAPT in psi4, default
symmetry c1  #important for SAPT in psi4, default
}

set PROPERTIES_ORIGIN ["COM"]
properties('MP2/aug-cc-pvtz', properties = ['dipole'])
--------------------------------------------------------------------------

    Molecular point group: c1
  Charge       = 1
  Multiplicity = 1
  Basis Set: AUG-CC-PVTZ
    Blend: AUG-CC-PVTZ
  Basis Set: (AUG-CC-PVTZ AUX)
    Blend: AUG-CC-PVTZ-JKFIT

    Orbital Energies [Eh]
    ---------------------

    Doubly Occupied:

       1A    -15.883016     2A    -11.468275     3A    -11.452528
       4A    -11.398429     5A    -11.390859     6A     -1.510540
       7A     -1.247021     8A     -1.167915     9A     -1.060356
      10A     -1.047574    11A     -0.941315    12A     -0.862209
      13A     -0.837804    14A     -0.804651    15A     -0.748904
      16A     -0.738156    17A     -0.707686    18A     -0.699265
      19A     -0.687004    20A     -0.683601    21A     -0.676842

  @DF-RHF Final Energy:  -212.74422157017420

   => Energetics <=

    Nuclear Repulsion Energy =            198.3587882384174463
    One-Electron Energy =                -670.1781174144895203
    Two-Electron Energy =                 259.0751076058978697
    Total Energy =                       -212.7442215701742043
  Basis Set: (AUG-CC-PVTZ AUX)
    Blend: AUG-CC-PVTZ-RI
    Molecular point group: c1

    Geometry (in Angstrom), charge = 1, multiplicity = 1:

       Center              X                  Y                   Z               Mass
    ------------   -----------------  -----------------  -----------------  -----------------
         N           -0.062963418665    -0.153755177841    -0.000298812088    14.003074004430
         C            1.290430881335     0.517997522159    -0.000334412088    12.000000000000
         C           -1.261075118665     0.517986522159     0.000386587912    12.000000000000
         C            2.503805881335    -0.391706477841     0.000289587912    12.000000000000
         C           -2.474473118665    -0.391699477841    -0.000025412088    12.000000000000
         H            0.014441881335    -0.915386477841    -0.819195412088     1.007825032230
         H            0.014913881335    -0.915909477841     0.818350587912     1.007825032230
         H            1.248971881335     1.152545522159    -0.887836412088     1.007825032230
         H            1.248654881335     1.153315522159     0.886601587912     1.007825032230
         H           -1.219380118665     1.152386522159     0.887983587912     1.007825032230
         H           -1.219552118665     1.153462522159    -0.886449412088     1.007825032230
         H            3.406410881335     0.223202522159    -0.000097412088     1.007825032230
         H            2.535305881335    -1.023890477841     0.891712587912     1.007825032230
         H            2.535367881335    -1.025073477841    -0.890293412088     1.007825032230
         H           -3.377066118665     0.223225522159     0.000235587912     1.007825032230
         H           -2.506013118665    -1.024074477841    -0.891314412088     1.007825032230
         H           -2.506014118665    -1.024879477841     0.890687587912     1.007825032230

  Basis Set: AUG-CC-PVTZ
    Blend: AUG-CC-PVTZ
  Basis Set: (AUG-CC-PVTZ AUX)
    Blend: AUG-CC-PVTZ-JKFIT
	 Reference Energy          =    -212.7442215701742043 [Eh]
	 Singles Energy            =      -0.0000000000000000 [Eh]
	 Same-Spin Energy          =      -0.2184737256736456 [Eh]
	 Opposite-Spin Energy      =      -0.8137748336302741 [Eh]
	 Correlation Energy        =      -1.0322485593039197 [Eh]
	 Total Energy              =    -213.7764701294781275 [Eh]

	 ================> DF-SCS-MP2 Energies <==================
	-----------------------------------------------------------
	 SCS Same-Spin Scale       =       0.3333333333333333 [-]
	 SCS Opposite-Spin Scale   =       1.2000000000000000 [-]
	 SCS Same-Spin Energy      =      -0.0728245752245485 [Eh]
	 SCS Opposite-Spin Energy  =      -0.9765298003563290 [Eh]
	 SCS Correlation Energy    =      -1.0493543755808774 [Eh]
	 SCS Total Energy          =    -213.7935759457550944 [Eh]
	-----------------------------------------------------------

  Dipole Moment: [D]
     X:     0.2751      Y:    -0.7535      Z:    -0.0006     Total:     0.8022

*** Psi4 exiting successfully. Buy a developer a beer!
