                               Psi4 1.3.2 release

  ==> Input File <==

--------------------------------------------------------------------------
#psi4
#
memory 32 gb

molecule  {
1 1
  N       -0.0000030    -0.2590690    -0.0002410
  C        1.2757600     0.5504720    -0.0003510
  C       -1.2757460     0.5504610     0.0003700
  C        2.4891350    -0.3592320     0.0002730
  C       -2.4891440    -0.3592250    -0.0000420
  H       -0.0002290    -0.8829120    -0.8192120
  H        0.0002430    -0.8834350     0.8183340
  H        1.2343010     1.1850200    -0.8878530
  H        1.2339840     1.1857900     0.8865850
  H       -1.2340510     1.1848610     0.8879670
  H       -1.2342230     1.1859370    -0.8864660
  H        3.3917400     0.2556770    -0.0001140
  H        2.5206350    -0.9914160     0.8916960
  H        2.5206970    -0.9925990    -0.8903100
  H       -3.3917370     0.2557000     0.0002190
  H       -2.5206840    -0.9916000    -0.8913310
  H       -2.5206850    -0.9924050     0.8906710
units angstrom
no_reorient  #important for SAPT in psi4, default
symmetry c1  #important for SAPT in psi4, default
}

set PROPERTIES_ORIGIN ["COM"]
properties('MP2/aug-cc-pvtz', properties = ['dipole'])
--------------------------------------------------------------------------

    Molecular point group: c1
  Charge       = 1
  Multiplicity = 1
  Basis Set: AUG-CC-PVTZ
    Blend: AUG-CC-PVTZ
  Basis Set: (AUG-CC-PVTZ AUX)
    Blend: AUG-CC-PVTZ-JKFIT

    Orbital Energies [Eh]
    ---------------------

    Doubly Occupied:

       1A    -15.869546     2A    -11.465126     3A    -11.465112
       4A    -11.391533     5A    -11.391531     6A     -1.496365
       7A     -1.235101     8A     -1.176801     9A     -1.058646
      10A     -1.032558    11A     -0.963404    12A     -0.849371
      13A     -0.833355    14A     -0.802419    15A     -0.773247
      16A     -0.739113    17A     -0.701966    18A     -0.701962
      19A     -0.687472    20A     -0.683953    21A     -0.679354

  @DF-RHF Final Energy:  -212.77955932011207

   => Energetics <=

    Nuclear Repulsion Energy =            197.2589732004672385
    One-Electron Energy =                -668.0811946522768494
    Two-Electron Energy =                 258.0426621316975115
    Total Energy =                       -212.7795593201120710
  Basis Set: (AUG-CC-PVTZ AUX)
    Blend: AUG-CC-PVTZ-RI
    Molecular point group: c1

    Geometry (in Angstrom), charge = 1, multiplicity = 1:

       Center              X                  Y                   Z               Mass
    ------------   -----------------  -----------------  -----------------  -----------------
         N           -0.000003120388    -0.265503821327    -0.000238472429    14.003074004430
         C            1.275759879612     0.544037178673    -0.000348472429    12.000000000000
         C           -1.275746120388     0.544026178673     0.000372527571    12.000000000000
         C            2.489134879612    -0.365666821327     0.000275527571    12.000000000000
         C           -2.489144120388    -0.365659821327    -0.000039472429    12.000000000000
         H           -0.000229120388    -0.889346821327    -0.819209472429     1.007825032230
         H            0.000242879612    -0.889869821327     0.818336527571     1.007825032230
         H            1.234300879612     1.178585178673    -0.887850472429     1.007825032230
         H            1.233983879612     1.179355178673     0.886587527571     1.007825032230
         H           -1.234051120388     1.178426178673     0.887969527571     1.007825032230
         H           -1.234223120388     1.179502178673    -0.886463472429     1.007825032230
         H            3.391739879612     0.249242178673    -0.000111472429     1.007825032230
         H            2.520634879612    -0.997850821327     0.891698527571     1.007825032230
         H            2.520696879612    -0.999033821327    -0.890307472429     1.007825032230
         H           -3.391737120388     0.249265178673     0.000221527571     1.007825032230
         H           -2.520684120388    -0.998034821327    -0.891328472429     1.007825032230
         H           -2.520685120388    -0.998839821327     0.890673527571     1.007825032230

  Basis Set: AUG-CC-PVTZ
    Blend: AUG-CC-PVTZ
  Basis Set: (AUG-CC-PVTZ AUX)
    Blend: AUG-CC-PVTZ-JKFIT
	 Reference Energy          =    -212.7795593201120710 [Eh]
	 Singles Energy            =      -0.0000000000000000 [Eh]
	 Same-Spin Energy          =      -0.2155226609256414 [Eh]
	 Opposite-Spin Energy      =      -0.8091868113481875 [Eh]
	 Correlation Energy        =      -1.0247094722738288 [Eh]
	 Total Energy              =    -213.8042687923858978 [Eh]

	 ================> DF-SCS-MP2 Energies <==================
	-----------------------------------------------------------
	 SCS Same-Spin Scale       =       0.3333333333333333 [-]
	 SCS Opposite-Spin Scale   =       1.2000000000000000 [-]
	 SCS Same-Spin Energy      =      -0.0718408869752138 [Eh]
	 SCS Opposite-Spin Energy  =      -0.9710241736178249 [Eh]
	 SCS Correlation Energy    =      -1.0428650605930387 [Eh]
	 SCS Total Energy          =    -213.8224243807051153 [Eh]
	-----------------------------------------------------------

  Dipole Moment: [D]
     X:     0.0001      Y:    -0.5233      Z:    -0.0006     Total:     0.5233

*** Psi4 exiting successfully. Buy a developer a beer!
