                               Psi4 1.3.2 release

  ==> Input File <==

--------------------------------------------------------------------------
#psi4
#
memory 32 gb

molecule  {
1 1
  N       -0.0000030    -0.2590690    -0.0002410
  C        1.2832057     0.5383058    -0.0225309
  C       -1.2757460     0.5504610     0.0003700
  C        2.4891350    -0.3592320     0.0002730
  C       -2.4891440    -0.3592250    -0.0000420
  H       -0.0002290    -0.8829120    -0.8192120
  H        0.0002430    -0.8834350     0.8183340
  H        1.2343010     1.1850200    -0.8878530
  H        1.2339840     1.1857900     0.8865850
  H       -1.2340510     1.1848610     0.8879670
  H       -1.2342230     1.1859370    -0.8864660
  H        3.3917400     0.2556770    -0.0001140
  H        2.5206350    -0.9914160     0.8916960
  H        2.5206970    -0.9925990    -0.8903100
  H       -3.3917370     0.2557000     0.0002190
  H       -2.5206840    -0.9916000    -0.8913310
  H       -2.5206850    -0.9924050     0.8906710
units angstrom
no_reorient  #important for SAPT in psi4, default
symmetry c1  #important for SAPT in psi4, default
}

set PROPERTIES_ORIGIN ["COM"]
properties('MP2/aug-cc-pvtz', properties = ['dipole'])
--------------------------------------------------------------------------

    Molecular point group: c1
  Charge       = 1
  Multiplicity = 1
  Basis Set: AUG-CC-PVTZ
    Blend: AUG-CC-PVTZ
  Basis Set: (AUG-CC-PVTZ AUX)
    Blend: AUG-CC-PVTZ-JKFIT

    Orbital Energies [Eh]
    ---------------------

    Doubly Occupied:

       1A    -15.869526     2A    -11.465778     3A    -11.465326
       4A    -11.391672     5A    -11.391091     6A     -1.496445
       7A     -1.236545     8A     -1.178040     9A     -1.057834
      10A     -1.032497    11A     -0.963126    12A     -0.849804
      13A     -0.833090    14A     -0.801641    15A     -0.772659
      16A     -0.740831    17A     -0.703874    18A     -0.701912
      19A     -0.685923    20A     -0.685489    21A     -0.677016

  @DF-RHF Final Energy:  -212.77855360782476

   => Energetics <=

    Nuclear Repulsion Energy =            197.3212109963342868
    One-Electron Energy =                -668.1992883302747259
    Two-Electron Energy =                 258.0995237261157058
    Total Energy =                       -212.7785536078247333
  Basis Set: (AUG-CC-PVTZ AUX)
    Blend: AUG-CC-PVTZ-RI
    Molecular point group: c1

    Geometry (in Angstrom), charge = 1, multiplicity = 1:

       Center              X                  Y                   Z               Mass
    ------------   -----------------  -----------------  -----------------  -----------------
         N           -0.001208951000    -0.263533506058     0.003353560879    14.003074004430
         C            1.281999749000     0.533841293942    -0.018936339121    12.000000000000
         C           -1.276951951000     0.545996493942     0.003964560879    12.000000000000
         C            2.487929049000    -0.363696506058     0.003867560879    12.000000000000
         C           -2.490349951000    -0.363689506058     0.003552560879    12.000000000000
         H           -0.001434951000    -0.887376506058    -0.815617439121     1.007825032230
         H           -0.000962951000    -0.887899506058     0.821928560879     1.007825032230
         H            1.233095049000     1.180555493942    -0.884258439121     1.007825032230
         H            1.232778049000     1.181325493942     0.890179560879     1.007825032230
         H           -1.235256951000     1.180396493942     0.891561560879     1.007825032230
         H           -1.235428951000     1.181472493942    -0.882871439121     1.007825032230
         H            3.390534049000     0.251212493942     0.003480560879     1.007825032230
         H            2.519429049000    -0.995880506058     0.895290560879     1.007825032230
         H            2.519491049000    -0.997063506058    -0.886715439121     1.007825032230
         H           -3.392942951000     0.251235493942     0.003813560879     1.007825032230
         H           -2.521889951000    -0.996064506058    -0.887736439121     1.007825032230
         H           -2.521890951000    -0.996869506058     0.894265560879     1.007825032230

  Basis Set: AUG-CC-PVTZ
    Blend: AUG-CC-PVTZ
  Basis Set: (AUG-CC-PVTZ AUX)
    Blend: AUG-CC-PVTZ-JKFIT
	 Reference Energy          =    -212.7785536078247617 [Eh]
	 Singles Energy            =      -0.0000000000000000 [Eh]
	 Same-Spin Energy          =      -0.2156491445316903 [Eh]
	 Opposite-Spin Energy      =      -0.8093249947749774 [Eh]
	 Correlation Energy        =      -1.0249741393066678 [Eh]
	 Total Energy              =    -213.8035277471314259 [Eh]

	 ================> DF-SCS-MP2 Energies <==================
	-----------------------------------------------------------
	 SCS Same-Spin Scale       =       0.3333333333333333 [-]
	 SCS Opposite-Spin Scale   =       1.2000000000000000 [-]
	 SCS Same-Spin Energy      =      -0.0718830481772301 [Eh]
	 SCS Opposite-Spin Energy  =      -0.9711899937299728 [Eh]
	 SCS Correlation Energy    =      -1.0430730419072030 [Eh]
	 SCS Total Energy          =    -213.8216266497319680 [Eh]
	-----------------------------------------------------------

  Dipole Moment: [D]
     X:     0.0012      Y:    -0.5238      Z:     0.0010     Total:     0.5238

*** Psi4 exiting successfully. Buy a developer a beer!
