                               Psi4 1.3.2 release

  ==> Input File <==

--------------------------------------------------------------------------
#psi4
#
memory 32 gb

molecule  {
1 1
  N        0.0158150    -0.2822728     0.0443994
  C        1.2757600     0.5504720    -0.0003510
  C       -1.2757460     0.5504610     0.0003700
  C        2.4891350    -0.3592320     0.0002730
  C       -2.4891440    -0.3592250    -0.0000420
  H       -0.0002290    -0.8829120    -0.8192120
  H        0.0002430    -0.8834350     0.8183340
  H        1.2343010     1.1850200    -0.8878530
  H        1.2339840     1.1857900     0.8865850
  H       -1.2340510     1.1848610     0.8879670
  H       -1.2342230     1.1859370    -0.8864660
  H        3.3917400     0.2556770    -0.0001140
  H        2.5206350    -0.9914160     0.8916960
  H        2.5206970    -0.9925990    -0.8903100
  H       -3.3917370     0.2557000     0.0002190
  H       -2.5206840    -0.9916000    -0.8913310
  H       -2.5206850    -0.9924050     0.8906710
units angstrom
no_reorient  #important for SAPT in psi4, default
symmetry c1  #important for SAPT in psi4, default
}

set PROPERTIES_ORIGIN ["COM"]
properties('MP2/aug-cc-pvtz', properties = ['dipole'])
--------------------------------------------------------------------------

    Molecular point group: c1
  Charge       = 1
  Multiplicity = 1
  Basis Set: AUG-CC-PVTZ
    Blend: AUG-CC-PVTZ
  Basis Set: (AUG-CC-PVTZ AUX)
    Blend: AUG-CC-PVTZ-JKFIT

    Orbital Energies [Eh]
    ---------------------

    Doubly Occupied:

       1A    -15.866641     2A    -11.467759     3A    -11.464834
       4A    -11.391934     5A    -11.390270     6A     -1.495061
       7A     -1.233369     8A     -1.178878     9A     -1.059304
      10A     -1.029965    11A     -0.967264    12A     -0.847820
      13A     -0.832311    14A     -0.802173    15A     -0.775772
      16A     -0.739214    17A     -0.703189    18A     -0.701649
      19A     -0.687676    20A     -0.681490    21A     -0.678296

  @DF-RHF Final Energy:  -212.77649242837396

   => Energetics <=

    Nuclear Repulsion Energy =            197.0684086358677689
    One-Electron Energy =                -667.7000653862505715
    Two-Electron Energy =                 257.8551643220088749
    Total Energy =                       -212.7764924283739560
  Basis Set: (AUG-CC-PVTZ AUX)
    Blend: AUG-CC-PVTZ-RI
    Molecular point group: c1

    Geometry (in Angstrom), charge = 1, multiplicity = 1:

       Center              X                  Y                   Z               Mass
    ------------   -----------------  -----------------  -----------------  -----------------
         N            0.012825545346    -0.284322495871     0.035965647549    14.003074004430
         C            1.272770545346     0.548422304129    -0.008784752451    12.000000000000
         C           -1.278735454654     0.548411304129    -0.008063752451    12.000000000000
         C            2.486145545346    -0.361281695871    -0.008160752451    12.000000000000
         C           -2.492133454654    -0.361274695871    -0.008475752451    12.000000000000
         H           -0.003218454654    -0.884961695871    -0.827645752451     1.007825032230
         H           -0.002746454654    -0.885484695871     0.809900247549     1.007825032230
         H            1.231311545346     1.182970304129    -0.896286752451     1.007825032230
         H            1.230994545346     1.183740304129     0.878151247549     1.007825032230
         H           -1.237040454654     1.182811304129     0.879533247549     1.007825032230
         H           -1.237212454654     1.183887304129    -0.894899752451     1.007825032230
         H            3.388750545346     0.253627304129    -0.008547752451     1.007825032230
         H            2.517645545346    -0.993465695871     0.883262247549     1.007825032230
         H            2.517707545346    -0.994648695871    -0.898743752451     1.007825032230
         H           -3.394726454654     0.253650304129    -0.008214752451     1.007825032230
         H           -2.523673454654    -0.993649695871    -0.899764752451     1.007825032230
         H           -2.523674454654    -0.994454695871     0.882237247549     1.007825032230

  Basis Set: AUG-CC-PVTZ
    Blend: AUG-CC-PVTZ
  Basis Set: (AUG-CC-PVTZ AUX)
    Blend: AUG-CC-PVTZ-JKFIT
	 Reference Energy          =    -212.7764924283739560 [Eh]
	 Singles Energy            =      -0.0000000000000000 [Eh]
	 Same-Spin Energy          =      -0.2152685665319516 [Eh]
	 Opposite-Spin Energy      =      -0.8090185635206990 [Eh]
	 Correlation Energy        =      -1.0242871300526506 [Eh]
	 Total Energy              =    -213.8007795584265978 [Eh]

	 ================> DF-SCS-MP2 Energies <==================
	-----------------------------------------------------------
	 SCS Same-Spin Scale       =       0.3333333333333333 [-]
	 SCS Opposite-Spin Scale   =       1.2000000000000000 [-]
	 SCS Same-Spin Energy      =      -0.0717561888439839 [Eh]
	 SCS Opposite-Spin Energy  =      -0.9708222762248387 [Eh]
	 SCS Correlation Energy    =      -1.0425784650688226 [Eh]
	 SCS Total Energy          =    -213.8190708934427846 [Eh]
	-----------------------------------------------------------

  Dipole Moment: [D]
     X:    -0.0621      Y:    -0.4741      Z:    -0.0619     Total:     0.4822

*** Psi4 exiting successfully. Buy a developer a beer!
