                               Psi4 1.3.2 release

  ==> Input File <==

--------------------------------------------------------------------------
#psi4
#
memory 32 gb

molecule  {
1 1
  N       -0.0269587    -0.2097319    -0.0894679
  C        1.2757600     0.5504720    -0.0003510
  C       -1.2757460     0.5504610     0.0003700
  C        2.4891350    -0.3592320     0.0002730
  C       -2.4891440    -0.3592250    -0.0000420
  H       -0.0002290    -0.8829120    -0.8192120
  H        0.0002430    -0.8834350     0.8183340
  H        1.2343010     1.1850200    -0.8878530
  H        1.2339840     1.1857900     0.8865850
  H       -1.2340510     1.1848610     0.8879670
  H       -1.2342230     1.1859370    -0.8864660
  H        3.3917400     0.2556770    -0.0001140
  H        2.5206350    -0.9914160     0.8916960
  H        2.5206970    -0.9925990    -0.8903100
  H       -3.3917370     0.2557000     0.0002190
  H       -2.5206840    -0.9916000    -0.8913310
  H       -2.5206850    -0.9924050     0.8906710
units angstrom
no_reorient  #important for SAPT in psi4, default
symmetry c1  #important for SAPT in psi4, default
}

set PROPERTIES_ORIGIN ["COM"]
properties('MP2/aug-cc-pvtz', properties = ['dipole'])
--------------------------------------------------------------------------

    Molecular point group: c1
  Charge       = 1
  Multiplicity = 1
  Basis Set: AUG-CC-PVTZ
    Blend: AUG-CC-PVTZ
  Basis Set: (AUG-CC-PVTZ AUX)
    Blend: AUG-CC-PVTZ-JKFIT

    Orbital Energies [Eh]
    ---------------------

    Doubly Occupied:

       1A    -15.874425     2A    -11.466364     3A    -11.461207
       4A    -11.393911     5A    -11.391165     6A     -1.500469
       7A     -1.238710     8A     -1.175032     9A     -1.062591
      10A     -1.038109    11A     -0.949928    12A     -0.854165
      13A     -0.839008    14A     -0.802221    15A     -0.763655
      16A     -0.736773    17A     -0.703131    18A     -0.700576
      19A     -0.689951    20A     -0.682829    21A     -0.678630

  @DF-RHF Final Energy:  -212.76474604155757

   => Energetics <=

    Nuclear Repulsion Energy =            197.5938234353851612
    One-Electron Energy =                -668.7114412535630663
    Two-Electron Energy =                 258.3528717766203613
    Total Energy =                       -212.7647460415575438
  Basis Set: (AUG-CC-PVTZ AUX)
    Blend: AUG-CC-PVTZ-RI
    Molecular point group: c1

    Geometry (in Angstrom), charge = 1, multiplicity = 1:

       Center              X                  Y                   Z               Mass
    ------------   -----------------  -----------------  -----------------  -----------------
         N           -0.021864649336    -0.225490598154    -0.072602998571    14.003074004430
         C            1.280854050664     0.534713301846     0.016513901429    12.000000000000
         C           -1.270651949336     0.534702301846     0.017234901429    12.000000000000
         C            2.494229050664    -0.374990698154     0.017137901429    12.000000000000
         C           -2.484049949336    -0.374983698154     0.016822901429    12.000000000000
         H            0.004865050664    -0.898670698154    -0.802347098571     1.007825032230
         H            0.005337050664    -0.899193698154     0.835198901429     1.007825032230
         H            1.239395050664     1.169261301846    -0.870988098571     1.007825032230
         H            1.239078050664     1.170031301846     0.903449901429     1.007825032230
         H           -1.228956949336     1.169102301846     0.904831901429     1.007825032230
         H           -1.229128949336     1.170178301846    -0.869601098571     1.007825032230
         H            3.396834050664     0.239918301846     0.016750901429     1.007825032230
         H            2.525729050664    -1.007174698154     0.908560901429     1.007825032230
         H            2.525791050664    -1.008357698154    -0.873445098571     1.007825032230
         H           -3.386642949336     0.239941301846     0.017083901429     1.007825032230
         H           -2.515589949336    -1.007358698154    -0.874466098571     1.007825032230
         H           -2.515590949336    -1.008163698154     0.907535901429     1.007825032230

  Basis Set: AUG-CC-PVTZ
    Blend: AUG-CC-PVTZ
  Basis Set: (AUG-CC-PVTZ AUX)
    Blend: AUG-CC-PVTZ-JKFIT
	 Reference Energy          =    -212.7647460415575722 [Eh]
	 Singles Energy            =      -0.0000000000000000 [Eh]
	 Same-Spin Energy          =      -0.2164944647454769 [Eh]
	 Opposite-Spin Energy      =      -0.8108617917534566 [Eh]
	 Correlation Energy        =      -1.0273562564989336 [Eh]
	 Total Energy              =    -213.7921022980565056 [Eh]

	 ================> DF-SCS-MP2 Energies <==================
	-----------------------------------------------------------
	 SCS Same-Spin Scale       =       0.3333333333333333 [-]
	 SCS Opposite-Spin Scale   =       1.2000000000000000 [-]
	 SCS Same-Spin Energy      =      -0.0721648215818256 [Eh]
	 SCS Opposite-Spin Energy  =      -0.9730341501041480 [Eh]
	 SCS Correlation Energy    =      -1.0451989716859735 [Eh]
	 SCS Total Energy          =    -213.8099450132435493 [Eh]
	-----------------------------------------------------------

  Dipole Moment: [D]
     X:     0.1014      Y:    -0.6052      Z:     0.1078     Total:     0.6230

*** Psi4 exiting successfully. Buy a developer a beer!
