                               Psi4 1.3.2 release

  ==> Input File <==

--------------------------------------------------------------------------
#psi4
#
memory 32 gb

molecule  {
1 1
  N       -0.0000030    -0.2590690    -0.0002410
  C        1.2614373     0.5726138    -0.0003401
  C       -1.2757460     0.5504610     0.0003700
  C        2.4891350    -0.3592320     0.0002730
  C       -2.4891440    -0.3592250    -0.0000420
  H       -0.0002290    -0.8829120    -0.8192120
  H        0.0002430    -0.8834350     0.8183340
  H        1.2343010     1.1850200    -0.8878530
  H        1.2339840     1.1857900     0.8865850
  H       -1.2340510     1.1848610     0.8879670
  H       -1.2342230     1.1859370    -0.8864660
  H        3.3917400     0.2556770    -0.0001140
  H        2.5206350    -0.9914160     0.8916960
  H        2.5206970    -0.9925990    -0.8903100
  H       -3.3917370     0.2557000     0.0002190
  H       -2.5206840    -0.9916000    -0.8913310
  H       -2.5206850    -0.9924050     0.8906710
units angstrom
no_reorient  #important for SAPT in psi4, default
symmetry c1  #important for SAPT in psi4, default
}

set PROPERTIES_ORIGIN ["COM"]
properties('MP2/aug-cc-pvtz', properties = ['dipole'])
--------------------------------------------------------------------------

    Molecular point group: c1
  Charge       = 1
  Multiplicity = 1
  Basis Set: AUG-CC-PVTZ
    Blend: AUG-CC-PVTZ
  Basis Set: (AUG-CC-PVTZ AUX)
    Blend: AUG-CC-PVTZ-JKFIT

    Orbital Energies [Eh]
    ---------------------

    Doubly Occupied:

       1A    -15.869688     2A    -11.464757     3A    -11.464119
       4A    -11.392430     5A    -11.391281     6A     -1.496295
       7A     -1.232669     8A     -1.174618     9A     -1.060273
      10A     -1.032746    11A     -0.963888    12A     -0.849186
      13A     -0.834308    14A     -0.803709    15A     -0.774322
      16A     -0.736402    17A     -0.702288    18A     -0.700327
      19A     -0.690429    20A     -0.681004    21A     -0.679870

  @DF-RHF Final Energy:  -212.77915703104119

   => Energetics <=

    Nuclear Repulsion Energy =            197.1467502273951027
    One-Electron Energy =                -667.8625976494903398
    Two-Electron Energy =                 257.9366903910540145
    Total Energy =                       -212.7791570310412226
  Basis Set: (AUG-CC-PVTZ AUX)
    Blend: AUG-CC-PVTZ-RI
    Molecular point group: c1

    Geometry (in Angstrom), charge = 1, multiplicity = 1:

       Center              X                  Y                   Z               Mass
    ------------   -----------------  -----------------  -----------------  -----------------
         N            0.002316439910    -0.269089684342    -0.000240237683    14.003074004430
         C            1.263756739910     0.562593115658    -0.000339337683    12.000000000000
         C           -1.273426560090     0.540440315658     0.000370762317    12.000000000000
         C            2.491454439910    -0.369252684342     0.000273762317    12.000000000000
         C           -2.486824560090    -0.369245684342    -0.000041237683    12.000000000000
         H            0.002090439910    -0.892932684342    -0.819211237683     1.007825032230
         H            0.002562439910    -0.893455684342     0.818334762317     1.007825032230
         H            1.236620439910     1.174999315658    -0.887852237683     1.007825032230
         H            1.236303439910     1.175769315658     0.886585762317     1.007825032230
         H           -1.231731560090     1.174840315658     0.887967762317     1.007825032230
         H           -1.231903560090     1.175916315658    -0.886465237683     1.007825032230
         H            3.394059439910     0.245656315658    -0.000113237683     1.007825032230
         H            2.522954439910    -1.001436684342     0.891696762317     1.007825032230
         H            2.523016439910    -1.002619684342    -0.890309237683     1.007825032230
         H           -3.389417560090     0.245679315658     0.000219762317     1.007825032230
         H           -2.518364560090    -1.001620684342    -0.891330237683     1.007825032230
         H           -2.518365560090    -1.002425684342     0.890671762317     1.007825032230

  Basis Set: AUG-CC-PVTZ
    Blend: AUG-CC-PVTZ
  Basis Set: (AUG-CC-PVTZ AUX)
    Blend: AUG-CC-PVTZ-JKFIT
	 Reference Energy          =    -212.7791570310411942 [Eh]
	 Singles Energy            =      -0.0000000000000000 [Eh]
	 Same-Spin Energy          =      -0.2153438652745222 [Eh]
	 Opposite-Spin Energy      =      -0.8090645400482404 [Eh]
	 Correlation Energy        =      -1.0244084053227624 [Eh]
	 Total Energy              =    -213.8035654363639537 [Eh]

	 ================> DF-SCS-MP2 Energies <==================
	-----------------------------------------------------------
	 SCS Same-Spin Scale       =       0.3333333333333333 [-]
	 SCS Opposite-Spin Scale   =       1.2000000000000000 [-]
	 SCS Same-Spin Energy      =      -0.0717812884248407 [Eh]
	 SCS Opposite-Spin Energy  =      -0.9708774480578883 [Eh]
	 SCS Correlation Energy    =      -1.0426587364827291 [Eh]
	 SCS Total Energy          =    -213.8218157675239297 [Eh]
	-----------------------------------------------------------

  Dipole Moment: [D]
     X:    -0.0015      Y:    -0.5254      Z:    -0.0007     Total:     0.5254

*** Psi4 exiting successfully. Buy a developer a beer!
