                               Psi4 1.3.2 release

  ==> Input File <==

--------------------------------------------------------------------------
#psi4
#
memory 32 gb

molecule  {
1 1
  N       -0.0000030    -0.2590690    -0.0002410
  C        1.2757600     0.5504720    -0.0003510
  C       -1.2757460     0.5504610     0.0003700
  C        2.4891350    -0.3592320     0.0002730
  C       -2.4891440    -0.3592250    -0.0000420
  H       -0.0002150    -0.9385209    -0.7736999
  H        0.0002430    -0.8834350     0.8183340
  H        1.2343010     1.1850200    -0.8878530
  H        1.2339840     1.1857900     0.8865850
  H       -1.2340510     1.1848610     0.8879670
  H       -1.2342230     1.1859370    -0.8864660
  H        3.3917400     0.2556770    -0.0001140
  H        2.5206350    -0.9914160     0.8916960
  H        2.5206970    -0.9925990    -0.8903100
  H       -3.3917370     0.2557000     0.0002190
  H       -2.5206840    -0.9916000    -0.8913310
  H       -2.5206850    -0.9924050     0.8906710
units angstrom
no_reorient  #important for SAPT in psi4, default
symmetry c1  #important for SAPT in psi4, default
}

set PROPERTIES_ORIGIN ["COM"]
properties('MP2/aug-cc-pvtz', properties = ['dipole'])
--------------------------------------------------------------------------

    Molecular point group: c1
  Charge       = 1
  Multiplicity = 1
  Basis Set: AUG-CC-PVTZ
    Blend: AUG-CC-PVTZ
  Basis Set: (AUG-CC-PVTZ AUX)
    Blend: AUG-CC-PVTZ-JKFIT

    Orbital Energies [Eh]
    ---------------------

    Doubly Occupied:

       1A    -15.869343     2A    -11.465328     3A    -11.465314
       4A    -11.391579     5A    -11.391577     6A     -1.496268
       7A     -1.234982     8A     -1.177705     9A     -1.061107
      10A     -1.032500    11A     -0.956506    12A     -0.849340
      13A     -0.837068    14A     -0.802201    15A     -0.771477
      16A     -0.739457    17A     -0.702718    18A     -0.702021
      19A     -0.687272    20A     -0.683956    21A     -0.679285

  @DF-RHF Final Energy:  -212.77895920378913

   => Energetics <=

    Nuclear Repulsion Energy =            197.2308851458935521
    One-Electron Energy =                -668.0256861745471042
    Two-Electron Energy =                 258.0158418248644239
    Total Energy =                       -212.7789592037890998
  Basis Set: (AUG-CC-PVTZ AUX)
    Blend: AUG-CC-PVTZ-RI
    Molecular point group: c1

    Geometry (in Angstrom), charge = 1, multiplicity = 1:

       Center              X                  Y                   Z               Mass
    ------------   -----------------  -----------------  -----------------  -----------------
         N           -0.000003310808    -0.264747460600    -0.000857502207    14.003074004430
         C            1.275759689192     0.544793539400    -0.000967502207    12.000000000000
         C           -1.275746310808     0.544782539400    -0.000246502207    12.000000000000
         C            2.489134689192    -0.364910460600    -0.000343502207    12.000000000000
         C           -2.489144310808    -0.364903460600    -0.000658502207    12.000000000000
         H           -0.000215310808    -0.944199360600    -0.774316402207     1.007825032230
         H            0.000242689192    -0.889113460600     0.817717497793     1.007825032230
         H            1.234300689192     1.179341539400    -0.888469502207     1.007825032230
         H            1.233983689192     1.180111539400     0.885968497793     1.007825032230
         H           -1.234051310808     1.179182539400     0.887350497793     1.007825032230
         H           -1.234223310808     1.180258539400    -0.887082502207     1.007825032230
         H            3.391739689192     0.249998539400    -0.000730502207     1.007825032230
         H            2.520634689192    -0.997094460600     0.891079497793     1.007825032230
         H            2.520696689192    -0.998277460600    -0.890926502207     1.007825032230
         H           -3.391737310808     0.250021539400    -0.000397502207     1.007825032230
         H           -2.520684310808    -0.997278460600    -0.891947502207     1.007825032230
         H           -2.520685310808    -0.998083460600     0.890054497793     1.007825032230

  Basis Set: AUG-CC-PVTZ
    Blend: AUG-CC-PVTZ
  Basis Set: (AUG-CC-PVTZ AUX)
    Blend: AUG-CC-PVTZ-JKFIT
	 Reference Energy          =    -212.7789592037891282 [Eh]
	 Singles Energy            =      -0.0000000000000000 [Eh]
	 Same-Spin Energy          =      -0.2155320497353973 [Eh]
	 Opposite-Spin Energy      =      -0.8091859790469942 [Eh]
	 Correlation Energy        =      -1.0247180287823916 [Eh]
	 Total Energy              =    -213.8036772325715162 [Eh]

	 ================> DF-SCS-MP2 Energies <==================
	-----------------------------------------------------------
	 SCS Same-Spin Scale       =       0.3333333333333333 [-]
	 SCS Opposite-Spin Scale   =       1.2000000000000000 [-]
	 SCS Same-Spin Energy      =      -0.0718440165784658 [Eh]
	 SCS Opposite-Spin Energy  =      -0.9710231748563930 [Eh]
	 SCS Correlation Energy    =      -1.0428671914348588 [Eh]
	 SCS Total Energy          =    -213.8218263952239795 [Eh]
	-----------------------------------------------------------

  Dipole Moment: [D]
     X:     0.0001      Y:    -0.5662      Z:     0.0380     Total:     0.5675

*** Psi4 exiting successfully. Buy a developer a beer!
