                               Psi4 1.3.2 release

  ==> Input File <==

--------------------------------------------------------------------------
#psi4
#
memory 32 gb

molecule  {
1 1
  N       -0.0000030    -0.2590690    -0.0002410
  C        1.2597052     0.5740611     0.0440021
  C       -1.2757460     0.5504610     0.0003700
  C        2.4891350    -0.3592320     0.0002730
  C       -2.4891440    -0.3592250    -0.0000420
  H       -0.0002290    -0.8829120    -0.8192120
  H        0.0002430    -0.8834350     0.8183340
  H        1.2343010     1.1850200    -0.8878530
  H        1.2339840     1.1857900     0.8865850
  H       -1.2340510     1.1848610     0.8879670
  H       -1.2342230     1.1859370    -0.8864660
  H        3.3917400     0.2556770    -0.0001140
  H        2.5206350    -0.9914160     0.8916960
  H        2.5206970    -0.9925990    -0.8903100
  H       -3.3917370     0.2557000     0.0002190
  H       -2.5206840    -0.9916000    -0.8913310
  H       -2.5206850    -0.9924050     0.8906710
units angstrom
no_reorient  #important for SAPT in psi4, default
symmetry c1  #important for SAPT in psi4, default
}

set PROPERTIES_ORIGIN ["COM"]
properties('MP2/aug-cc-pvtz', properties = ['dipole'])
--------------------------------------------------------------------------

    Molecular point group: c1
  Charge       = 1
  Multiplicity = 1
  Basis Set: AUG-CC-PVTZ
    Blend: AUG-CC-PVTZ
  Basis Set: (AUG-CC-PVTZ AUX)
    Blend: AUG-CC-PVTZ-JKFIT

    Orbital Energies [Eh]
    ---------------------

    Doubly Occupied:

       1A    -15.869846     2A    -11.464746     3A    -11.464269
       4A    -11.392686     5A    -11.391273     6A     -1.496385
       7A     -1.232512     8A     -1.174500     9A     -1.060766
      10A     -1.033065    11A     -0.963745    12A     -0.850758
      13A     -0.835174    14A     -0.802562    15A     -0.773991
      16A     -0.736461    17A     -0.704812    18A     -0.701641
      19A     -0.687570    20A     -0.681392    21A     -0.677161

  @DF-RHF Final Energy:  -212.77644404769273

   => Energetics <=

    Nuclear Repulsion Energy =            197.1359958436643183
    One-Electron Energy =                -667.8342490429853342
    Two-Electron Energy =                 257.9218091516282811
    Total Energy =                       -212.7764440476927348
  Basis Set: (AUG-CC-PVTZ AUX)
    Blend: AUG-CC-PVTZ-RI
    Molecular point group: c1

    Geometry (in Angstrom), charge = 1, multiplicity = 1:

       Center              X                  Y                   Z               Mass
    ------------   -----------------  -----------------  -----------------  -----------------
         N            0.002596953389    -0.269324074479    -0.007421453979    14.003074004430
         C            1.262305153389     0.563806025521     0.036821646021    12.000000000000
         C           -1.273146046611     0.540205925521    -0.006810453979    12.000000000000
         C            2.491734953389    -0.369487074479    -0.006907453979    12.000000000000
         C           -2.486544046611    -0.369480074479    -0.007222453979    12.000000000000
         H            0.002370953389    -0.893167074479    -0.826392453979     1.007825032230
         H            0.002842953389    -0.893690074479     0.811153546021     1.007825032230
         H            1.236900953389     1.174764925521    -0.895033453979     1.007825032230
         H            1.236583953389     1.175534925521     0.879404546021     1.007825032230
         H           -1.231451046611     1.174605925521     0.880786546021     1.007825032230
         H           -1.231623046611     1.175681925521    -0.893646453979     1.007825032230
         H            3.394339953389     0.245421925521    -0.007294453979     1.007825032230
         H            2.523234953389    -1.001671074479     0.884515546021     1.007825032230
         H            2.523296953389    -1.002854074479    -0.897490453979     1.007825032230
         H           -3.389137046611     0.245444925521    -0.006961453979     1.007825032230
         H           -2.518084046611    -1.001855074479    -0.898511453979     1.007825032230
         H           -2.518085046611    -1.002660074479     0.883490546021     1.007825032230

  Basis Set: AUG-CC-PVTZ
    Blend: AUG-CC-PVTZ
  Basis Set: (AUG-CC-PVTZ AUX)
    Blend: AUG-CC-PVTZ-JKFIT
	 Reference Energy          =    -212.7764440476927348 [Eh]
	 Singles Energy            =      -0.0000000000000000 [Eh]
	 Same-Spin Energy          =      -0.2153672155067283 [Eh]
	 Opposite-Spin Energy      =      -0.8091824295800566 [Eh]
	 Correlation Energy        =      -1.0245496450867848 [Eh]
	 Total Energy              =    -213.8009936927795138 [Eh]

	 ================> DF-SCS-MP2 Energies <==================
	-----------------------------------------------------------
	 SCS Same-Spin Scale       =       0.3333333333333333 [-]
	 SCS Opposite-Spin Scale   =       1.2000000000000000 [-]
	 SCS Same-Spin Energy      =      -0.0717890718355761 [Eh]
	 SCS Opposite-Spin Energy  =      -0.9710189154960679 [Eh]
	 SCS Correlation Energy    =      -1.0428079873316440 [Eh]
	 SCS Total Energy          =    -213.8192520350243910 [Eh]
	-----------------------------------------------------------

  Dipole Moment: [D]
     X:    -0.0025      Y:    -0.5292      Z:    -0.0075     Total:     0.5293

*** Psi4 exiting successfully. Buy a developer a beer!
