                               Psi4 1.3.2 release

  ==> Input File <==

--------------------------------------------------------------------------
#psi4
#
memory 32 gb

molecule  {
1 1
  N       -0.0000030    -0.2590690    -0.0002410
  C        1.1841512     0.6793908    -0.0002852
  C       -1.2757460     0.5504610     0.0003700
  C        2.4891350    -0.3592320     0.0002730
  C       -2.4891440    -0.3592250    -0.0000420
  H       -0.0002290    -0.8829120    -0.8192120
  H        0.0002430    -0.8834350     0.8183340
  H        1.2343010     1.1850200    -0.8878530
  H        1.2339840     1.1857900     0.8865850
  H       -1.2340510     1.1848610     0.8879670
  H       -1.2342230     1.1859370    -0.8864660
  H        3.3917400     0.2556770    -0.0001140
  H        2.5206350    -0.9914160     0.8916960
  H        2.5206970    -0.9925990    -0.8903100
  H       -3.3917370     0.2557000     0.0002190
  H       -2.5206840    -0.9916000    -0.8913310
  H       -2.5206850    -0.9924050     0.8906710
units angstrom
no_reorient  #important for SAPT in psi4, default
symmetry c1  #important for SAPT in psi4, default
}

set PROPERTIES_ORIGIN ["COM"]
properties('MP2/aug-cc-pvtz', properties = ['dipole'])
--------------------------------------------------------------------------

    Molecular point group: c1
  Charge       = 1
  Multiplicity = 1
  Basis Set: AUG-CC-PVTZ
    Blend: AUG-CC-PVTZ
  Basis Set: (AUG-CC-PVTZ AUX)
    Blend: AUG-CC-PVTZ-JKFIT

    Orbital Energies [Eh]
    ---------------------

    Doubly Occupied:

       1A    -15.871043     2A    -11.463316     3A    -11.461391
       4A    -11.396703     5A    -11.390116     6A     -1.496562
       7A     -1.223924     8A     -1.166322     9A     -1.067147
      10A     -1.032897    11A     -0.967204    12A     -0.851529
      13A     -0.837600    14A     -0.816375    15A     -0.780115
      16A     -0.727457    17A     -0.703788    18A     -0.703737
      19A     -0.696767    20A     -0.682330    21A     -0.646095

  @DF-RHF Final Energy:  -212.75727694369135

   => Energetics <=

    Nuclear Repulsion Energy =            196.6638212813915914
    One-Electron Energy =                -666.8773622334867923
    Two-Electron Energy =                 257.4562640084038208
    Total Energy =                       -212.7572769436913518
  Basis Set: (AUG-CC-PVTZ AUX)
    Blend: AUG-CC-PVTZ-RI
    Molecular point group: c1

    Geometry (in Angstrom), charge = 1, multiplicity = 1:

       Center              X                  Y                   Z               Mass
    ------------   -----------------  -----------------  -----------------  -----------------
         N            0.014832918587    -0.286382212283    -0.000249128734    14.003074004430
         C            1.198987118587     0.652077587717    -0.000293328734    12.000000000000
         C           -1.260910081413     0.523147787717     0.000361871266    12.000000000000
         C            2.503970918587    -0.386545212283     0.000264871266    12.000000000000
         C           -2.474308081413    -0.386538212283    -0.000050128734    12.000000000000
         H            0.014606918587    -0.910225212283    -0.819220128734     1.007825032230
         H            0.015078918587    -0.910748212283     0.818325871266     1.007825032230
         H            1.249136918587     1.157706787717    -0.887861128734     1.007825032230
         H            1.248819918587     1.158476787717     0.886576871266     1.007825032230
         H           -1.219215081413     1.157547787717     0.887958871266     1.007825032230
         H           -1.219387081413     1.158623787717    -0.886474128734     1.007825032230
         H            3.406575918587     0.228363787717    -0.000122128734     1.007825032230
         H            2.535470918587    -1.018729212283     0.891687871266     1.007825032230
         H            2.535532918587    -1.019912212283    -0.890318128734     1.007825032230
         H           -3.376901081413     0.228386787717     0.000210871266     1.007825032230
         H           -2.505848081413    -1.018913212283    -0.891339128734     1.007825032230
         H           -2.505849081413    -1.019718212283     0.890662871266     1.007825032230

  Basis Set: AUG-CC-PVTZ
    Blend: AUG-CC-PVTZ
  Basis Set: (AUG-CC-PVTZ AUX)
    Blend: AUG-CC-PVTZ-JKFIT
	 Reference Energy          =    -212.7572769436913518 [Eh]
	 Singles Energy            =      -0.0000000000000000 [Eh]
	 Same-Spin Energy          =      -0.2152101696438638 [Eh]
	 Opposite-Spin Energy      =      -0.8099870958387179 [Eh]
	 Correlation Energy        =      -1.0251972654825816 [Eh]
	 Total Energy              =    -213.7824742091739267 [Eh]

	 ================> DF-SCS-MP2 Energies <==================
	-----------------------------------------------------------
	 SCS Same-Spin Scale       =       0.3333333333333333 [-]
	 SCS Opposite-Spin Scale   =       1.2000000000000000 [-]
	 SCS Same-Spin Energy      =      -0.0717367232146213 [Eh]
	 SCS Opposite-Spin Energy  =      -0.9719845150064614 [Eh]
	 SCS Correlation Energy    =      -1.0437212382210828 [Eh]
	 SCS Total Energy          =    -213.8009981819124334 [Eh]
	-----------------------------------------------------------

  Dipole Moment: [D]
     X:     0.0073      Y:    -0.5620      Z:    -0.0007     Total:     0.5621

*** Psi4 exiting successfully. Buy a developer a beer!
