                               Psi4 1.3.2 release

  ==> Input File <==

--------------------------------------------------------------------------
#psi4
#
memory 32 gb

molecule  {
1 1
  N       -0.0073303    -0.2470954    -0.0225647
  C        1.2757600     0.5504720    -0.0003510
  C       -1.2757460     0.5504610     0.0003700
  C        2.4891350    -0.3592320     0.0002730
  C       -2.4891440    -0.3592250    -0.0000420
  H       -0.0002290    -0.8829120    -0.8192120
  H        0.0002430    -0.8834350     0.8183340
  H        1.2343010     1.1850200    -0.8878530
  H        1.2339840     1.1857900     0.8865850
  H       -1.2340510     1.1848610     0.8879670
  H       -1.2342230     1.1859370    -0.8864660
  H        3.3917400     0.2556770    -0.0001140
  H        2.5206350    -0.9914160     0.8916960
  H        2.5206970    -0.9925990    -0.8903100
  H       -3.3917370     0.2557000     0.0002190
  H       -2.5206840    -0.9916000    -0.8913310
  H       -2.5206850    -0.9924050     0.8906710
units angstrom
no_reorient  #important for SAPT in psi4, default
symmetry c1  #important for SAPT in psi4, default
}

set PROPERTIES_ORIGIN ["COM"]
properties('MP2/aug-cc-pvtz', properties = ['dipole'])
--------------------------------------------------------------------------

    Molecular point group: c1
  Charge       = 1
  Multiplicity = 1
  Basis Set: AUG-CC-PVTZ
    Blend: AUG-CC-PVTZ
  Basis Set: (AUG-CC-PVTZ AUX)
    Blend: AUG-CC-PVTZ-JKFIT

    Orbital Energies [Eh]
    ---------------------

    Doubly Occupied:

       1A    -15.870863     2A    -11.465351     3A    -11.463963
       4A    -11.392146     5A    -11.391386     6A     -1.497243
       7A     -1.235992     8A     -1.176105     9A     -1.059061
      10A     -1.033913    11A     -0.960609    12A     -0.850410
      13A     -0.834385    14A     -0.802465    15A     -0.771158
      16A     -0.738860    17A     -0.702175    18A     -0.701452
      19A     -0.686989    20A     -0.685468    21A     -0.679337

  @DF-RHF Final Energy:  -212.77825876455287

   => Energetics <=

    Nuclear Repulsion Energy =            197.3497000197704949
    One-Electron Energy =                -668.2572517216773349
    Two-Electron Energy =                 258.1292929373540233
    Total Energy =                       -212.7782587645528452
  Basis Set: (AUG-CC-PVTZ AUX)
    Blend: AUG-CC-PVTZ-RI
    Molecular point group: c1

    Geometry (in Angstrom), charge = 1, multiplicity = 1:

       Center              X                  Y                   Z               Mass
    ------------   -----------------  -----------------  -----------------  -----------------
         N           -0.005945684708    -0.255793029063    -0.018343370977    14.003074004430
         C            1.277144615292     0.541774370937     0.003870329023    12.000000000000
         C           -1.274361384708     0.541763370937     0.004591329023    12.000000000000
         C            2.490519615292    -0.367929629063     0.004494329023    12.000000000000
         C           -2.487759384708    -0.367922629063     0.004179329023    12.000000000000
         H            0.001155615292    -0.891609629063    -0.814990670977     1.007825032230
         H            0.001627615292    -0.892132629063     0.822555329023     1.007825032230
         H            1.235685615292     1.176322370937    -0.883631670977     1.007825032230
         H            1.235368615292     1.177092370937     0.890806329023     1.007825032230
         H           -1.232666384708     1.176163370937     0.892188329023     1.007825032230
         H           -1.232838384708     1.177239370937    -0.882244670977     1.007825032230
         H            3.393124615292     0.246979370937     0.004107329023     1.007825032230
         H            2.522019615292    -1.000113629063     0.895917329023     1.007825032230
         H            2.522081615292    -1.001296629063    -0.886088670977     1.007825032230
         H           -3.390352384708     0.247002370937     0.004440329023     1.007825032230
         H           -2.519299384708    -1.000297629063    -0.887109670977     1.007825032230
         H           -2.519300384708    -1.001102629063     0.894892329023     1.007825032230

  Basis Set: AUG-CC-PVTZ
    Blend: AUG-CC-PVTZ
  Basis Set: (AUG-CC-PVTZ AUX)
    Blend: AUG-CC-PVTZ-JKFIT
	 Reference Energy          =    -212.7782587645528736 [Eh]
	 Singles Energy            =      -0.0000000000000000 [Eh]
	 Same-Spin Energy          =      -0.2157083413252650 [Eh]
	 Opposite-Spin Energy      =      -0.8094404781303869 [Eh]
	 Correlation Energy        =      -1.0251488194556519 [Eh]
	 Total Energy              =    -213.8034075840085393 [Eh]

	 ================> DF-SCS-MP2 Energies <==================
	-----------------------------------------------------------
	 SCS Same-Spin Scale       =       0.3333333333333333 [-]
	 SCS Opposite-Spin Scale   =       1.2000000000000000 [-]
	 SCS Same-Spin Energy      =      -0.0719027804417550 [Eh]
	 SCS Opposite-Spin Energy  =      -0.9713285737564642 [Eh]
	 SCS Correlation Energy    =      -1.0432313541982192 [Eh]
	 SCS Total Energy          =    -213.8214901187510861 [Eh]
	-----------------------------------------------------------

  Dipole Moment: [D]
     X:     0.0284      Y:    -0.5458      Z:     0.0283     Total:     0.5473

*** Psi4 exiting successfully. Buy a developer a beer!
