                               Psi4 1.3.2 release

  ==> Input File <==

--------------------------------------------------------------------------
#psi4
#
memory 32 gb

molecule  {
1 1
  N        0.0143197    -0.2812108    -0.0002287
  C        1.2757600     0.5504720    -0.0003510
  C       -1.2757460     0.5504610     0.0003700
  C        2.4891350    -0.3592320     0.0002730
  C       -2.4891440    -0.3592250    -0.0000420
  H       -0.0002290    -0.8829120    -0.8192120
  H        0.0002430    -0.8834350     0.8183340
  H        1.2343010     1.1850200    -0.8878530
  H        1.2339840     1.1857900     0.8865850
  H       -1.2340510     1.1848610     0.8879670
  H       -1.2342230     1.1859370    -0.8864660
  H        3.3917400     0.2556770    -0.0001140
  H        2.5206350    -0.9914160     0.8916960
  H        2.5206970    -0.9925990    -0.8903100
  H       -3.3917370     0.2557000     0.0002190
  H       -2.5206840    -0.9916000    -0.8913310
  H       -2.5206850    -0.9924050     0.8906710
units angstrom
no_reorient  #important for SAPT in psi4, default
symmetry c1  #important for SAPT in psi4, default
}

set PROPERTIES_ORIGIN ["COM"]
properties('MP2/aug-cc-pvtz', properties = ['dipole'])
--------------------------------------------------------------------------

    Molecular point group: c1
  Charge       = 1
  Multiplicity = 1
  Basis Set: AUG-CC-PVTZ
    Blend: AUG-CC-PVTZ
  Basis Set: (AUG-CC-PVTZ AUX)
    Blend: AUG-CC-PVTZ-JKFIT

    Orbital Energies [Eh]
    ---------------------

    Doubly Occupied:

       1A    -15.866954     2A    -11.467416     3A    -11.464756
       4A    -11.391872     5A    -11.390366     6A     -1.494933
       7A     -1.233503     8A     -1.178290     9A     -1.058250
      10A     -1.030133    11A     -0.968280    12A     -0.847802
      13A     -0.831387    14A     -0.802333    15A     -0.776591
      16A     -0.739460    17A     -0.702994    18A     -0.701634
      19A     -0.688072    20A     -0.680932    21A     -0.679182

  @DF-RHF Final Energy:  -212.77953843464954

   => Energetics <=

    Nuclear Repulsion Energy =            197.0864419386042528
    One-Electron Energy =                -667.7416785393529608
    Two-Electron Energy =                 257.8756981660991414
    Total Energy =                       -212.7795384346495666
  Basis Set: (AUG-CC-PVTZ AUX)
    Blend: AUG-CC-PVTZ-RI
    Molecular point group: c1

    Geometry (in Angstrom), charge = 1, multiplicity = 1:

       Center              X                  Y                   Z               Mass
    ------------   -----------------  -----------------  -----------------  -----------------
         N            0.011612831737    -0.283461195896    -0.000228496921    14.003074004430
         C            1.273053131737     0.548221604104    -0.000350796921    12.000000000000
         C           -1.278452868263     0.548210604104     0.000370203079    12.000000000000
         C            2.486428131737    -0.361482395896     0.000273203079    12.000000000000
         C           -2.491850868263    -0.361475395896    -0.000041796921    12.000000000000
         H           -0.002935868263    -0.885162395896    -0.819211796921     1.007825032230
         H           -0.002463868263    -0.885685395896     0.818334203079     1.007825032230
         H            1.231594131737     1.182769604104    -0.887852796921     1.007825032230
         H            1.231277131737     1.183539604104     0.886585203079     1.007825032230
         H           -1.236757868263     1.182610604104     0.887967203079     1.007825032230
         H           -1.236929868263     1.183686604104    -0.886465796921     1.007825032230
         H            3.389033131737     0.253426604104    -0.000113796921     1.007825032230
         H            2.517928131737    -0.993666395896     0.891696203079     1.007825032230
         H            2.517990131737    -0.994849395896    -0.890309796921     1.007825032230
         H           -3.394443868263     0.253449604104     0.000219203079     1.007825032230
         H           -2.523390868263    -0.993850395896    -0.891330796921     1.007825032230
         H           -2.523391868263    -0.994655395896     0.890671203079     1.007825032230

  Basis Set: AUG-CC-PVTZ
    Blend: AUG-CC-PVTZ
  Basis Set: (AUG-CC-PVTZ AUX)
    Blend: AUG-CC-PVTZ-JKFIT
	 Reference Energy          =    -212.7795384346495382 [Eh]
	 Singles Energy            =      -0.0000000000000000 [Eh]
	 Same-Spin Energy          =      -0.2152398215258749 [Eh]
	 Opposite-Spin Energy      =      -0.8088787873647838 [Eh]
	 Correlation Energy        =      -1.0241186088906586 [Eh]
	 Total Energy              =    -213.8036570435401984 [Eh]

	 ================> DF-SCS-MP2 Energies <==================
	-----------------------------------------------------------
	 SCS Same-Spin Scale       =       0.3333333333333333 [-]
	 SCS Opposite-Spin Scale   =       1.2000000000000000 [-]
	 SCS Same-Spin Energy      =      -0.0717466071752916 [Eh]
	 SCS Opposite-Spin Energy  =      -0.9706545448377405 [Eh]
	 SCS Correlation Energy    =      -1.0424011520130321 [Eh]
	 SCS Total Energy          =    -213.8219395866625803 [Eh]
	-----------------------------------------------------------

  Dipole Moment: [D]
     X:    -0.0563      Y:    -0.4791      Z:    -0.0007     Total:     0.4824

*** Psi4 exiting successfully. Buy a developer a beer!
