                               Psi4 1.4a3.dev225

  ==> Input File <==

--------------------------------------------------------------------------
#psi4
#
memory 32 gb

molecule  {
1 1
  N        0.0000000     0.2689290     0.0000000
  C        1.2628000    -0.5465180     0.0292690
  C       -1.2628000    -0.5465180    -0.0292690
  C        2.4835250     0.3513150    -0.0125090
  C       -2.4835250     0.3513150     0.0125090
  H       -0.0188950     0.9212931     0.8586181
  H        0.0180190     0.8910490    -0.8188120
  H        1.2213520    -1.1422140     0.9417860
  H        1.2165880    -1.2139890    -0.8318790
  H       -1.2213520    -1.1422140    -0.9417860
  H       -1.2165880    -1.2139890     0.8318790
  H        3.3791030    -0.2727590     0.0143590
  H        2.5088070     0.9427720    -0.9309290
  H        2.5122610     1.0251090     0.8471220
  H       -3.3791030    -0.2727590    -0.0143590
  H       -2.5088070     0.9427720     0.9309290
  H       -2.5122610     1.0251090    -0.8471220
units angstrom
no_reorient  #important for SAPT in psi4, default
symmetry c1  #important for SAPT in psi4, default
}

set PROPERTIES_ORIGIN ["COM"]
properties('MP2/aug-cc-pvtz', properties = ['dipole'])
--------------------------------------------------------------------------

    Molecular point group: c1
  Charge       = 1
  Multiplicity = 1
  Basis Set: AUG-CC-PVTZ
    Blend: AUG-CC-PVTZ
  Basis Set: (AUG-CC-PVTZ AUX)
    Blend: AUG-CC-PVTZ-JKFIT

    Orbital Energies [Eh]
    ---------------------

    Doubly Occupied:

       1A    -15.873558     2A    -11.463542     3A    -11.463524
       4A    -11.391059     5A    -11.391036     6A     -1.493882
       7A     -1.235821     8A     -1.174977     9A     -1.058048
      10A     -1.031943    11A     -0.957655    12A     -0.850686
      13A     -0.832821    14A     -0.802658    15A     -0.770866
      16A     -0.738802    17A     -0.702561    18A     -0.701270
      19A     -0.687523    20A     -0.683545    21A     -0.678993

  @DF-RHF Final Energy:  -212.77625152881461

   => Energetics <=

    Nuclear Repulsion Energy =            197.6002763618827771
    One-Electron Energy =                -668.7835185527230806
    Two-Electron Energy =                 258.4069906620256916
    Total Energy =                       -212.7762515288146119
  Basis Set: (AUG-CC-PVTZ AUX)
    Blend: AUG-CC-PVTZ-RI
    Molecular point group: c1

    Geometry (in Angstrom), charge = 1, multiplicity = 1:

       Center              X                  Y                   Z               Mass
    ------------   -----------------  -----------------  -----------------  -----------------
         N            0.000011914855     0.274665044413    -0.000541420002    14.003074004430
         C            1.262811914855    -0.540781955587     0.028727579998    12.000000000000
         C           -1.262788085145    -0.540781955587    -0.029810420002    12.000000000000
         C            2.483536914855     0.357051044413    -0.013050420002    12.000000000000
         C           -2.483513085145     0.357051044413     0.011967579998    12.000000000000
         H           -0.018883085145     0.927029144413     0.858076679998     1.007825032230
         H            0.018030914855     0.896785044413    -0.819353420002     1.007825032230
         H            1.221363914855    -1.136477955587     0.941244579998     1.007825032230
         H            1.216599914855    -1.208252955587    -0.832420420002     1.007825032230
         H           -1.221340085145    -1.136477955587    -0.942327420002     1.007825032230
         H           -1.216576085145    -1.208252955587     0.831337579998     1.007825032230
         H            3.379114914855    -0.267022955587     0.013817579998     1.007825032230
         H            2.508818914855     0.948508044413    -0.931470420002     1.007825032230
         H            2.512272914855     1.030845044413     0.846580579998     1.007825032230
         H           -3.379091085145    -0.267022955587    -0.014900420002     1.007825032230
         H           -2.508795085145     0.948508044413     0.930387579998     1.007825032230
         H           -2.512249085145     1.030845044413    -0.847663420002     1.007825032230

  Basis Set: AUG-CC-PVTZ
    Blend: AUG-CC-PVTZ
  Basis Set: (AUG-CC-PVTZ AUX)
    Blend: AUG-CC-PVTZ-JKFIT
	 Reference Energy          =    -212.7762515288146119 [Eh]
	 Singles Energy            =      -0.0000000000000000 [Eh]
	 Same-Spin Energy          =      -0.2159789006697999 [Eh]
	 Opposite-Spin Energy      =      -0.8101073938944221 [Eh]
	 Correlation Energy        =      -1.0260862945642220 [Eh]
	 Total Energy              =    -213.8023378233788208 [Eh]

	 ================> DF-SCS-MP2 Energies <==================
	-----------------------------------------------------------
	 SCS Same-Spin Scale       =       0.3333333333333333 [-]
	 SCS Opposite-Spin Scale   =       1.2000000000000000 [-]
	 SCS Same-Spin Energy      =      -0.0719929668899333 [Eh]
	 SCS Opposite-Spin Energy  =      -0.9721288726733065 [Eh]
	 SCS Correlation Energy    =      -1.0441218395632397 [Eh]
	 SCS Total Energy          =    -213.8203733683778580 [Eh]
	-----------------------------------------------------------

  Dipole Moment: [D]
     X:    -0.0015      Y:     0.5753      Z:     0.0423     Total:     0.5768

*** Psi4 exiting successfully. Buy a developer a beer!
