                               Psi4 1.3.2 release

  ==> Input File <==

--------------------------------------------------------------------------
#psi4
#
memory 32 gb

molecule  {
1 1
  N       -0.0000030    -0.2590690    -0.0002410
  C        1.2896941     0.5280836    -0.0003619
  C       -1.2757460     0.5504610     0.0003700
  C        2.4891350    -0.3592320     0.0002730
  C       -2.4891440    -0.3592250    -0.0000420
  H       -0.0002290    -0.8829120    -0.8192120
  H        0.0002430    -0.8834350     0.8183340
  H        1.2343010     1.1850200    -0.8878530
  H        1.2339840     1.1857900     0.8865850
  H       -1.2340510     1.1848610     0.8879670
  H       -1.2342230     1.1859370    -0.8864660
  H        3.3917400     0.2556770    -0.0001140
  H        2.5206350    -0.9914160     0.8916960
  H        2.5206970    -0.9925990    -0.8903100
  H       -3.3917370     0.2557000     0.0002190
  H       -2.5206840    -0.9916000    -0.8913310
  H       -2.5206850    -0.9924050     0.8906710
units angstrom
no_reorient  #important for SAPT in psi4, default
symmetry c1  #important for SAPT in psi4, default
}

set PROPERTIES_ORIGIN ["COM"]
properties('MP2/aug-cc-pvtz', properties = ['dipole'])
--------------------------------------------------------------------------

    Molecular point group: c1
  Charge       = 1
  Multiplicity = 1
  Basis Set: AUG-CC-PVTZ
    Blend: AUG-CC-PVTZ
  Basis Set: (AUG-CC-PVTZ AUX)
    Blend: AUG-CC-PVTZ-JKFIT

    Orbital Energies [Eh]
    ---------------------

    Doubly Occupied:

       1A    -15.869454     2A    -11.466258     3A    -11.465501
       4A    -11.391788     5A    -11.390624     6A     -1.496479
       7A     -1.237847     8A     -1.179110     9A     -1.056998
      10A     -1.032255    11A     -0.962986    12A     -0.849696
      13A     -0.832477    14A     -0.801503    15A     -0.772385
      16A     -0.742236    17A     -0.704171    18A     -0.701676
      19A     -0.686567    20A     -0.685662    21A     -0.675954

  @DF-RHF Final Energy:  -212.77841850147942

   => Energetics <=

    Nuclear Repulsion Energy =            197.3770986542944001
    One-Electron Energy =                -668.3077781638527313
    Two-Electron Energy =                 258.1522610080788809
    Total Energy =                       -212.7784185014794502
  Basis Set: (AUG-CC-PVTZ AUX)
    Blend: AUG-CC-PVTZ-RI
    Molecular point group: c1

    Geometry (in Angstrom), charge = 1, multiplicity = 1:

       Center              X                  Y                   Z               Mass
    ------------   -----------------  -----------------  -----------------  -----------------
         N           -0.002259746942    -0.261878021459    -0.000236707175    14.003074004430
         C            1.287437353058     0.525274578541    -0.000357607175    12.000000000000
         C           -1.278002746942     0.547651978541     0.000374292825    12.000000000000
         C            2.486878253058    -0.362041021459     0.000277292825    12.000000000000
         C           -2.491400746942    -0.362034021459    -0.000037707175    12.000000000000
         H           -0.002485746942    -0.885721021459    -0.819207707175     1.007825032230
         H           -0.002013746942    -0.886244021459     0.818338292825     1.007825032230
         H            1.232044253058     1.182210978541    -0.887848707175     1.007825032230
         H            1.231727253058     1.182980978541     0.886589292825     1.007825032230
         H           -1.236307746942     1.182051978541     0.887971292825     1.007825032230
         H           -1.236479746942     1.183127978541    -0.886461707175     1.007825032230
         H            3.389483253058     0.252867978541    -0.000109707175     1.007825032230
         H            2.518378253058    -0.994225021459     0.891700292825     1.007825032230
         H            2.518440253058    -0.995408021459    -0.890305707175     1.007825032230
         H           -3.393993746942     0.252890978541     0.000223292825     1.007825032230
         H           -2.522940746942    -0.994409021459    -0.891326707175     1.007825032230
         H           -2.522941746942    -0.995214021459     0.890675292825     1.007825032230

  Basis Set: AUG-CC-PVTZ
    Blend: AUG-CC-PVTZ
  Basis Set: (AUG-CC-PVTZ AUX)
    Blend: AUG-CC-PVTZ-JKFIT
	 Reference Energy          =    -212.7784185014794218 [Eh]
	 Singles Energy            =      -0.0000000000000000 [Eh]
	 Same-Spin Energy          =      -0.2157530184563638 [Eh]
	 Opposite-Spin Energy      =      -0.8094124249934808 [Eh]
	 Correlation Energy        =      -1.0251654434498445 [Eh]
	 Total Energy              =    -213.8035839449292723 [Eh]

	 ================> DF-SCS-MP2 Energies <==================
	-----------------------------------------------------------
	 SCS Same-Spin Scale       =       0.3333333333333333 [-]
	 SCS Opposite-Spin Scale   =       1.2000000000000000 [-]
	 SCS Same-Spin Energy      =      -0.0719176728187879 [Eh]
	 SCS Opposite-Spin Energy  =      -0.9712949099921768 [Eh]
	 SCS Correlation Energy    =      -1.0432125828109649 [Eh]
	 SCS Total Energy          =    -213.8216310842903738 [Eh]
	-----------------------------------------------------------

  Dipole Moment: [D]
     X:     0.0027      Y:    -0.5231      Z:    -0.0006     Total:     0.5231

*** Psi4 exiting successfully. Buy a developer a beer!
