                               Psi4 1.3.2 release

  ==> Input File <==

--------------------------------------------------------------------------
#psi4
#
memory 32 gb

molecule  {
1 1
  N       -0.0274784    -0.2140524    -0.0002657
  C        1.2757600     0.5504720    -0.0003510
  C       -1.2757460     0.5504610     0.0003700
  C        2.4891350    -0.3592320     0.0002730
  C       -2.4891440    -0.3592250    -0.0000420
  H       -0.0002290    -0.8829120    -0.8192120
  H        0.0002430    -0.8834350     0.8183340
  H        1.2343010     1.1850200    -0.8878530
  H        1.2339840     1.1857900     0.8865850
  H       -1.2340510     1.1848610     0.8879670
  H       -1.2342230     1.1859370    -0.8864660
  H        3.3917400     0.2556770    -0.0001140
  H        2.5206350    -0.9914160     0.8916960
  H        2.5206970    -0.9925990    -0.8903100
  H       -3.3917370     0.2557000     0.0002190
  H       -2.5206840    -0.9916000    -0.8913310
  H       -2.5206850    -0.9924050     0.8906710
units angstrom
no_reorient  #important for SAPT in psi4, default
symmetry c1  #important for SAPT in psi4, default
}

set PROPERTIES_ORIGIN ["COM"]
properties('MP2/aug-cc-pvtz', properties = ['dipole'])
--------------------------------------------------------------------------

    Molecular point group: c1
  Charge       = 1
  Multiplicity = 1
  Basis Set: AUG-CC-PVTZ
    Blend: AUG-CC-PVTZ
  Basis Set: (AUG-CC-PVTZ AUX)
    Blend: AUG-CC-PVTZ-JKFIT

    Orbital Energies [Eh]
    ---------------------

    Doubly Occupied:

       1A    -15.874472     2A    -11.465962     3A    -11.460662
       4A    -11.393852     5A    -11.391046     6A     -1.499874
       7A     -1.238674     8A     -1.173755     9A     -1.059099
      10A     -1.037875    11A     -0.954449    12A     -0.853635
      13A     -0.835601    14A     -0.802877    15A     -0.765711
      16A     -0.738560    17A     -0.702902    18A     -0.699976
      19A     -0.688563    20A     -0.686055    21A     -0.679568

  @DF-RHF Final Energy:  -212.77476524329404

   => Energetics <=

    Nuclear Repulsion Energy =            197.6130334961740687
    One-Electron Energy =                -668.7692553602892076
    Two-Electron Energy =                 258.3814566208210977
    Total Energy =                       -212.7747652432940413
  Basis Set: (AUG-CC-PVTZ AUX)
    Blend: AUG-CC-PVTZ-RI
    Molecular point group: c1

    Geometry (in Angstrom), charge = 1, multiplicity = 1:

       Center              X                  Y                   Z               Mass
    ------------   -----------------  -----------------  -----------------  -----------------
         N           -0.022286134832    -0.228994596782    -0.000258504547    14.003074004430
         C            1.280952265168     0.535529803218    -0.000343804547    12.000000000000
         C           -1.270553734832     0.535518803218     0.000377195453    12.000000000000
         C            2.494327265168    -0.374174196782     0.000280195453    12.000000000000
         C           -2.483951734832    -0.374167196782    -0.000034804547    12.000000000000
         H            0.004963265168    -0.897854196782    -0.819204804547     1.007825032230
         H            0.005435265168    -0.898377196782     0.818341195453     1.007825032230
         H            1.239493265168     1.170077803218    -0.887845804547     1.007825032230
         H            1.239176265168     1.170847803218     0.886592195453     1.007825032230
         H           -1.228858734832     1.169918803218     0.887974195453     1.007825032230
         H           -1.229030734832     1.170994803218    -0.886458804547     1.007825032230
         H            3.396932265168     0.240734803218    -0.000106804547     1.007825032230
         H            2.525827265168    -1.006358196782     0.891703195453     1.007825032230
         H            2.525889265168    -1.007541196782    -0.890302804547     1.007825032230
         H           -3.386544734832     0.240757803218     0.000226195453     1.007825032230
         H           -2.515491734832    -1.006542196782    -0.891323804547     1.007825032230
         H           -2.515492734832    -1.007347196782     0.890678195453     1.007825032230

  Basis Set: AUG-CC-PVTZ
    Blend: AUG-CC-PVTZ
  Basis Set: (AUG-CC-PVTZ AUX)
    Blend: AUG-CC-PVTZ-JKFIT
	 Reference Energy          =    -212.7747652432940413 [Eh]
	 Singles Energy            =      -0.0000000000000000 [Eh]
	 Same-Spin Energy          =      -0.2162677097573911 [Eh]
	 Opposite-Spin Energy      =      -0.8101898247076177 [Eh]
	 Correlation Energy        =      -1.0264575344650089 [Eh]
	 Total Energy              =    -213.8012227777590510 [Eh]

	 ================> DF-SCS-MP2 Energies <==================
	-----------------------------------------------------------
	 SCS Same-Spin Scale       =       0.3333333333333333 [-]
	 SCS Opposite-Spin Scale   =       1.2000000000000000 [-]
	 SCS Same-Spin Energy      =      -0.0720892365857970 [Eh]
	 SCS Opposite-Spin Energy  =      -0.9722277896491411 [Eh]
	 SCS Correlation Energy    =      -1.0443170262349382 [Eh]
	 SCS Total Energy          =    -213.8190822695289910 [Eh]
	-----------------------------------------------------------

  Dipole Moment: [D]
     X:     0.1042      Y:    -0.6080      Z:    -0.0006     Total:     0.6169

*** Psi4 exiting successfully. Buy a developer a beer!
