                               Psi4 1.3.2 release

  ==> Input File <==

--------------------------------------------------------------------------
#psi4
#
memory 32 gb

molecule  {
1 1
  N       -0.0000030    -0.2590690    -0.0002410
  C        1.2230127     0.6181665     0.1324926
  C       -1.2757460     0.5504610     0.0003700
  C        2.4891350    -0.3592320     0.0002730
  C       -2.4891440    -0.3592250    -0.0000420
  H       -0.0002290    -0.8829120    -0.8192120
  H        0.0002430    -0.8834350     0.8183340
  H        1.2343010     1.1850200    -0.8878530
  H        1.2339840     1.1857900     0.8865850
  H       -1.2340510     1.1848610     0.8879670
  H       -1.2342230     1.1859370    -0.8864660
  H        3.3917400     0.2556770    -0.0001140
  H        2.5206350    -0.9914160     0.8916960
  H        2.5206970    -0.9925990    -0.8903100
  H       -3.3917370     0.2557000     0.0002190
  H       -2.5206840    -0.9916000    -0.8913310
  H       -2.5206850    -0.9924050     0.8906710
units angstrom
no_reorient  #important for SAPT in psi4, default
symmetry c1  #important for SAPT in psi4, default
}

set PROPERTIES_ORIGIN ["COM"]
properties('MP2/aug-cc-pvtz', properties = ['dipole'])
--------------------------------------------------------------------------

    Molecular point group: c1
  Charge       = 1
  Multiplicity = 1
  Basis Set: AUG-CC-PVTZ
    Blend: AUG-CC-PVTZ
  Basis Set: (AUG-CC-PVTZ AUX)
    Blend: AUG-CC-PVTZ-JKFIT

    Orbital Energies [Eh]
    ---------------------

    Doubly Occupied:

       1A    -15.871478     2A    -11.464333     3A    -11.464204
       4A    -11.395927     5A    -11.390855     6A     -1.497098
       7A     -1.228616     8A     -1.171385     9A     -1.067163
      10A     -1.035241    11A     -0.963497    12A     -0.867816
      13A     -0.838355    14A     -0.797409    15A     -0.772503
      16A     -0.733410    17A     -0.714530    18A     -0.701610
      19A     -0.684779    20A     -0.680280    21A     -0.656494

  @DF-RHF Final Energy:  -212.74619854148102

   => Energetics <=

    Nuclear Repulsion Energy =            196.9115708501257416
    One-Electron Energy =                -667.3215765946051761
    Two-Electron Energy =                 257.6638072029984414
    Total Energy =                       -212.7461985414810215
  Basis Set: (AUG-CC-PVTZ AUX)
    Blend: AUG-CC-PVTZ-RI
    Molecular point group: c1

    Geometry (in Angstrom), charge = 1, multiplicity = 1:

       Center              X                  Y                   Z               Mass
    ------------   -----------------  -----------------  -----------------  -----------------
         N            0.008539301286    -0.276466941032    -0.021752484480    14.003074004430
         C            1.231555001286     0.600768558968     0.110981115520    12.000000000000
         C           -1.267203698714     0.533063058968    -0.021141484480    12.000000000000
         C            2.497677301286    -0.376629941032    -0.021238484480    12.000000000000
         C           -2.480601698714    -0.376622941032    -0.021553484480    12.000000000000
         H            0.008313301286    -0.900309941032    -0.840723484480     1.007825032230
         H            0.008785301286    -0.900832941032     0.796822515520     1.007825032230
         H            1.242843301286     1.167622058968    -0.909364484480     1.007825032230
         H            1.242526301286     1.168392058968     0.865073515520     1.007825032230
         H           -1.225508698714     1.167463058968     0.866455515520     1.007825032230
         H           -1.225680698714     1.168539058968    -0.907977484480     1.007825032230
         H            3.400282301286     0.238279058968    -0.021625484480     1.007825032230
         H            2.529177301286    -1.008813941032     0.870184515520     1.007825032230
         H            2.529239301286    -1.009996941032    -0.911821484480     1.007825032230
         H           -3.383194698714     0.238302058968    -0.021292484480     1.007825032230
         H           -2.512141698714    -1.008997941032    -0.912842484480     1.007825032230
         H           -2.512142698714    -1.009802941032     0.869159515520     1.007825032230

  Basis Set: AUG-CC-PVTZ
    Blend: AUG-CC-PVTZ
  Basis Set: (AUG-CC-PVTZ AUX)
    Blend: AUG-CC-PVTZ-JKFIT
	 Reference Energy          =    -212.7461985414810215 [Eh]
	 Singles Energy            =      -0.0000000000000000 [Eh]
	 Same-Spin Energy          =      -0.2154718346937868 [Eh]
	 Opposite-Spin Energy      =      -0.8103586443840467 [Eh]
	 Correlation Energy        =      -1.0258304790778334 [Eh]
	 Total Energy              =    -213.7720290205588469 [Eh]

	 ================> DF-SCS-MP2 Energies <==================
	-----------------------------------------------------------
	 SCS Same-Spin Scale       =       0.3333333333333333 [-]
	 SCS Opposite-Spin Scale   =       1.2000000000000000 [-]
	 SCS Same-Spin Energy      =      -0.0718239448979289 [Eh]
	 SCS Opposite-Spin Energy  =      -0.9724303732608560 [Eh]
	 SCS Correlation Energy    =      -1.0442543181587849 [Eh]
	 SCS Total Energy          =    -213.7904528596397995 [Eh]
	-----------------------------------------------------------

  Dipole Moment: [D]
     X:    -0.0101      Y:    -0.5696      Z:    -0.0358     Total:     0.5708

*** Psi4 exiting successfully. Buy a developer a beer!
