                               Psi4 1.3.2 release

  ==> Input File <==

--------------------------------------------------------------------------
#psi4
#
memory 32 gb

molecule  {
0 1
  F        2.2867940     0.0000000    -0.0001760
  C        0.9285390     0.0000020    -0.0000730
  C        0.2598100     1.2182400    -0.0001460
  C        0.2598100    -1.2182380     0.0000900
  C       -1.1363580     1.2092180    -0.0000200
  C       -1.1363570    -1.2092200     0.0002110
  C       -1.8361040    -0.0000020     0.0001410
  H        0.8291340     2.1428170    -0.0002660
  H        0.8291450    -2.1428090     0.0001370
  H       -1.6763770     2.1526090    -0.0000810
  H       -1.6763517    -2.1525896     0.2503380
  H       -2.9227180     0.0000020     0.0002420
units angstrom
no_reorient  #important for SAPT in psi4, default
symmetry c1  #important for SAPT in psi4, default
}

set PROPERTIES_ORIGIN ["COM"]
properties('MP2/aug-cc-pvtz', properties = ['dipole'])
--------------------------------------------------------------------------

    Molecular point group: c1
  Charge       = 0
  Multiplicity = 1
  Basis Set: AUG-CC-PVTZ
    Blend: AUG-CC-PVTZ
  Basis Set: (AUG-CC-PVTZ AUX)
    Blend: AUG-CC-PVTZ-JKFIT

    Orbital Energies [Eh]
    ---------------------

    Doubly Occupied:

       1A    -26.308131     2A    -11.332065     3A    -11.256232
       4A    -11.254001     5A    -11.248344     6A    -11.248233
       7A    -11.244451     8A     -1.621162     9A     -1.164335
      10A     -1.032572    11A     -1.022732    12A     -0.853987
      13A     -0.840744    14A     -0.741264    15A     -0.698280
      16A     -0.690089    17A     -0.687349    18A     -0.621730
      19A     -0.604657    20A     -0.595841    21A     -0.532414
      22A     -0.515175    23A     -0.501264    24A     -0.352480
      25A     -0.341787

  @DF-RHF Final Energy:  -329.66677396878146

   => Energetics <=

    Nuclear Repulsion Energy =            268.5844506648614924
    One-Electron Energy =                -981.8838121395103826
    Two-Electron Energy =                 383.6325875058674342
    Total Energy =                       -329.6667739687814560
  Basis Set: (AUG-CC-PVTZ AUX)
    Blend: AUG-CC-PVTZ-RI
    Molecular point group: c1

    Geometry (in Angstrom), charge = 0, multiplicity = 1:

       Center              X                  Y                   Z               Mass
    ------------   -----------------  -----------------  -----------------  -----------------
         F            2.215319678494    -0.000000308526    -0.002793949866    18.998403162730
         C            0.857064678494     0.000001691474    -0.002690949866    12.000000000000
         C            0.188335678494     1.218239691474    -0.002763949866    12.000000000000
         C            0.188335678494    -1.218238308526    -0.002527949866    12.000000000000
         C           -1.207832321506     1.209217691474    -0.002637949866    12.000000000000
         C           -1.207831321506    -1.209220308526    -0.002406949866    12.000000000000
         C           -1.907578321506    -0.000002308526    -0.002476949866    12.000000000000
         H            0.757659678494     2.142816691474    -0.002883949866     1.007825032230
         H            0.757670678494    -2.142809308526    -0.002480949866     1.007825032230
         H           -1.747851321506     2.152608691474    -0.002698949866     1.007825032230
         H           -1.747826021506    -2.152589908526     0.247720050134     1.007825032230
         H           -2.994192321506     0.000001691474    -0.002375949866     1.007825032230

  Basis Set: AUG-CC-PVTZ
    Blend: AUG-CC-PVTZ
  Basis Set: (AUG-CC-PVTZ AUX)
    Blend: AUG-CC-PVTZ-JKFIT
	 Reference Energy          =    -329.6667739687814560 [Eh]
	 Singles Energy            =      -0.0000000000000000 [Eh]
	 Same-Spin Energy          =      -0.3286882266420319 [Eh]
	 Opposite-Spin Energy      =      -1.0083757749892333 [Eh]
	 Correlation Energy        =      -1.3370640016312652 [Eh]
	 Total Energy              =    -331.0038379704127465 [Eh]

	 ================> DF-SCS-MP2 Energies <==================
	-----------------------------------------------------------
	 SCS Same-Spin Scale       =       0.3333333333333333 [-]
	 SCS Opposite-Spin Scale   =       1.2000000000000000 [-]
	 SCS Same-Spin Energy      =      -0.1095627422140106 [Eh]
	 SCS Opposite-Spin Energy  =      -1.2100509299870799 [Eh]
	 SCS Correlation Energy    =      -1.3196136722010905 [Eh]
	 SCS Total Energy          =    -330.9863876409825707 [Eh]
	-----------------------------------------------------------

  Dipole Moment: [D]
     X:    -1.5519      Y:     0.0453      Z:     0.1554     Total:     1.5604

*** Psi4 exiting successfully. Buy a developer a beer!
