                               Psi4 1.3.2 release

  ==> Input File <==

--------------------------------------------------------------------------
#psi4
#
memory 32 gb

molecule  {
0 1
  F        2.2867940     0.0000000    -0.0001760
  C        0.9285390     0.0000020    -0.0000730
  C        0.2598100     1.2182400    -0.0001460
  C        0.2598100    -1.2182380     0.0000900
  C       -1.1363580     1.2092180    -0.0000200
  C       -1.1363570    -1.2092200     0.0002110
  C       -1.8361040    -0.0000020     0.0001410
  H        0.8291340     2.1428170    -0.0002660
  H        0.8291491    -2.1428043     0.0501370
  H       -1.6763770     2.1526090    -0.0000810
  H       -1.6763720    -2.1526140     0.0003380
  H       -2.9227180     0.0000020     0.0002420
units angstrom
no_reorient  #important for SAPT in psi4, default
symmetry c1  #important for SAPT in psi4, default
}

set PROPERTIES_ORIGIN ["COM"]
properties('MP2/aug-cc-pvtz', properties = ['dipole'])
--------------------------------------------------------------------------

    Molecular point group: c1
  Charge       = 0
  Multiplicity = 1
  Basis Set: AUG-CC-PVTZ
    Blend: AUG-CC-PVTZ
  Basis Set: (AUG-CC-PVTZ AUX)
    Blend: AUG-CC-PVTZ-JKFIT

    Orbital Energies [Eh]
    ---------------------

    Doubly Occupied:

       1A    -26.307983     2A    -11.331910     3A    -11.253840
       4A    -11.253781     5A    -11.247836     6A    -11.247751
       7A    -11.243927     8A     -1.621002     9A     -1.164154
      10A     -1.032873    11A     -1.022698    12A     -0.855019
      13A     -0.840885    14A     -0.742979    15A     -0.698283
      16A     -0.689950    17A     -0.686885    18A     -0.623992
      19A     -0.606325    20A     -0.595787    21A     -0.532078
      22A     -0.510673    23A     -0.508068    24A     -0.352733
      25A     -0.341682

  @DF-RHF Final Energy:  -329.67088488904119

   => Energetics <=

    Nuclear Repulsion Energy =            268.6846724849318662
    One-Electron Energy =                -982.0849234329917863
    Two-Electron Energy =                 383.7293660590187301
    Total Energy =                       -329.6708848890411900
  Basis Set: (AUG-CC-PVTZ AUX)
    Blend: AUG-CC-PVTZ-RI
    Molecular point group: c1

    Geometry (in Angstrom), charge = 0, multiplicity = 1:

       Center              X                  Y                   Z               Mass
    ------------   -----------------  -----------------  -----------------  -----------------
         F            2.215319848498    -0.000000101793    -0.000695134851    18.998403162730
         C            0.857064848498     0.000001898207    -0.000592134851    12.000000000000
         C            0.188335848498     1.218239898207    -0.000665134851    12.000000000000
         C            0.188335848498    -1.218238101793    -0.000429134851    12.000000000000
         C           -1.207832151502     1.209217898207    -0.000539134851    12.000000000000
         C           -1.207831151502    -1.209220101793    -0.000308134851    12.000000000000
         C           -1.907578151502    -0.000002101793    -0.000378134851    12.000000000000
         H            0.757659848498     2.142816898207    -0.000785134851     1.007825032230
         H            0.757674948498    -2.142804401793     0.049617865149     1.007825032230
         H           -1.747851151502     2.152608898207    -0.000600134851     1.007825032230
         H           -1.747846151502    -2.152614101793    -0.000181134851     1.007825032230
         H           -2.994192151502     0.000001898207    -0.000277134851     1.007825032230

  Basis Set: AUG-CC-PVTZ
    Blend: AUG-CC-PVTZ
  Basis Set: (AUG-CC-PVTZ AUX)
    Blend: AUG-CC-PVTZ-JKFIT
	 Reference Energy          =    -329.6708848890411900 [Eh]
	 Singles Energy            =      -0.0000000000000000 [Eh]
	 Same-Spin Energy          =      -0.3284576945311249 [Eh]
	 Opposite-Spin Energy      =      -1.0077441301529717 [Eh]
	 Correlation Energy        =      -1.3362018246840965 [Eh]
	 Total Energy              =    -331.0070867137253003 [Eh]

	 ================> DF-SCS-MP2 Energies <==================
	-----------------------------------------------------------
	 SCS Same-Spin Scale       =       0.3333333333333333 [-]
	 SCS Opposite-Spin Scale   =       1.2000000000000000 [-]
	 SCS Same-Spin Energy      =      -0.1094858981770416 [Eh]
	 SCS Opposite-Spin Energy  =      -1.2092929561835659 [Eh]
	 SCS Correlation Energy    =      -1.3187788543606076 [Eh]
	 SCS Total Energy          =    -330.9896637434018203 [Eh]
	-----------------------------------------------------------

  Dipole Moment: [D]
     X:    -1.5772      Y:     0.0017      Z:     0.0364     Total:     1.5777

*** Psi4 exiting successfully. Buy a developer a beer!
