                               Psi4 1.3.2 release

  ==> Input File <==

--------------------------------------------------------------------------
#psi4
#
memory 32 gb

molecule  {
0 1
  F        2.2867940     0.0000000    -0.0001760
  C        0.9285390     0.0000020    -0.0000730
  C        0.2598100     1.2182400    -0.0001460
  C        0.2598100    -1.2182380     0.0000900
  C       -1.1363580     1.2092180    -0.0000200
  C       -1.1363570    -1.2092200     0.0002110
  C       -1.8361040    -0.0000020     0.0001410
  H        0.8291340     2.1428170    -0.0002660
  H        0.8291450    -2.1428090     0.0001370
  H       -1.6763770     2.1526090    -0.0000810
  H       -1.6763558    -2.1525945     0.2003380
  H       -2.9227180     0.0000020     0.0002420
units angstrom
no_reorient  #important for SAPT in psi4, default
symmetry c1  #important for SAPT in psi4, default
}

set PROPERTIES_ORIGIN ["COM"]
properties('MP2/aug-cc-pvtz', properties = ['dipole'])
--------------------------------------------------------------------------

    Molecular point group: c1
  Charge       = 0
  Multiplicity = 1
  Basis Set: AUG-CC-PVTZ
    Blend: AUG-CC-PVTZ
  Basis Set: (AUG-CC-PVTZ AUX)
    Blend: AUG-CC-PVTZ-JKFIT

    Orbital Energies [Eh]
    ---------------------

    Doubly Occupied:

       1A    -26.308073     2A    -11.331997     3A    -11.255358
       4A    -11.253919     5A    -11.248126     6A    -11.248053
       7A    -11.244256     8A     -1.621100     9A     -1.164262
      10A     -1.032671    11A     -1.022715    12A     -0.854337
      13A     -0.840797    14A     -0.741854    15A     -0.698276
      16A     -0.690017    17A     -0.687234    18A     -0.622474
      19A     -0.605311    20A     -0.595848    21A     -0.532295
      22A     -0.514202    23A     -0.503090    24A     -0.352565
      25A     -0.341745

  @DF-RHF Final Energy:  -329.66838388214825

   => Energetics <=

    Nuclear Repulsion Energy =            268.6214578652551381
    One-Electron Energy =                -981.9585337772982712
    Two-Electron Energy =                 383.6686920298948849
    Total Energy =                       -329.6683838821482482
  Basis Set: (AUG-CC-PVTZ AUX)
    Blend: AUG-CC-PVTZ-RI
    Molecular point group: c1

    Geometry (in Angstrom), charge = 0, multiplicity = 1:

       Center              X                  Y                   Z               Mass
    ------------   -----------------  -----------------  -----------------  -----------------
         F            2.215319721520    -0.000000257105    -0.002269246112    18.998403162730
         C            0.857064721520     0.000001742895    -0.002166246112    12.000000000000
         C            0.188335721520     1.218239742895    -0.002239246112    12.000000000000
         C            0.188335721520    -1.218238257105    -0.002003246112    12.000000000000
         C           -1.207832278480     1.209217742895    -0.002113246112    12.000000000000
         C           -1.207831278480    -1.209220257105    -0.001882246112    12.000000000000
         C           -1.907578278480    -0.000002257105    -0.001952246112    12.000000000000
         H            0.757659721520     2.142816742895    -0.002359246112     1.007825032230
         H            0.757670721520    -2.142809257105    -0.001956246112     1.007825032230
         H           -1.747851278480     2.152608742895    -0.002174246112     1.007825032230
         H           -1.747830078480    -2.152594757105     0.198244753888     1.007825032230
         H           -2.994192278480     0.000001742895    -0.001851246112     1.007825032230

  Basis Set: AUG-CC-PVTZ
    Blend: AUG-CC-PVTZ
  Basis Set: (AUG-CC-PVTZ AUX)
    Blend: AUG-CC-PVTZ-JKFIT
	 Reference Energy          =    -329.6683838821482482 [Eh]
	 Singles Energy            =      -0.0000000000000000 [Eh]
	 Same-Spin Energy          =      -0.3286051746429912 [Eh]
	 Opposite-Spin Energy      =      -1.0081453387748229 [Eh]
	 Correlation Energy        =      -1.3367505134178141 [Eh]
	 Total Energy              =    -331.0051343955660741 [Eh]

	 ================> DF-SCS-MP2 Energies <==================
	-----------------------------------------------------------
	 SCS Same-Spin Scale       =       0.3333333333333333 [-]
	 SCS Opposite-Spin Scale   =       1.2000000000000000 [-]
	 SCS Same-Spin Energy      =      -0.1095350582143304 [Eh]
	 SCS Opposite-Spin Energy  =      -1.2097744065297875 [Eh]
	 SCS Correlation Energy    =      -1.3193094647441179 [Eh]
	 SCS Total Energy          =    -330.9876933468923426 [Eh]
	-----------------------------------------------------------

  Dipole Moment: [D]
     X:    -1.5606      Y:     0.0292      Z:     0.1251     Total:     1.5658

*** Psi4 exiting successfully. Buy a developer a beer!
