                               Psi4 1.3.2 release

  ==> Input File <==

--------------------------------------------------------------------------
#psi4
#
memory 32 gb

molecule  {
0 1
  F        2.2867940     0.0000000    -0.0001760
  C        0.9285390     0.0000020    -0.0000730
  C        0.2598100     1.2182400    -0.0001460
  C        0.2598319    -1.2182089     0.3000900
  C       -1.1363580     1.2092180    -0.0000200
  C       -1.1363570    -1.2092200     0.0002110
  C       -1.8361040    -0.0000020     0.0001410
  H        0.8291340     2.1428170    -0.0002660
  H        0.8291450    -2.1428090     0.0001370
  H       -1.6763770     2.1526090    -0.0000810
  H       -1.6763720    -2.1526140     0.0003380
  H       -2.9227180     0.0000020     0.0002420
units angstrom
no_reorient  #important for SAPT in psi4, default
symmetry c1  #important for SAPT in psi4, default
}

set PROPERTIES_ORIGIN ["COM"]
properties('MP2/aug-cc-pvtz', properties = ['dipole'])
--------------------------------------------------------------------------

    Molecular point group: c1
  Charge       = 0
  Multiplicity = 1
  Basis Set: AUG-CC-PVTZ
    Blend: AUG-CC-PVTZ
  Basis Set: (AUG-CC-PVTZ AUX)
    Blend: AUG-CC-PVTZ-JKFIT

    Orbital Energies [Eh]
    ---------------------

    Doubly Occupied:

       1A    -26.309892     2A    -11.339556     3A    -11.261035
       4A    -11.258680     5A    -11.254903     6A    -11.247591
       7A    -11.243712     8A     -1.622651     9A     -1.161577
      10A     -1.029983    11A     -1.021004    12A     -0.853045
      13A     -0.838222    14A     -0.741781    15A     -0.697454
      16A     -0.691115    17A     -0.682008    18A     -0.622689
      19A     -0.601210    20A     -0.589278    21A     -0.530356
      22A     -0.510267    23A     -0.498301    24A     -0.352809
      25A     -0.340535

  @DF-RHF Final Energy:  -329.64379315546137

   => Energetics <=

    Nuclear Repulsion Energy =            267.6939272834414965
    One-Electron Energy =                -980.0761348215673934
    Two-Electron Energy =                 382.7384143826644731
    Total Energy =                       -329.6437931554613670
  Basis Set: (AUG-CC-PVTZ AUX)
    Blend: AUG-CC-PVTZ-RI
    Molecular point group: c1

    Geometry (in Angstrom), charge = 0, multiplicity = 1:

       Center              X                  Y                   Z               Mass
    ------------   -----------------  -----------------  -----------------  -----------------
         F            2.215317155094    -0.000003688549    -0.037655777324    18.998403162730
         C            0.857062155094    -0.000001688549    -0.037552777324    12.000000000000
         C            0.188333155094     1.218236311451    -0.037625777324    12.000000000000
         C            0.188355055094    -1.218212588549     0.262610222676    12.000000000000
         C           -1.207834844906     1.209214311451    -0.037499777324    12.000000000000
         C           -1.207833844906    -1.209223688549    -0.037268777324    12.000000000000
         C           -1.907580844906    -0.000005688549    -0.037338777324    12.000000000000
         H            0.757657155094     2.142813311451    -0.037745777324     1.007825032230
         H            0.757668155094    -2.142812688549    -0.037342777324     1.007825032230
         H           -1.747853844906     2.152605311451    -0.037560777324     1.007825032230
         H           -1.747848844906    -2.152617688549    -0.037141777324     1.007825032230
         H           -2.994194844906    -0.000001688549    -0.037237777324     1.007825032230

  Basis Set: AUG-CC-PVTZ
    Blend: AUG-CC-PVTZ
  Basis Set: (AUG-CC-PVTZ AUX)
    Blend: AUG-CC-PVTZ-JKFIT
	 Reference Energy          =    -329.6437931554613670 [Eh]
	 Singles Energy            =      -0.0000000000000000 [Eh]
	 Same-Spin Energy          =      -0.3297079233714995 [Eh]
	 Opposite-Spin Energy      =      -1.0119899551203626 [Eh]
	 Correlation Energy        =      -1.3416978784918621 [Eh]
	 Total Energy              =    -330.9854910339532239 [Eh]

	 ================> DF-SCS-MP2 Energies <==================
	-----------------------------------------------------------
	 SCS Same-Spin Scale       =       0.3333333333333333 [-]
	 SCS Opposite-Spin Scale   =       1.2000000000000000 [-]
	 SCS Same-Spin Energy      =      -0.1099026411238332 [Eh]
	 SCS Opposite-Spin Energy  =      -1.2143879461444351 [Eh]
	 SCS Correlation Energy    =      -1.3242905872682682 [Eh]
	 SCS Total Energy          =    -330.9680837427296183 [Eh]
	-----------------------------------------------------------

  Dipole Moment: [D]
     X:    -1.6569      Y:     0.1789      Z:    -0.1809     Total:     1.6763

*** Psi4 exiting successfully. Buy a developer a beer!
