                               Psi4 1.3.2 release

  ==> Input File <==

--------------------------------------------------------------------------
#psi4
#
memory 32 gb

molecule  {
0 1
  F        2.2867940     0.0000000    -0.0001760
  C        0.9285390     0.0000020    -0.0000730
  C        0.2598100     1.2182400    -0.0001460
  C        0.2598100    -1.2182380     0.0000900
  C       -1.1363580     1.2092180    -0.0000200
  C       -1.1363570    -1.2092200     0.0002110
  C       -1.8361040    -0.0000020     0.0001410
  H        0.8291340     2.1428170    -0.0002660
  H        0.8291532    -2.1427996     0.1001370
  H       -1.6763770     2.1526090    -0.0000810
  H       -1.6763720    -2.1526140     0.0003380
  H       -2.9227180     0.0000020     0.0002420
units angstrom
no_reorient  #important for SAPT in psi4, default
symmetry c1  #important for SAPT in psi4, default
}

set PROPERTIES_ORIGIN ["COM"]
properties('MP2/aug-cc-pvtz', properties = ['dipole'])
--------------------------------------------------------------------------

    Molecular point group: c1
  Charge       = 0
  Multiplicity = 1
  Basis Set: AUG-CC-PVTZ
    Blend: AUG-CC-PVTZ
  Basis Set: (AUG-CC-PVTZ AUX)
    Blend: AUG-CC-PVTZ-JKFIT

    Orbital Energies [Eh]
    ---------------------

    Doubly Occupied:

       1A    -26.307999     2A    -11.331977     3A    -11.253912
       4A    -11.253850     5A    -11.248110     6A    -11.247775
       7A    -11.243951     8A     -1.621013     9A     -1.164177
      10A     -1.032818    11A     -1.022706    12A     -0.854919
      13A     -0.840855    14A     -0.742913    15A     -0.698270
      16A     -0.690084    17A     -0.686462    18A     -0.623865
      19A     -0.606175    20A     -0.595661    21A     -0.532092
      22A     -0.511545    23A     -0.506983    24A     -0.352713
      25A     -0.341698

  @DF-RHF Final Energy:  -329.67043130350584

   => Energetics <=

    Nuclear Repulsion Energy =            268.6710698373154287
    One-Electron Energy =                -982.0579560905354128
    Two-Electron Energy =                 383.7164549497140911
    Total Energy =                       -329.6704313035058362
  Basis Set: (AUG-CC-PVTZ AUX)
    Blend: AUG-CC-PVTZ-RI
    Molecular point group: c1

    Geometry (in Angstrom), charge = 0, multiplicity = 1:

       Center              X                  Y                   Z               Mass
    ------------   -----------------  -----------------  -----------------  -----------------
         F            2.215319805472    -0.000000151115    -0.001219838604    18.998403162730
         C            0.857064805472     0.000001848885    -0.001116838604    12.000000000000
         C            0.188335805472     1.218239848885    -0.001189838604    12.000000000000
         C            0.188335805472    -1.218238151115    -0.000953838604    12.000000000000
         C           -1.207832194528     1.209217848885    -0.001063838604    12.000000000000
         C           -1.207831194528    -1.209220151115    -0.000832838604    12.000000000000
         C           -1.907578194528    -0.000002151115    -0.000902838604    12.000000000000
         H            0.757659805472     2.142816848885    -0.001309838604     1.007825032230
         H            0.757679005472    -2.142799751115     0.099093161396     1.007825032230
         H           -1.747851194528     2.152608848885    -0.001124838604     1.007825032230
         H           -1.747846194528    -2.152614151115    -0.000705838604     1.007825032230
         H           -2.994192194528     0.000001848885    -0.000801838604     1.007825032230

  Basis Set: AUG-CC-PVTZ
    Blend: AUG-CC-PVTZ
  Basis Set: (AUG-CC-PVTZ AUX)
    Blend: AUG-CC-PVTZ-JKFIT
	 Reference Energy          =    -329.6704313035058362 [Eh]
	 Singles Energy            =      -0.0000000000000000 [Eh]
	 Same-Spin Energy          =      -0.3284855756209316 [Eh]
	 Opposite-Spin Energy      =      -1.0078054463339525 [Eh]
	 Correlation Energy        =      -1.3362910219548840 [Eh]
	 Total Energy              =    -331.0067223254607143 [Eh]

	 ================> DF-SCS-MP2 Energies <==================
	-----------------------------------------------------------
	 SCS Same-Spin Scale       =       0.3333333333333333 [-]
	 SCS Opposite-Spin Scale   =       1.2000000000000000 [-]
	 SCS Same-Spin Energy      =      -0.1094951918736438 [Eh]
	 SCS Opposite-Spin Energy  =      -1.2093665356007430 [Eh]
	 SCS Correlation Energy    =      -1.3188617274743868 [Eh]
	 SCS Total Energy          =    -330.9892930309802068 [Eh]
	-----------------------------------------------------------

  Dipole Moment: [D]
     X:    -1.5804      Y:     0.0067      Z:     0.0726     Total:     1.5821

*** Psi4 exiting successfully. Buy a developer a beer!
