                               Psi4 1.3.2 release

  ==> Input File <==

--------------------------------------------------------------------------
#psi4
#
memory 32 gb

molecule  {
0 1
  F        2.2867940     0.0000000    -0.0001760
  C        0.9285390     0.0000020    -0.0000730
  C        0.2598100     1.2182400    -0.0001460
  C        0.2598100    -1.2182380     0.0000900
  C       -1.1363580     1.2092180    -0.0000200
  C       -1.1363570    -1.2092200     0.0002110
  C       -1.8361040    -0.0000020     0.0001410
  H        0.8291340     2.1428170    -0.0002660
  H        0.8291450    -2.1428090     0.0001370
  H       -1.6763770     2.1526090    -0.0000810
  H       -1.6763720    -2.1526140     0.0003380
  H       -2.9227385    -0.0000219    -0.2497580
units angstrom
no_reorient  #important for SAPT in psi4, default
symmetry c1  #important for SAPT in psi4, default
}

set PROPERTIES_ORIGIN ["COM"]
properties('MP2/aug-cc-pvtz', properties = ['dipole'])
--------------------------------------------------------------------------

    Molecular point group: c1
  Charge       = 0
  Multiplicity = 1
  Basis Set: AUG-CC-PVTZ
    Blend: AUG-CC-PVTZ
  Basis Set: (AUG-CC-PVTZ AUX)
    Blend: AUG-CC-PVTZ-JKFIT

    Orbital Energies [Eh]
    ---------------------

    Doubly Occupied:

       1A    -26.308487     2A    -11.332583     3A    -11.254352
       4A    -11.254276     5A    -11.247989     6A    -11.247975
       7A    -11.246320     8A     -1.621480     9A     -1.164384
      10A     -1.033237    11A     -1.022041    12A     -0.855370
      13A     -0.839643    14A     -0.743345    15A     -0.698648
      16A     -0.690352    17A     -0.682522    18A     -0.623791
      19A     -0.606735    20A     -0.596107    21A     -0.532137
      22A     -0.509013    23A     -0.506047    24A     -0.353040
      25A     -0.341366

  @DF-RHF Final Energy:  -329.66687004403377

   => Energetics <=

    Nuclear Repulsion Energy =            268.5849504755777843
    One-Electron Energy =                -981.8811619686671293
    Two-Electron Energy =                 383.6293414490555733
    Total Energy =                       -329.6668700440337716
  Basis Set: (AUG-CC-PVTZ AUX)
    Blend: AUG-CC-PVTZ-RI
    Molecular point group: c1

    Geometry (in Angstrom), charge = 0, multiplicity = 1:

       Center              X                  Y                   Z               Mass
    ------------   -----------------  -----------------  -----------------  -----------------
         F            2.215320106652     0.000000198338     0.002453087672    18.998403162730
         C            0.857065106652     0.000002198338     0.002556087672    12.000000000000
         C            0.188336106652     1.218240198338     0.002483087672    12.000000000000
         C            0.188336106652    -1.218237801662     0.002719087672    12.000000000000
         C           -1.207831893348     1.209218198338     0.002609087672    12.000000000000
         C           -1.207830893348    -1.209219801662     0.002840087672    12.000000000000
         C           -1.907577893348    -0.000001801662     0.002770087672    12.000000000000
         H            0.757660106652     2.142817198338     0.002363087672     1.007825032230
         H            0.757671106652    -2.142808801662     0.002766087672     1.007825032230
         H           -1.747850893348     2.152609198338     0.002548087672     1.007825032230
         H           -1.747845893348    -2.152613801662     0.002967087672     1.007825032230
         H           -2.994212393348    -0.000021701662    -0.247128912328     1.007825032230

  Basis Set: AUG-CC-PVTZ
    Blend: AUG-CC-PVTZ
  Basis Set: (AUG-CC-PVTZ AUX)
    Blend: AUG-CC-PVTZ-JKFIT
	 Reference Energy          =    -329.6668700440337716 [Eh]
	 Singles Energy            =      -0.0000000000000000 [Eh]
	 Same-Spin Energy          =      -0.3286559537849138 [Eh]
	 Opposite-Spin Energy      =      -1.0083122688212915 [Eh]
	 Correlation Energy        =      -1.3369682226062054 [Eh]
	 Total Energy              =    -331.0038382666400025 [Eh]

	 ================> DF-SCS-MP2 Energies <==================
	-----------------------------------------------------------
	 SCS Same-Spin Scale       =       0.3333333333333333 [-]
	 SCS Opposite-Spin Scale   =       1.2000000000000000 [-]
	 SCS Same-Spin Energy      =      -0.1095519845949713 [Eh]
	 SCS Opposite-Spin Energy  =      -1.2099747225855497 [Eh]
	 SCS Correlation Energy    =      -1.3195267071805210 [Eh]
	 SCS Total Energy          =    -330.9863967512142722 [Eh]
	-----------------------------------------------------------

  Dipole Moment: [D]
     X:    -1.5208      Y:    -0.0000      Z:    -0.1643     Total:     1.5297

*** Psi4 exiting successfully. Buy a developer a beer!
