                               Psi4 1.3.2 release

  ==> Input File <==

--------------------------------------------------------------------------
#psi4
#
memory 32 gb

molecule  {
0 1
  F        2.2867940     0.0000000    -0.0001760
  C        0.9285390     0.0000020    -0.0000730
  C        0.2598100     1.2182400    -0.0001460
  C        0.2598100    -1.2182380     0.0000900
  C       -1.1363580     1.2092180    -0.0000200
  C       -1.1363570    -1.2092200     0.0002110
  C       -1.8361040    -0.0000020     0.0001410
  H        0.8291340     2.1428170    -0.0002660
  H        0.8291450    -2.1428090     0.0001370
  H       -1.6763770     2.1526090    -0.0000810
  H       -1.6763720    -2.1526140     0.0003380
  H       -2.9227221    -0.0000028    -0.0497580
units angstrom
no_reorient  #important for SAPT in psi4, default
symmetry c1  #important for SAPT in psi4, default
}

set PROPERTIES_ORIGIN ["COM"]
properties('MP2/aug-cc-pvtz', properties = ['dipole'])
--------------------------------------------------------------------------

    Molecular point group: c1
  Charge       = 0
  Multiplicity = 1
  Basis Set: AUG-CC-PVTZ
    Blend: AUG-CC-PVTZ
  Basis Set: (AUG-CC-PVTZ AUX)
    Blend: AUG-CC-PVTZ-JKFIT

    Orbital Energies [Eh]
    ---------------------

    Doubly Occupied:

       1A    -26.307997     2A    -11.331915     3A    -11.253836
       4A    -11.253777     5A    -11.247760     6A    -11.247744
       7A    -11.244016     8A     -1.621017     9A     -1.164155
      10A     -1.032904    11A     -1.022666    12A     -0.855065
      13A     -0.840840    14A     -0.743014    15A     -0.698301
      16A     -0.689916    17A     -0.686844    18A     -0.624025
      19A     -0.606388    20A     -0.595837    21A     -0.532083
      22A     -0.509967    23A     -0.508686    24A     -0.352751
      25A     -0.341663

  @DF-RHF Final Energy:  -329.67088114727119

   => Energetics <=

    Nuclear Repulsion Energy =            268.6849368333953407
    One-Electron Energy =                -982.0852971534569633
    Two-Electron Energy =                 383.7294791727904339
    Total Energy =                       -329.6708811472711886
  Basis Set: (AUG-CC-PVTZ AUX)
    Blend: AUG-CC-PVTZ-RI
    Molecular point group: c1

    Geometry (in Angstrom), charge = 0, multiplicity = 1:

       Center              X                  Y                   Z               Mass
    ------------   -----------------  -----------------  -----------------  -----------------
         F            2.215319934550    -0.000000002099     0.000354272657    18.998403162730
         C            0.857064934550     0.000001997901     0.000457272657    12.000000000000
         C            0.188335934550     1.218239997901     0.000384272657    12.000000000000
         C            0.188335934550    -1.218238002099     0.000620272657    12.000000000000
         C           -1.207832065450     1.209217997901     0.000510272657    12.000000000000
         C           -1.207831065450    -1.209220002099     0.000741272657    12.000000000000
         C           -1.907578065450    -0.000002002099     0.000671272657    12.000000000000
         H            0.757659934550     2.142816997901     0.000264272657     1.007825032230
         H            0.757670934550    -2.142809002099     0.000667272657     1.007825032230
         H           -1.747851065450     2.152608997901     0.000449272657     1.007825032230
         H           -1.747846065450    -2.152614002099     0.000868272657     1.007825032230
         H           -2.994196165450    -0.000002802099    -0.049227727343     1.007825032230

  Basis Set: AUG-CC-PVTZ
    Blend: AUG-CC-PVTZ
  Basis Set: (AUG-CC-PVTZ AUX)
    Blend: AUG-CC-PVTZ-JKFIT
	 Reference Energy          =    -329.6708811472711886 [Eh]
	 Singles Energy            =      -0.0000000000000000 [Eh]
	 Same-Spin Energy          =      -0.3284575419554780 [Eh]
	 Opposite-Spin Energy      =      -1.0077490980160397 [Eh]
	 Correlation Energy        =      -1.3362066399715178 [Eh]
	 Total Energy              =    -331.0070877872427104 [Eh]

	 ================> DF-SCS-MP2 Energies <==================
	-----------------------------------------------------------
	 SCS Same-Spin Scale       =       0.3333333333333333 [-]
	 SCS Opposite-Spin Scale   =       1.2000000000000000 [-]
	 SCS Same-Spin Energy      =      -0.1094858473184927 [Eh]
	 SCS Opposite-Spin Energy  =      -1.2092989176192477 [Eh]
	 SCS Correlation Energy    =      -1.3187847649377404 [Eh]
	 SCS Total Energy          =    -330.9896659122089204 [Eh]
	-----------------------------------------------------------

  Dipole Moment: [D]
     X:    -1.5739      Y:     0.0000      Z:    -0.0333     Total:     1.5743

*** Psi4 exiting successfully. Buy a developer a beer!
