                               Psi4 1.3.2 release

  ==> Input File <==

--------------------------------------------------------------------------
#psi4
#
memory 32 gb

molecule  {
0 1
  F        2.2867940     0.0000000    -0.0001760
  C        0.9285390     0.0000020    -0.0000730
  C        0.2598100     1.2182400    -0.0001460
  C        0.2598283    -1.2182138     0.2500900
  C       -1.1363580     1.2092180    -0.0000200
  C       -1.1363570    -1.2092200     0.0002110
  C       -1.8361040    -0.0000020     0.0001410
  H        0.8291340     2.1428170    -0.0002660
  H        0.8291450    -2.1428090     0.0001370
  H       -1.6763770     2.1526090    -0.0000810
  H       -1.6763720    -2.1526140     0.0003380
  H       -2.9227180     0.0000020     0.0002420
units angstrom
no_reorient  #important for SAPT in psi4, default
symmetry c1  #important for SAPT in psi4, default
}

set PROPERTIES_ORIGIN ["COM"]
properties('MP2/aug-cc-pvtz', properties = ['dipole'])
--------------------------------------------------------------------------

    Molecular point group: c1
  Charge       = 0
  Multiplicity = 1
  Basis Set: AUG-CC-PVTZ
    Blend: AUG-CC-PVTZ
  Basis Set: (AUG-CC-PVTZ AUX)
    Blend: AUG-CC-PVTZ-JKFIT

    Orbital Energies [Eh]
    ---------------------

    Doubly Occupied:

       1A    -26.309302     2A    -11.337284     3A    -11.258884
       4A    -11.257150     5A    -11.252797     6A    -11.247597
       7A    -11.243731     8A     -1.622146     9A     -1.162290
      10A     -1.030747    11A     -1.021625    12A     -0.853567
      13A     -0.838989    14A     -0.742006    15A     -0.697678
      16A     -0.690783    17A     -0.683271    18A     -0.622867
      19A     -0.602800    20A     -0.591259    21A     -0.530993
      22A     -0.510752    23A     -0.501043    24A     -0.352705
      25A     -0.340837

  @DF-RHF Final Energy:  -329.65224395515241

   => Energetics <=

    Nuclear Repulsion Energy =            267.9917911278436122
    One-Electron Energy =                -980.6818671128111191
    Two-Electron Energy =                 383.0378320298150925
    Total Energy =                       -329.6522439551524144
  Basis Set: (AUG-CC-PVTZ AUX)
    Blend: AUG-CC-PVTZ-RI
    Molecular point group: c1

    Geometry (in Angstrom), charge = 0, multiplicity = 1:

       Center              X                  Y                   Z               Mass
    ------------   -----------------  -----------------  -----------------  -----------------
         F            2.215317604918    -0.000003076288    -0.031408219619    18.998403162730
         C            0.857062604918    -0.000001076288    -0.031305219619    12.000000000000
         C            0.188333604918     1.218236923712    -0.031378219619    12.000000000000
         C            0.188351904918    -1.218216876288     0.218857780381    12.000000000000
         C           -1.207834395082     1.209214923712    -0.031252219619    12.000000000000
         C           -1.207833395082    -1.209223076288    -0.031021219619    12.000000000000
         C           -1.907580395082    -0.000005076288    -0.031091219619    12.000000000000
         H            0.757657604918     2.142813923712    -0.031498219619     1.007825032230
         H            0.757668604918    -2.142812076288    -0.031095219619     1.007825032230
         H           -1.747853395082     2.152605923712    -0.031313219619     1.007825032230
         H           -1.747848395082    -2.152617076288    -0.030894219619     1.007825032230
         H           -2.994194395082    -0.000001076288    -0.030990219619     1.007825032230

  Basis Set: AUG-CC-PVTZ
    Blend: AUG-CC-PVTZ
  Basis Set: (AUG-CC-PVTZ AUX)
    Blend: AUG-CC-PVTZ-JKFIT
	 Reference Energy          =    -329.6522439551524144 [Eh]
	 Singles Energy            =      -0.0000000000000000 [Eh]
	 Same-Spin Energy          =      -0.3293452181194307 [Eh]
	 Opposite-Spin Energy      =      -1.0107472942693729 [Eh]
	 Correlation Energy        =      -1.3400925123888037 [Eh]
	 Total Energy              =    -330.9923364675412358 [Eh]

	 ================> DF-SCS-MP2 Energies <==================
	-----------------------------------------------------------
	 SCS Same-Spin Scale       =       0.3333333333333333 [-]
	 SCS Opposite-Spin Scale   =       1.2000000000000000 [-]
	 SCS Same-Spin Energy      =      -0.1097817393731436 [Eh]
	 SCS Opposite-Spin Energy  =      -1.2128967531232475 [Eh]
	 SCS Correlation Energy    =      -1.3226784924963910 [Eh]
	 SCS Total Energy          =    -330.9749224476487939 [Eh]
	-----------------------------------------------------------

  Dipole Moment: [D]
     X:    -1.6327      Y:     0.1252      Z:    -0.1485     Total:     1.6442

*** Psi4 exiting successfully. Buy a developer a beer!
