                               Psi4 1.3.2 release

  ==> Input File <==

--------------------------------------------------------------------------
#psi4
#
memory 32 gb

molecule  {
0 1
  F        2.2867940     0.0000000    -0.0001760
  C        0.9285390     0.0000020    -0.0000730
  C        0.2598100     1.2182400    -0.0001460
  C        0.2598100    -1.2182380     0.0000900
  C       -1.1363580     1.2092180    -0.0000200
  C       -1.1363570    -1.2092200     0.0002110
  C       -1.8361040    -0.0000020     0.0001410
  H        0.8291340     2.1428170    -0.0002660
  H        0.8291450    -2.1428090     0.0001370
  H       -1.6763770     2.1526090    -0.0000810
  H       -1.6763720    -2.1526140     0.0003380
  H       -2.9227426    -0.0000267    -0.2997580
units angstrom
no_reorient  #important for SAPT in psi4, default
symmetry c1  #important for SAPT in psi4, default
}

set PROPERTIES_ORIGIN ["COM"]
properties('MP2/aug-cc-pvtz', properties = ['dipole'])
--------------------------------------------------------------------------

    Molecular point group: c1
  Charge       = 0
  Multiplicity = 1
  Basis Set: AUG-CC-PVTZ
    Blend: AUG-CC-PVTZ
  Basis Set: (AUG-CC-PVTZ AUX)
    Blend: AUG-CC-PVTZ-JKFIT

    Orbital Energies [Eh]
    ---------------------

    Doubly Occupied:

       1A    -26.308710     2A    -11.332889     3A    -11.254599
       4A    -11.254513     5A    -11.248102     6A    -11.248094
       7A    -11.247346     8A     -1.621691     9A     -1.164500
      10A     -1.033396    11A     -1.021793    12A     -0.855515
      13A     -0.839165    14A     -0.743506    15A     -0.698812
      16A     -0.690543    17A     -0.680706    18A     -0.623688
      19A     -0.606901    20A     -0.596238    21A     -0.532073
      22A     -0.509170    23A     -0.504325    24A     -0.353177
      25A     -0.341248

  @DF-RHF Final Energy:  -329.66484415873947

   => Energetics <=

    Nuclear Repulsion Energy =            268.5409694195251404
    One-Electron Energy =                -981.7902341256320824
    Two-Electron Energy =                 383.5844205473674720
    Total Energy =                       -329.6648441587394700
  Basis Set: (AUG-CC-PVTZ AUX)
    Blend: AUG-CC-PVTZ-RI
    Molecular point group: c1

    Geometry (in Angstrom), charge = 0, multiplicity = 1:

       Center              X                  Y                   Z               Mass
    ------------   -----------------  -----------------  -----------------  -----------------
         F            2.215320149678     0.000000248710     0.002977791426    18.998403162730
         C            0.857065149678     0.000002248710     0.003080791426    12.000000000000
         C            0.188336149678     1.218240248710     0.003007791426    12.000000000000
         C            0.188336149678    -1.218237751290     0.003243791426    12.000000000000
         C           -1.207831850322     1.209218248710     0.003133791426    12.000000000000
         C           -1.207830850322    -1.209219751290     0.003364791426    12.000000000000
         C           -1.907577850322    -0.000001751290     0.003294791426    12.000000000000
         H            0.757660149678     2.142817248710     0.002887791426     1.007825032230
         H            0.757671149678    -2.142808751290     0.003290791426     1.007825032230
         H           -1.747850850322     2.152609248710     0.003072791426     1.007825032230
         H           -1.747845850322    -2.152613751290     0.003491791426     1.007825032230
         H           -2.994216450322    -0.000026451290    -0.296604208574     1.007825032230

  Basis Set: AUG-CC-PVTZ
    Blend: AUG-CC-PVTZ
  Basis Set: (AUG-CC-PVTZ AUX)
    Blend: AUG-CC-PVTZ-JKFIT
	 Reference Energy          =    -329.6648441587394700 [Eh]
	 Singles Energy            =      -0.0000000000000000 [Eh]
	 Same-Spin Energy          =      -0.3287402465719819 [Eh]
	 Opposite-Spin Energy      =      -1.0085634746701202 [Eh]
	 Correlation Energy        =      -1.3373037212421020 [Eh]
	 Total Energy              =    -331.0021478799815782 [Eh]

	 ================> DF-SCS-MP2 Energies <==================
	-----------------------------------------------------------
	 SCS Same-Spin Scale       =       0.3333333333333333 [-]
	 SCS Opposite-Spin Scale   =       1.2000000000000000 [-]
	 SCS Same-Spin Energy      =      -0.1095800821906606 [Eh]
	 SCS Opposite-Spin Energy  =      -1.2102761696041442 [Eh]
	 SCS Correlation Energy    =      -1.3198562517948047 [Eh]
	 SCS Total Energy          =    -330.9847004105342876 [Eh]
	-----------------------------------------------------------

  Dipole Moment: [D]
     X:    -1.4971      Y:    -0.0000      Z:    -0.1956     Total:     1.5098

*** Psi4 exiting successfully. Buy a developer a beer!
