                               Psi4 1.3.2 release

  ==> Input File <==

--------------------------------------------------------------------------
#psi4
#
memory 32 gb

molecule  {
0 1
  F        2.2867940     0.0000000    -0.0001760
  C        0.9285390     0.0000020    -0.0000730
  C        0.2598100     1.2182400    -0.0001460
  C        0.2598137    -1.2182332     0.0500900
  C       -1.1363580     1.2092180    -0.0000200
  C       -1.1363570    -1.2092200     0.0002110
  C       -1.8361040    -0.0000020     0.0001410
  H        0.8291340     2.1428170    -0.0002660
  H        0.8291450    -2.1428090     0.0001370
  H       -1.6763770     2.1526090    -0.0000810
  H       -1.6763720    -2.1526140     0.0003380
  H       -2.9227180     0.0000020     0.0002420
units angstrom
no_reorient  #important for SAPT in psi4, default
symmetry c1  #important for SAPT in psi4, default
}

set PROPERTIES_ORIGIN ["COM"]
properties('MP2/aug-cc-pvtz', properties = ['dipole'])
--------------------------------------------------------------------------

    Molecular point group: c1
  Charge       = 0
  Multiplicity = 1
  Basis Set: AUG-CC-PVTZ
    Blend: AUG-CC-PVTZ
  Basis Set: (AUG-CC-PVTZ AUX)
    Blend: AUG-CC-PVTZ-JKFIT

    Orbital Energies [Eh]
    ---------------------

    Doubly Occupied:

       1A    -26.308020     2A    -11.332101     3A    -11.253996
       4A    -11.253899     5A    -11.247943     6A    -11.247723
       7A    -11.243899     8A     -1.621036     9A     -1.164057
      10A     -1.032789    11A     -1.022650    12A     -0.854976
      13A     -0.840807    14A     -0.742937    15A     -0.698252
      16A     -0.689942    17A     -0.686840    18A     -0.623955
      19A     -0.606230    20A     -0.595638    21A     -0.532032
      22A     -0.510418    23A     -0.508110    24A     -0.352724
      25A     -0.341631

  @DF-RHF Final Energy:  -329.67030247921213

   => Energetics <=

    Nuclear Repulsion Energy =            268.6607706774564690
    One-Electron Energy =                -982.0369377456805751
    Two-Electron Energy =                 383.7058645890119237
    Total Energy =                       -329.6703024792121255
  Basis Set: (AUG-CC-PVTZ AUX)
    Blend: AUG-CC-PVTZ-RI
    Molecular point group: c1

    Geometry (in Angstrom), charge = 0, multiplicity = 1:

       Center              X                  Y                   Z               Mass
    ------------   -----------------  -----------------  -----------------  -----------------
         F            2.215319429205    -0.000000652236    -0.006417988801    18.998403162730
         C            0.857064429205     0.000001347764    -0.006314988801    12.000000000000
         C            0.188335429205     1.218239347764    -0.006387988801    12.000000000000
         C            0.188339129205    -1.218233852236     0.043848011199    12.000000000000
         C           -1.207832570795     1.209217347764    -0.006261988801    12.000000000000
         C           -1.207831570795    -1.209220652236    -0.006030988801    12.000000000000
         C           -1.907578570795    -0.000002652236    -0.006100988801    12.000000000000
         H            0.757659429205     2.142816347764    -0.006507988801     1.007825032230
         H            0.757670429205    -2.142809652236    -0.006104988801     1.007825032230
         H           -1.747851570795     2.152608347764    -0.006322988801     1.007825032230
         H           -1.747846570795    -2.152614652236    -0.005903988801     1.007825032230
         H           -2.994192570795     0.000001347764    -0.005999988801     1.007825032230

  Basis Set: AUG-CC-PVTZ
    Blend: AUG-CC-PVTZ
  Basis Set: (AUG-CC-PVTZ AUX)
    Blend: AUG-CC-PVTZ-JKFIT
	 Reference Energy          =    -329.6703024792121255 [Eh]
	 Singles Energy            =      -0.0000000000000000 [Eh]
	 Same-Spin Energy          =      -0.3284925824967251 [Eh]
	 Opposite-Spin Energy      =      -1.0078671933170038 [Eh]
	 Correlation Energy        =      -1.3363597758137289 [Eh]
	 Total Energy              =    -331.0066622550258444 [Eh]

	 ================> DF-SCS-MP2 Energies <==================
	-----------------------------------------------------------
	 SCS Same-Spin Scale       =       0.3333333333333333 [-]
	 SCS Opposite-Spin Scale   =       1.2000000000000000 [-]
	 SCS Same-Spin Energy      =      -0.1094975274989084 [Eh]
	 SCS Opposite-Spin Energy  =      -1.2094406319804045 [Eh]
	 SCS Correlation Energy    =      -1.3189381594793128 [Eh]
	 SCS Total Energy          =    -330.9892406386914558 [Eh]
	-----------------------------------------------------------

  Dipole Moment: [D]
     X:    -1.5785      Y:     0.0050      Z:    -0.0282     Total:     1.5788

*** Psi4 exiting successfully. Buy a developer a beer!
