                               Psi4 1.3.2 release

  ==> Input File <==

--------------------------------------------------------------------------
#psi4
#
memory 32 gb

molecule  {
0 1
  F        2.2867940     0.0000000    -0.0001760
  C        0.9285390     0.0000020    -0.0000730
  C        0.2598100     1.2182400    -0.0001460
  C        0.2598100    -1.2182380     0.0000900
  C       -1.1363580     1.2092180    -0.0000200
  C       -1.1363570    -1.2092200     0.0002110
  C       -1.8361040    -0.0000020     0.0001410
  H        0.8291340     2.1428170    -0.0002660
  H        0.8291450    -2.1428090     0.0001370
  H       -1.6763770     2.1526090    -0.0000810
  H       -1.6763598    -2.1525994     0.1503380
  H       -2.9227180     0.0000020     0.0002420
units angstrom
no_reorient  #important for SAPT in psi4, default
symmetry c1  #important for SAPT in psi4, default
}

set PROPERTIES_ORIGIN ["COM"]
properties('MP2/aug-cc-pvtz', properties = ['dipole'])
--------------------------------------------------------------------------

    Molecular point group: c1
  Charge       = 0
  Multiplicity = 1
  Basis Set: AUG-CC-PVTZ
    Blend: AUG-CC-PVTZ
  Basis Set: (AUG-CC-PVTZ AUX)
    Blend: AUG-CC-PVTZ-JKFIT

    Orbital Energies [Eh]
    ---------------------

    Doubly Occupied:

       1A    -26.308029     2A    -11.331946     3A    -11.254673
       4A    -11.253858     5A    -11.247958     6A    -11.247914
       7A    -11.244106     8A     -1.621053     9A     -1.164208
      10A     -1.032760    11A     -1.022704    12A     -0.854634
      13A     -0.840838    14A     -0.742339    15A     -0.698277
      16A     -0.689963    17A     -0.687146    18A     -0.623118
      19A     -0.605793    20A     -0.595842    21A     -0.532199
      22A     -0.513159    23A     -0.504796    24A     -0.352637
      25A     -0.341713

  @DF-RHF Final Energy:  -329.66957947952045

   => Energetics <=

    Nuclear Repulsion Energy =            268.6507881872693133
    One-Electron Energy =                -982.0174074423920274
    Two-Electron Energy =                 383.6970397756022635
    Total Energy =                       -329.6695794795204506
  Basis Set: (AUG-CC-PVTZ AUX)
    Blend: AUG-CC-PVTZ-RI
    Molecular point group: c1

    Geometry (in Angstrom), charge = 0, multiplicity = 1:

       Center              X                  Y                   Z               Mass
    ------------   -----------------  -----------------  -----------------  -----------------
         F            2.215319763496    -0.000000205684    -0.001744542358    18.998403162730
         C            0.857064763496     0.000001794316    -0.001641542358    12.000000000000
         C            0.188335763496     1.218239794316    -0.001714542358    12.000000000000
         C            0.188335763496    -1.218238205684    -0.001478542358    12.000000000000
         C           -1.207832236504     1.209217794316    -0.001588542358    12.000000000000
         C           -1.207831236504    -1.209220205684    -0.001357542358    12.000000000000
         C           -1.907578236504    -0.000002205684    -0.001427542358    12.000000000000
         H            0.757659763496     2.142816794316    -0.001834542358     1.007825032230
         H            0.757670763496    -2.142809205684    -0.001431542358     1.007825032230
         H           -1.747851236504     2.152608794316    -0.001649542358     1.007825032230
         H           -1.747834036504    -2.152599605684     0.148769457642     1.007825032230
         H           -2.994192236504     0.000001794316    -0.001326542358     1.007825032230

  Basis Set: AUG-CC-PVTZ
    Blend: AUG-CC-PVTZ
  Basis Set: (AUG-CC-PVTZ AUX)
    Blend: AUG-CC-PVTZ-JKFIT
	 Reference Energy          =    -329.6695794795204506 [Eh]
	 Singles Energy            =      -0.0000000000000000 [Eh]
	 Same-Spin Energy          =      -0.3285385437277981 [Eh]
	 Opposite-Spin Energy      =      -1.0079637133564958 [Eh]
	 Correlation Energy        =      -1.3365022570842939 [Eh]
	 Total Energy              =    -331.0060817366047559 [Eh]

	 ================> DF-SCS-MP2 Energies <==================
	-----------------------------------------------------------
	 SCS Same-Spin Scale       =       0.3333333333333333 [-]
	 SCS Opposite-Spin Scale   =       1.2000000000000000 [-]
	 SCS Same-Spin Energy      =      -0.1095128479092660 [Eh]
	 SCS Opposite-Spin Energy  =      -1.2095564560277949 [Eh]
	 SCS Correlation Energy    =      -1.3190693039370609 [Eh]
	 SCS Total Energy          =    -330.9886487834575064 [Eh]
	-----------------------------------------------------------

  Dipole Moment: [D]
     X:    -1.5673      Y:     0.0165      Z:     0.0943     Total:     1.5703

*** Psi4 exiting successfully. Buy a developer a beer!
