                               Psi4 1.3.2 release

  ==> Input File <==

--------------------------------------------------------------------------
#psi4
#
memory 32 gb

molecule  {
0 1
  F        2.2867940     0.0000000    -0.0001760
  C        0.9285390     0.0000020    -0.0000730
  C        0.2598100     1.2182400    -0.0001460
  C        0.2598100    -1.2182380     0.0000900
  C       -1.1363580     1.2092180    -0.0000200
  C       -1.1363570    -1.2092200     0.0002110
  C       -1.8361040    -0.0000020     0.0001410
  H        0.8291340     2.1428170    -0.0002660
  H        0.8291615    -2.1427902     0.2001370
  H       -1.6763770     2.1526090    -0.0000810
  H       -1.6763720    -2.1526140     0.0003380
  H       -2.9227180     0.0000020     0.0002420
units angstrom
no_reorient  #important for SAPT in psi4, default
symmetry c1  #important for SAPT in psi4, default
}

set PROPERTIES_ORIGIN ["COM"]
properties('MP2/aug-cc-pvtz', properties = ['dipole'])
--------------------------------------------------------------------------

    Molecular point group: c1
  Charge       = 0
  Multiplicity = 1
  Basis Set: AUG-CC-PVTZ
    Blend: AUG-CC-PVTZ
  Basis Set: (AUG-CC-PVTZ AUX)
    Blend: AUG-CC-PVTZ-JKFIT

    Orbital Energies [Eh]
    ---------------------

    Doubly Occupied:

       1A    -26.308065     2A    -11.332246     3A    -11.254218
       4A    -11.254116     5A    -11.249197     6A    -11.247876
       7A    -11.244049     8A     -1.621059     9A     -1.164275
      10A     -1.032620    11A     -1.022738    12A     -0.854552
      13A     -0.840737    14A     -0.742681    15A     -0.698239
      16A     -0.690410    17A     -0.685028    18A     -0.623399
      19A     -0.605604    20A     -0.595096    21A     -0.532143
      22A     -0.513257    23A     -0.504417    24A     -0.352642
      25A     -0.341762

  @DF-RHF Final Energy:  -329.66851095648474

   => Energetics <=

    Nuclear Repulsion Energy =            268.6175997960366999
    One-Electron Energy =                -981.9513668817334064
    Two-Electron Energy =                 383.6652561292120254
    Total Energy =                       -329.6685109564847380
  Basis Set: (AUG-CC-PVTZ AUX)
    Blend: AUG-CC-PVTZ-RI
    Molecular point group: c1

    Geometry (in Angstrom), charge = 0, multiplicity = 1:

       Center              X                  Y                   Z               Mass
    ------------   -----------------  -----------------  -----------------  -----------------
         F            2.215319718372    -0.000000249759    -0.002269246112    18.998403162730
         C            0.857064718372     0.000001750241    -0.002166246112    12.000000000000
         C            0.188335718372     1.218239750241    -0.002239246112    12.000000000000
         C            0.188335718372    -1.218238249759    -0.002003246112    12.000000000000
         C           -1.207832281628     1.209217750241    -0.002113246112    12.000000000000
         C           -1.207831281628    -1.209220249759    -0.001882246112    12.000000000000
         C           -1.907578281628    -0.000002249759    -0.001952246112    12.000000000000
         H            0.757659718372     2.142816750241    -0.002359246112     1.007825032230
         H            0.757687218372    -2.142790449759     0.198043753888     1.007825032230
         H           -1.747851281628     2.152608750241    -0.002174246112     1.007825032230
         H           -1.747846281628    -2.152614249759    -0.001755246112     1.007825032230
         H           -2.994192281628     0.000001750241    -0.001851246112     1.007825032230

  Basis Set: AUG-CC-PVTZ
    Blend: AUG-CC-PVTZ
  Basis Set: (AUG-CC-PVTZ AUX)
    Blend: AUG-CC-PVTZ-JKFIT
	 Reference Energy          =    -329.6685109564847380 [Eh]
	 Singles Energy            =      -0.0000000000000000 [Eh]
	 Same-Spin Energy          =      -0.3285936706087844 [Eh]
	 Opposite-Spin Energy      =      -1.0080579875570428 [Eh]
	 Correlation Energy        =      -1.3366516581658272 [Eh]
	 Total Energy              =    -331.0051626146505441 [Eh]

	 ================> DF-SCS-MP2 Energies <==================
	-----------------------------------------------------------
	 SCS Same-Spin Scale       =       0.3333333333333333 [-]
	 SCS Opposite-Spin Scale   =       1.2000000000000000 [-]
	 SCS Same-Spin Energy      =      -0.1095312235362615 [Eh]
	 SCS Opposite-Spin Energy  =      -1.2096695850684513 [Eh]
	 SCS Correlation Energy    =      -1.3192008086047129 [Eh]
	 SCS Total Energy          =    -330.9877117650894434 [Eh]
	-----------------------------------------------------------

  Dipole Moment: [D]
     X:    -1.5928      Y:     0.0265      Z:     0.1440     Total:     1.5996

*** Psi4 exiting successfully. Buy a developer a beer!
