                               Psi4 1.3.2 release

  ==> Input File <==

--------------------------------------------------------------------------
#psi4
#
memory 32 gb

molecule  {
0 1
  F        2.2867940     0.0000000    -0.0001760
  C        0.9285390     0.0000020    -0.0000730
  C        0.2598100     1.2182400    -0.0001460
  C        0.2598100    -1.2182380     0.0000900
  C       -1.1363580     1.2092180    -0.0000200
  C       -1.1363570    -1.2092200     0.0002110
  C       -1.8361040    -0.0000020     0.0001410
  H        0.8291340     2.1428170    -0.0002660
  H        0.8291450    -2.1428090     0.0001370
  H       -1.6763770     2.1526090    -0.0000810
  H       -1.6763477    -2.1525847     0.3003380
  H       -2.9227180     0.0000020     0.0002420
units angstrom
no_reorient  #important for SAPT in psi4, default
symmetry c1  #important for SAPT in psi4, default
}

set PROPERTIES_ORIGIN ["COM"]
properties('MP2/aug-cc-pvtz', properties = ['dipole'])
--------------------------------------------------------------------------

    Molecular point group: c1
  Charge       = 0
  Multiplicity = 1
  Basis Set: AUG-CC-PVTZ
    Blend: AUG-CC-PVTZ
  Basis Set: (AUG-CC-PVTZ AUX)
    Blend: AUG-CC-PVTZ-JKFIT

    Orbital Energies [Eh]
    ---------------------

    Doubly Occupied:

       1A    -26.308205     2A    -11.332153     3A    -11.257284
       4A    -11.254104     5A    -11.248608     6A    -11.248455
       7A    -11.244692     8A     -1.621240     9A     -1.164429
      10A     -1.032469    11A     -1.022755    12A     -0.853603
      13A     -0.840680    14A     -0.740590    15A     -0.698290
      16A     -0.690179    17A     -0.687490    18A     -0.620944
      19A     -0.603816    20A     -0.595802    21A     -0.532548
      22A     -0.516079    23A     -0.499313    24A     -0.352386
      25A     -0.341840

  @DF-RHF Final Energy:  -329.66470799123164

   => Energetics <=

    Nuclear Repulsion Energy =            268.5402487152817343
    One-Electron Energy =                -981.7940072657797828
    Two-Electron Energy =                 383.5890505592664681
    Total Energy =                       -329.6647079912316372
  Basis Set: (AUG-CC-PVTZ AUX)
    Blend: AUG-CC-PVTZ-RI
    Molecular point group: c1

    Geometry (in Angstrom), charge = 0, multiplicity = 1:

       Center              X                  Y                   Z               Mass
    ------------   -----------------  -----------------  -----------------  -----------------
         F            2.215319636518    -0.000000359947    -0.003318653619    18.998403162730
         C            0.857064636518     0.000001640053    -0.003215653619    12.000000000000
         C            0.188335636518     1.218239640053    -0.003288653619    12.000000000000
         C            0.188335636518    -1.218238359947    -0.003052653619    12.000000000000
         C           -1.207832363482     1.209217640053    -0.003162653619    12.000000000000
         C           -1.207831363482    -1.209220359947    -0.002931653619    12.000000000000
         C           -1.907578363482    -0.000002359947    -0.003001653619    12.000000000000
         H            0.757659636518     2.142816640053    -0.003408653619     1.007825032230
         H            0.757670636518    -2.142809359947    -0.003005653619     1.007825032230
         H           -1.747851363482     2.152608640053    -0.003223653619     1.007825032230
         H           -1.747822063482    -2.152585059947     0.297195346381     1.007825032230
         H           -2.994192363482     0.000001640053    -0.002900653619     1.007825032230

  Basis Set: AUG-CC-PVTZ
    Blend: AUG-CC-PVTZ
  Basis Set: (AUG-CC-PVTZ AUX)
    Blend: AUG-CC-PVTZ-JKFIT
	 Reference Energy          =    -329.6647079912316372 [Eh]
	 Singles Energy            =      -0.0000000000000000 [Eh]
	 Same-Spin Energy          =      -0.3287867647224209 [Eh]
	 Opposite-Spin Energy      =      -1.0086542072526226 [Eh]
	 Correlation Energy        =      -1.3374409719750435 [Eh]
	 Total Energy              =    -331.0021489632067073 [Eh]

	 ================> DF-SCS-MP2 Energies <==================
	-----------------------------------------------------------
	 SCS Same-Spin Scale       =       0.3333333333333333 [-]
	 SCS Opposite-Spin Scale   =       1.2000000000000000 [-]
	 SCS Same-Spin Energy      =      -0.1095955882408070 [Eh]
	 SCS Opposite-Spin Energy  =      -1.2103850487031471 [Eh]
	 SCS Correlation Energy    =      -1.3199806369439542 [Eh]
	 SCS Total Energy          =    -330.9846886281756042 [Eh]
	-----------------------------------------------------------

  Dipole Moment: [D]
     X:    -1.5415      Y:     0.0648      Z:     0.1851     Total:     1.5540

*** Psi4 exiting successfully. Buy a developer a beer!
