                               Psi4 1.3.2 release

  ==> Input File <==

--------------------------------------------------------------------------
#psi4
#
memory 32 gb

molecule  {
0 1
  F        2.2867940     0.0000000    -0.0001760
  C        0.9285390     0.0000020    -0.0000730
  C        0.2598100     1.2182400    -0.0001460
  C        0.2598100    -1.2182380     0.0000900
  C       -1.1363580     1.2092180    -0.0000200
  C       -1.1363570    -1.2092200     0.0002110
  C       -1.8361040    -0.0000020     0.0001410
  H        0.8291340     2.1428170    -0.0002660
  H        0.8291656    -2.1427855     0.2501370
  H       -1.6763770     2.1526090    -0.0000810
  H       -1.6763720    -2.1526140     0.0003380
  H       -2.9227180     0.0000020     0.0002420
units angstrom
no_reorient  #important for SAPT in psi4, default
symmetry c1  #important for SAPT in psi4, default
}

set PROPERTIES_ORIGIN ["COM"]
properties('MP2/aug-cc-pvtz', properties = ['dipole'])
--------------------------------------------------------------------------

    Molecular point group: c1
  Charge       = 0
  Multiplicity = 1
  Basis Set: AUG-CC-PVTZ
    Blend: AUG-CC-PVTZ
  Basis Set: (AUG-CC-PVTZ AUX)
    Blend: AUG-CC-PVTZ-JKFIT

    Orbital Energies [Eh]
    ---------------------

    Doubly Occupied:

       1A    -26.308114     2A    -11.332450     3A    -11.254451
       4A    -11.254315     5A    -11.249998     6A    -11.247955
       7A    -11.244126     8A     -1.621094     9A     -1.164352
      10A     -1.032490    11A     -1.022764    12A     -0.854309
      13A     -0.840651    14A     -0.742534    15A     -0.698231
      16A     -0.690554    17A     -0.684102    18A     -0.623094
      19A     -0.605211    20A     -0.594602    21A     -0.532176
      22A     -0.514048    23A     -0.502979    24A     -0.352595
      25A     -0.341812

  @DF-RHF Final Energy:  -329.66697083558097

   => Energetics <=

    Nuclear Repulsion Energy =            268.5784466427953134
    One-Electron Energy =                -981.8728182628499326
    Two-Electron Energy =                 383.6274007844735934
    Total Energy =                       -329.6669708355809689
  Basis Set: (AUG-CC-PVTZ AUX)
    Blend: AUG-CC-PVTZ-RI
    Molecular point group: c1

    Geometry (in Angstrom), charge = 0, multiplicity = 1:

       Center              X                  Y                   Z               Mass
    ------------   -----------------  -----------------  -----------------  -----------------
         F            2.215319675346    -0.000000299081    -0.002793949866    18.998403162730
         C            0.857064675346     0.000001700919    -0.002690949866    12.000000000000
         C            0.188335675346     1.218239700919    -0.002763949866    12.000000000000
         C            0.188335675346    -1.218238299081    -0.002527949866    12.000000000000
         C           -1.207832324654     1.209217700919    -0.002637949866    12.000000000000
         C           -1.207831324654    -1.209220299081    -0.002406949866    12.000000000000
         C           -1.907578324654    -0.000002299081    -0.002476949866    12.000000000000
         H            0.757659675346     2.142816700919    -0.002883949866     1.007825032230
         H            0.757691275346    -2.142785799081     0.247519050134     1.007825032230
         H           -1.747851324654     2.152608700919    -0.002698949866     1.007825032230
         H           -1.747846324654    -2.152614299081    -0.002279949866     1.007825032230
         H           -2.994192324654     0.000001700919    -0.002375949866     1.007825032230

  Basis Set: AUG-CC-PVTZ
    Blend: AUG-CC-PVTZ
  Basis Set: (AUG-CC-PVTZ AUX)
    Blend: AUG-CC-PVTZ-JKFIT
	 Reference Energy          =    -329.6669708355809689 [Eh]
	 Singles Energy            =      -0.0000000000000000 [Eh]
	 Same-Spin Energy          =      -0.3286720165100414 [Eh]
	 Opposite-Spin Energy      =      -1.0082517079464808 [Eh]
	 Correlation Energy        =      -1.3369237244565222 [Eh]
	 Total Energy              =    -331.0038945600375087 [Eh]

	 ================> DF-SCS-MP2 Energies <==================
	-----------------------------------------------------------
	 SCS Same-Spin Scale       =       0.3333333333333333 [-]
	 SCS Opposite-Spin Scale   =       1.2000000000000000 [-]
	 SCS Same-Spin Energy      =      -0.1095573388366805 [Eh]
	 SCS Opposite-Spin Energy  =      -1.2099020495357768 [Eh]
	 SCS Correlation Energy    =      -1.3194593883724572 [Eh]
	 SCS Total Energy          =    -330.9864302239534481 [Eh]
	-----------------------------------------------------------

  Dipole Moment: [D]
     X:    -1.6020      Y:     0.0411      Z:     0.1790     Total:     1.6125

*** Psi4 exiting successfully. Buy a developer a beer!
