                               Psi4 1.3.2 release

  ==> Input File <==

--------------------------------------------------------------------------
#psi4
#
memory 32 gb

molecule  {
0 1
  F        2.2867940     0.0000000    -0.0001760
  C        0.9285390     0.0000020    -0.0000730
  C        0.2598100     1.2182400    -0.0001460
  C        0.2598246    -1.2182186     0.2000900
  C       -1.1363580     1.2092180    -0.0000200
  C       -1.1363570    -1.2092200     0.0002110
  C       -1.8361040    -0.0000020     0.0001410
  H        0.8291340     2.1428170    -0.0002660
  H        0.8291450    -2.1428090     0.0001370
  H       -1.6763770     2.1526090    -0.0000810
  H       -1.6763720    -2.1526140     0.0003380
  H       -2.9227180     0.0000020     0.0002420
units angstrom
no_reorient  #important for SAPT in psi4, default
symmetry c1  #important for SAPT in psi4, default
}

set PROPERTIES_ORIGIN ["COM"]
properties('MP2/aug-cc-pvtz', properties = ['dipole'])
--------------------------------------------------------------------------

    Molecular point group: c1
  Charge       = 0
  Multiplicity = 1
  Basis Set: AUG-CC-PVTZ
    Blend: AUG-CC-PVTZ
  Basis Set: (AUG-CC-PVTZ AUX)
    Blend: AUG-CC-PVTZ-JKFIT

    Orbital Energies [Eh]
    ---------------------

    Doubly Occupied:

       1A    -26.308816     2A    -11.335372     3A    -11.257076
       4A    -11.255912     5A    -11.251015     6A    -11.247621
       7A    -11.243768     8A     -1.621728     9A     -1.162914
      10A     -1.031457    11A     -1.022049    12A     -0.854041
      13A     -0.839646    14A     -0.742272    15A     -0.697876
      16A     -0.690502    17A     -0.684451    18A     -0.623143
      19A     -0.604105    20A     -0.592901    21A     -0.531436
      22A     -0.510988    23A     -0.503371    24A     -0.352668
      25A     -0.341109

  @DF-RHF Final Energy:  -329.65908847497866

   => Energetics <=

    Nuclear Repulsion Energy =            268.2395253462187270
    One-Electron Energy =                -981.1847544305080646
    Two-Electron Energy =                 383.2861406093107348
    Total Energy =                       -329.6590884749786596
  Basis Set: (AUG-CC-PVTZ AUX)
    Blend: AUG-CC-PVTZ-RI
    Molecular point group: c1

    Geometry (in Angstrom), charge = 0, multiplicity = 1:

       Center              X                  Y                   Z               Mass
    ------------   -----------------  -----------------  -----------------  -----------------
         F            2.215318067237    -0.000002476523    -0.025160661915    18.998403162730
         C            0.857063067237    -0.000000476523    -0.025057661915    12.000000000000
         C            0.188334067237     1.218237523477    -0.025130661915    12.000000000000
         C            0.188348667237    -1.218221076523     0.175105338085    12.000000000000
         C           -1.207833932763     1.209215523477    -0.025004661915    12.000000000000
         C           -1.207832932763    -1.209222476523    -0.024773661915    12.000000000000
         C           -1.907579932763    -0.000004476523    -0.024843661915    12.000000000000
         H            0.757658067237     2.142814523477    -0.025250661915     1.007825032230
         H            0.757669067237    -2.142811476523    -0.024847661915     1.007825032230
         H           -1.747852932763     2.152606523477    -0.025065661915     1.007825032230
         H           -1.747847932763    -2.152616476523    -0.024646661915     1.007825032230
         H           -2.994193932763    -0.000000476523    -0.024742661915     1.007825032230

  Basis Set: AUG-CC-PVTZ
    Blend: AUG-CC-PVTZ
  Basis Set: (AUG-CC-PVTZ AUX)
    Blend: AUG-CC-PVTZ-JKFIT
	 Reference Energy          =    -329.6590884749786596 [Eh]
	 Singles Energy            =      -0.0000000000000000 [Eh]
	 Same-Spin Energy          =      -0.3290376934803009 [Eh]
	 Opposite-Spin Energy      =      -1.0097042383835686 [Eh]
	 Correlation Energy        =      -1.3387419318638694 [Eh]
	 Total Energy              =    -330.9978304068425246 [Eh]

	 ================> DF-SCS-MP2 Energies <==================
	-----------------------------------------------------------
	 SCS Same-Spin Scale       =       0.3333333333333333 [-]
	 SCS Opposite-Spin Scale   =       1.2000000000000000 [-]
	 SCS Same-Spin Energy      =      -0.1096792311601003 [Eh]
	 SCS Opposite-Spin Energy  =      -1.2116450860602823 [Eh]
	 SCS Correlation Energy    =      -1.3213243172203826 [Eh]
	 SCS Total Energy          =    -330.9804127921990471 [Eh]
	-----------------------------------------------------------

  Dipole Moment: [D]
     X:    -1.6126      Y:     0.0806      Z:    -0.1171     Total:     1.6189

*** Psi4 exiting successfully. Buy a developer a beer!
