                               Psi4 1.3.2 release

  ==> Input File <==

--------------------------------------------------------------------------
#psi4
#
memory 32 gb

molecule  {
0 1
  F        2.2867940     0.0000000    -0.0001760
  C        0.9285390     0.0000020    -0.0000730
  C        0.2598100     1.2182400    -0.0001460
  C        0.2598100    -1.2182380     0.0000900
  C       -1.1363580     1.2092180    -0.0000200
  C       -1.1363570    -1.2092200     0.0002110
  C       -1.8361040    -0.0000020     0.0001410
  H        0.8291340     2.1428170    -0.0002660
  H        0.8291450    -2.1428090     0.0001370
  H       -1.6763770     2.1526090    -0.0000810
  H       -1.6763639    -2.1526042     0.1003380
  H       -2.9227180     0.0000020     0.0002420
units angstrom
no_reorient  #important for SAPT in psi4, default
symmetry c1  #important for SAPT in psi4, default
}

set PROPERTIES_ORIGIN ["COM"]
properties('MP2/aug-cc-pvtz', properties = ['dipole'])
--------------------------------------------------------------------------

    Molecular point group: c1
  Charge       = 0
  Multiplicity = 1
  Basis Set: AUG-CC-PVTZ
    Blend: AUG-CC-PVTZ
  Basis Set: (AUG-CC-PVTZ AUX)
    Blend: AUG-CC-PVTZ-JKFIT

    Orbital Energies [Eh]
    ---------------------

    Doubly Occupied:

       1A    -26.307999     2A    -11.331912     3A    -11.254182
       4A    -11.253815     5A    -11.247841     6A    -11.247816
       7A    -11.244001     8A     -1.621022     9A     -1.164172
      10A     -1.032830    11A     -1.022698    12A     -0.854861
      13A     -0.840869    14A     -0.742701    15A     -0.698281
      16A     -0.689925    17A     -0.687084    18A     -0.623615
      19A     -0.606122    20A     -0.595834    21A     -0.532129
      22A     -0.512049    23A     -0.506381    24A     -0.352692
      25A     -0.341692

  @DF-RHF Final Energy:  -329.67039976436155

   => Energetics <=

    Nuclear Repulsion Energy =            268.6720413460411123
    One-Electron Energy =                -982.0598299880597324
    Two-Electron Energy =                 383.7173888776571289
    Total Energy =                       -329.6703997643615480
  Basis Set: (AUG-CC-PVTZ AUX)
    Blend: AUG-CC-PVTZ-RI
    Molecular point group: c1

    Geometry (in Angstrom), charge = 0, multiplicity = 1:

       Center              X                  Y                   Z               Mass
    ------------   -----------------  -----------------  -----------------  -----------------
         F            2.215319806522    -0.000000155312    -0.001219838604    18.998403162730
         C            0.857064806522     0.000001844688    -0.001116838604    12.000000000000
         C            0.188335806522     1.218239844688    -0.001189838604    12.000000000000
         C            0.188335806522    -1.218238155312    -0.000953838604    12.000000000000
         C           -1.207832193478     1.209217844688    -0.001063838604    12.000000000000
         C           -1.207831193478    -1.209220155312    -0.000832838604    12.000000000000
         C           -1.907578193478    -0.000002155312    -0.000902838604    12.000000000000
         H            0.757659806522     2.142816844688    -0.001309838604     1.007825032230
         H            0.757670806522    -2.142809155312    -0.000906838604     1.007825032230
         H           -1.747851193478     2.152608844688    -0.001124838604     1.007825032230
         H           -1.747838093478    -2.152604355312     0.099294161396     1.007825032230
         H           -2.994192193478     0.000001844688    -0.000801838604     1.007825032230

  Basis Set: AUG-CC-PVTZ
    Blend: AUG-CC-PVTZ
  Basis Set: (AUG-CC-PVTZ AUX)
    Blend: AUG-CC-PVTZ-JKFIT
	 Reference Energy          =    -329.6703997643615480 [Eh]
	 Singles Energy            =      -0.0000000000000000 [Eh]
	 Same-Spin Energy          =      -0.3284893122760152 [Eh]
	 Opposite-Spin Energy      =      -1.0078318160298743 [Eh]
	 Correlation Energy        =      -1.3363211283058896 [Eh]
	 Total Energy              =    -331.0067208926674311 [Eh]

	 ================> DF-SCS-MP2 Energies <==================
	-----------------------------------------------------------
	 SCS Same-Spin Scale       =       0.3333333333333333 [-]
	 SCS Opposite-Spin Scale   =       1.2000000000000000 [-]
	 SCS Same-Spin Energy      =      -0.1094964374253384 [Eh]
	 SCS Opposite-Spin Energy  =      -1.2093981792358490 [Eh]
	 SCS Correlation Energy    =      -1.3188946166611875 [Eh]
	 SCS Total Energy          =    -330.9892943810227166 [Eh]
	-----------------------------------------------------------

  Dipole Moment: [D]
     X:    -1.5722      Y:     0.0074      Z:     0.0631     Total:     1.5735

*** Psi4 exiting successfully. Buy a developer a beer!
