                               Psi4 1.3.2 release

  ==> Input File <==

--------------------------------------------------------------------------
#psi4
#
memory 32 gb

molecule  {
0 1
  F        2.2867940     0.0000000    -0.0001760
  C        0.9285390     0.0000020    -0.0000730
  C        0.2598100     1.2182400    -0.0001460
  C        0.2598210    -1.2182235     0.1500900
  C       -1.1363580     1.2092180    -0.0000200
  C       -1.1363570    -1.2092200     0.0002110
  C       -1.8361040    -0.0000020     0.0001410
  H        0.8291340     2.1428170    -0.0002660
  H        0.8291450    -2.1428090     0.0001370
  H       -1.6763770     2.1526090    -0.0000810
  H       -1.6763720    -2.1526140     0.0003380
  H       -2.9227180     0.0000020     0.0002420
units angstrom
no_reorient  #important for SAPT in psi4, default
symmetry c1  #important for SAPT in psi4, default
}

set PROPERTIES_ORIGIN ["COM"]
properties('MP2/aug-cc-pvtz', properties = ['dipole'])
--------------------------------------------------------------------------

    Molecular point group: c1
  Charge       = 0
  Multiplicity = 1
  Basis Set: AUG-CC-PVTZ
    Blend: AUG-CC-PVTZ
  Basis Set: (AUG-CC-PVTZ AUX)
    Blend: AUG-CC-PVTZ-JKFIT

    Orbital Energies [Eh]
    ---------------------

    Doubly Occupied:

       1A    -26.308437     2A    -11.333854     3A    -11.255641
       4A    -11.254962     5A    -11.249592     6A    -11.247653
       7A    -11.243814     8A     -1.621400     9A     -1.163427
      10A     -1.032054    11A     -1.022338    12A     -0.854448
      13A     -0.840174    14A     -0.742541    15A     -0.698040
      16A     -0.690266    17A     -0.685481    18A     -0.623457
      19A     -0.605107    20A     -0.594178    21A     -0.531732
      22A     -0.510995    23A     -0.505319    24A     -0.352672
      25A     -0.341337

  @DF-RHF Final Energy:  -329.66435814403707

   => Energetics <=

    Nuclear Repulsion Energy =            268.4347846662817574
    One-Electron Energy =                -981.5804478585009747
    Two-Electron Energy =                 383.4813050481821506
    Total Energy =                       -329.6643581440370667
  Basis Set: (AUG-CC-PVTZ AUX)
    Blend: AUG-CC-PVTZ-RI
    Molecular point group: c1

    Geometry (in Angstrom), charge = 0, multiplicity = 1:

       Center              X                  Y                   Z               Mass
    ------------   -----------------  -----------------  -----------------  -----------------
         F            2.215318517061    -0.000001864262    -0.018913104210    18.998403162730
         C            0.857063517061     0.000000135738    -0.018810104210    12.000000000000
         C            0.188334517061     1.218238135738    -0.018883104210    12.000000000000
         C            0.188345517061    -1.218225364262     0.131352895790    12.000000000000
         C           -1.207833482939     1.209216135738    -0.018757104210    12.000000000000
         C           -1.207832482939    -1.209221864262    -0.018526104210    12.000000000000
         C           -1.907579482939    -0.000003864262    -0.018596104210    12.000000000000
         H            0.757658517061     2.142815135738    -0.019003104210     1.007825032230
         H            0.757669517061    -2.142810864262    -0.018600104210     1.007825032230
         H           -1.747852482939     2.152607135738    -0.018818104210     1.007825032230
         H           -1.747847482939    -2.152615864262    -0.018399104210     1.007825032230
         H           -2.994193482939     0.000000135738    -0.018495104210     1.007825032230

  Basis Set: AUG-CC-PVTZ
    Blend: AUG-CC-PVTZ
  Basis Set: (AUG-CC-PVTZ AUX)
    Blend: AUG-CC-PVTZ-JKFIT
	 Reference Energy          =    -329.6643581440370667 [Eh]
	 Singles Energy            =      -0.0000000000000000 [Eh]
	 Same-Spin Energy          =      -0.3287908935376877 [Eh]
	 Opposite-Spin Energy      =      -1.0088697551117907 [Eh]
	 Correlation Energy        =      -1.3376606486494784 [Eh]
	 Total Energy              =    -331.0020187926865560 [Eh]

	 ================> DF-SCS-MP2 Energies <==================
	-----------------------------------------------------------
	 SCS Same-Spin Scale       =       0.3333333333333333 [-]
	 SCS Opposite-Spin Scale   =       1.2000000000000000 [-]
	 SCS Same-Spin Energy      =      -0.1095969645125626 [Eh]
	 SCS Opposite-Spin Energy  =      -1.2106437061341488 [Eh]
	 SCS Correlation Energy    =      -1.3202406706467114 [Eh]
	 SCS Total Energy          =    -330.9845988146837499 [Eh]
	-----------------------------------------------------------

  Dipole Moment: [D]
     X:    -1.5968      Y:     0.0455      Z:    -0.0866     Total:     1.5998

*** Psi4 exiting successfully. Buy a developer a beer!
