                               Psi4 1.3.2 release

  ==> Input File <==

--------------------------------------------------------------------------
#psi4
#
memory 32 gb

molecule  {
0 1
  F        2.2867940     0.0000000    -0.0001760
  C        0.9285390     0.0000020    -0.0000730
  C        0.2598100     1.2182400    -0.0001460
  C        0.2598100    -1.2182380     0.0000900
  C       -1.1363580     1.2092180    -0.0000200
  C       -1.1363570    -1.2092200     0.0002110
  C       -1.8361040    -0.0000020     0.0001410
  H        0.8291340     2.1428170    -0.0002660
  H        0.8291450    -2.1428090     0.0001370
  H       -1.6763770     2.1526090    -0.0000810
  H       -1.6763720    -2.1526140     0.0003380
  H       -2.9227303    -0.0000123    -0.1497580
units angstrom
no_reorient  #important for SAPT in psi4, default
symmetry c1  #important for SAPT in psi4, default
}

set PROPERTIES_ORIGIN ["COM"]
properties('MP2/aug-cc-pvtz', properties = ['dipole'])
--------------------------------------------------------------------------

    Molecular point group: c1
  Charge       = 0
  Multiplicity = 1
  Basis Set: AUG-CC-PVTZ
    Blend: AUG-CC-PVTZ
  Basis Set: (AUG-CC-PVTZ AUX)
    Blend: AUG-CC-PVTZ-JKFIT

    Orbital Energies [Eh]
    ---------------------

    Doubly Occupied:

       1A    -26.308160     2A    -11.332136     3A    -11.254002
       4A    -11.253938     5A    -11.247831     6A    -11.247816
       7A    -11.244790     8A     -1.621171     9A     -1.164226
      10A     -1.033011    11A     -1.022442    12A     -0.855163
      13A     -0.840414    14A     -0.743119    15A     -0.698413
      16A     -0.690066    17A     -0.685342    18A     -0.623943
      19A     -0.606500    20A     -0.595923    21A     -0.532135
      22A     -0.508791    23A     -0.508630    24A     -0.352844
      25A     -0.341556

  @DF-RHF Final Energy:  -329.66961500564082

   => Energetics <=

    Nuclear Repulsion Energy =            268.6509680452170983
    One-Electron Energy =                -982.0164447878280498
    Two-Electron Energy =                 383.6958617369701869
    Total Energy =                       -329.6696150056408214
  Basis Set: (AUG-CC-PVTZ AUX)
    Blend: AUG-CC-PVTZ-RI
    Molecular point group: c1

    Geometry (in Angstrom), charge = 0, multiplicity = 1:

       Center              X                  Y                   Z               Mass
    ------------   -----------------  -----------------  -----------------  -----------------
         F            2.215320020601     0.000000097595     0.001403680164    18.998403162730
         C            0.857065020601     0.000002097595     0.001506680164    12.000000000000
         C            0.188336020601     1.218240097595     0.001433680164    12.000000000000
         C            0.188336020601    -1.218237902405     0.001669680164    12.000000000000
         C           -1.207831979399     1.209218097595     0.001559680164    12.000000000000
         C           -1.207830979399    -1.209219902405     0.001790680164    12.000000000000
         C           -1.907577979399    -0.000001902405     0.001720680164    12.000000000000
         H            0.757660020601     2.142817097595     0.001313680164     1.007825032230
         H            0.757671020601    -2.142808902405     0.001716680164     1.007825032230
         H           -1.747850979399     2.152609097595     0.001498680164     1.007825032230
         H           -1.747845979399    -2.152613902405     0.001917680164     1.007825032230
         H           -2.994204279399    -0.000012202405    -0.148178319836     1.007825032230

  Basis Set: AUG-CC-PVTZ
    Blend: AUG-CC-PVTZ
  Basis Set: (AUG-CC-PVTZ AUX)
    Blend: AUG-CC-PVTZ-JKFIT
	 Reference Energy          =    -329.6696150056408214 [Eh]
	 Singles Energy            =      -0.0000000000000000 [Eh]
	 Same-Spin Energy          =      -0.3285271805927437 [Eh]
	 Opposite-Spin Energy      =      -1.0079418966095188 [Eh]
	 Correlation Energy        =      -1.3364690772022625 [Eh]
	 Total Energy              =    -331.0060840828430742 [Eh]

	 ================> DF-SCS-MP2 Energies <==================
	-----------------------------------------------------------
	 SCS Same-Spin Scale       =       0.3333333333333333 [-]
	 SCS Opposite-Spin Scale   =       1.2000000000000000 [-]
	 SCS Same-Spin Energy      =      -0.1095090601975812 [Eh]
	 SCS Opposite-Spin Energy  =      -1.2095302759314226 [Eh]
	 SCS Correlation Energy    =      -1.3190393361290038 [Eh]
	 SCS Total Energy          =    -330.9886543417698022 [Eh]
	-----------------------------------------------------------

  Dipole Moment: [D]
     X:    -1.5560      Y:    -0.0000      Z:    -0.0997     Total:     1.5592

*** Psi4 exiting successfully. Buy a developer a beer!
