                               Psi4 1.3.2 release

  ==> Input File <==

--------------------------------------------------------------------------
#psi4
#
memory 32 gb

molecule  {
0 1
  F        2.2867940     0.0000000    -0.0001760
  C        0.9285390     0.0000020    -0.0000730
  C        0.2598100     1.2182400    -0.0001460
  C        0.2598173    -1.2182283     0.1000900
  C       -1.1363580     1.2092180    -0.0000200
  C       -1.1363570    -1.2092200     0.0002110
  C       -1.8361040    -0.0000020     0.0001410
  H        0.8291340     2.1428170    -0.0002660
  H        0.8291450    -2.1428090     0.0001370
  H       -1.6763770     2.1526090    -0.0000810
  H       -1.6763720    -2.1526140     0.0003380
  H       -2.9227180     0.0000020     0.0002420
units angstrom
no_reorient  #important for SAPT in psi4, default
symmetry c1  #important for SAPT in psi4, default
}

set PROPERTIES_ORIGIN ["COM"]
properties('MP2/aug-cc-pvtz', properties = ['dipole'])
--------------------------------------------------------------------------

    Molecular point group: c1
  Charge       = 0
  Multiplicity = 1
  Basis Set: AUG-CC-PVTZ
    Blend: AUG-CC-PVTZ
  Basis Set: (AUG-CC-PVTZ AUX)
    Blend: AUG-CC-PVTZ-JKFIT

    Orbital Energies [Eh]
    ---------------------

    Doubly Occupied:

       1A    -26.308171     2A    -11.332757     3A    -11.254606
       4A    -11.254294     5A    -11.248559     6A    -11.247688
       7A    -11.243859     8A     -1.621168     9A     -1.163811
      10A     -1.032504    11A     -1.022531    12A     -0.854766
      13A     -0.840563    14A     -0.742773    15A     -0.698166
      16A     -0.690074    17A     -0.686298    18A     -0.623746
      19A     -0.605809    20A     -0.595088    21A     -0.531921
      22A     -0.510790    23A     -0.506906    24A     -0.352695
      25A     -0.341513

  @DF-RHF Final Energy:  -329.66808646039897

   => Energetics <=

    Nuclear Repulsion Energy =            268.5756697703094460
    One-Electron Energy =                -981.8654006207151497
    Two-Electron Energy =                 383.6216443900067361
    Total Energy =                       -329.6680864603989676
  Basis Set: (AUG-CC-PVTZ AUX)
    Blend: AUG-CC-PVTZ-RI
    Molecular point group: c1

    Geometry (in Angstrom), charge = 0, multiplicity = 1:

       Center              X                  Y                   Z               Mass
    ------------   -----------------  -----------------  -----------------  -----------------
         F            2.215318979380    -0.000001264497    -0.012665546506    18.998403162730
         C            0.857063979380     0.000000735503    -0.012562546506    12.000000000000
         C            0.188334979380     1.218238735503    -0.012635546506    12.000000000000
         C            0.188342279380    -1.218229564497     0.087600453494    12.000000000000
         C           -1.207833020620     1.209216735503    -0.012509546506    12.000000000000
         C           -1.207832020620    -1.209221264497    -0.012278546506    12.000000000000
         C           -1.907579020620    -0.000003264497    -0.012348546506    12.000000000000
         H            0.757658979380     2.142815735503    -0.012755546506     1.007825032230
         H            0.757669979380    -2.142810264497    -0.012352546506     1.007825032230
         H           -1.747852020620     2.152607735503    -0.012570546506     1.007825032230
         H           -1.747847020620    -2.152615264497    -0.012151546506     1.007825032230
         H           -2.994193020620     0.000000735503    -0.012247546506     1.007825032230

  Basis Set: AUG-CC-PVTZ
    Blend: AUG-CC-PVTZ
  Basis Set: (AUG-CC-PVTZ AUX)
    Blend: AUG-CC-PVTZ-JKFIT
	 Reference Energy          =    -329.6680864603989676 [Eh]
	 Singles Energy            =      -0.0000000000000000 [Eh]
	 Same-Spin Energy          =      -0.3286086592949412 [Eh]
	 Opposite-Spin Energy      =      -1.0082540942099392 [Eh]
	 Correlation Energy        =      -1.3368627535048803 [Eh]
	 Total Energy              =    -331.0049492139038421 [Eh]

	 ================> DF-SCS-MP2 Energies <==================
	-----------------------------------------------------------
	 SCS Same-Spin Scale       =       0.3333333333333333 [-]
	 SCS Opposite-Spin Scale   =       1.2000000000000000 [-]
	 SCS Same-Spin Energy      =      -0.1095362197649804 [Eh]
	 SCS Opposite-Spin Energy  =      -1.2099049130519270 [Eh]
	 SCS Correlation Energy    =      -1.3194411328169076 [Eh]
	 SCS Total Energy          =    -330.9875275932158729 [Eh]
	-----------------------------------------------------------

  Dipole Moment: [D]
     X:    -1.5854      Y:     0.0202      Z:    -0.0571     Total:     1.5865

*** Psi4 exiting successfully. Buy a developer a beer!
