                               Psi4 1.3.2 release

  ==> Input File <==

--------------------------------------------------------------------------
#psi4
#
memory 32 gb

molecule  {
0 1
  F        2.2867940     0.0000000    -0.0001760
  C        0.9285390     0.0000020    -0.0000730
  C        0.2598100     1.2182400    -0.0001460
  C        0.2598100    -1.2182380     0.0000900
  C       -1.1363580     1.2092180    -0.0000200
  C       -1.1363570    -1.2092200     0.0002110
  C       -1.8361040    -0.0000020     0.0001410
  H        0.8291340     2.1428170    -0.0002660
  H        0.8291697    -2.1427807     0.3001370
  H       -1.6763770     2.1526090    -0.0000810
  H       -1.6763720    -2.1526140     0.0003380
  H       -2.9227180     0.0000020     0.0002420
units angstrom
no_reorient  #important for SAPT in psi4, default
symmetry c1  #important for SAPT in psi4, default
}

set PROPERTIES_ORIGIN ["COM"]
properties('MP2/aug-cc-pvtz', properties = ['dipole'])
--------------------------------------------------------------------------

    Molecular point group: c1
  Charge       = 0
  Multiplicity = 1
  Basis Set: AUG-CC-PVTZ
    Blend: AUG-CC-PVTZ
  Basis Set: (AUG-CC-PVTZ AUX)
    Blend: AUG-CC-PVTZ-JKFIT

    Orbital Energies [Eh]
    ---------------------

    Doubly Occupied:

       1A    -26.308174     2A    -11.332700     3A    -11.254736
       4A    -11.254562     5A    -11.250957     6A    -11.248053
       7A    -11.244222     8A     -1.621137     9A     -1.164449
      10A     -1.032351    11A     -1.022795    12A     -0.854046
      13A     -0.840550    14A     -0.742379    15A     -0.698234
      16A     -0.690676    17A     -0.683081    18A     -0.622768
      19A     -0.604780    20A     -0.593913    21A     -0.532208
      22A     -0.514794    23A     -0.501431    24A     -0.352545
      25A     -0.341875

  @DF-RHF Final Energy:  -329.66498706711332

   => Energetics <=

    Nuclear Repulsion Energy =            268.5316435729072850
    One-Electron Energy =                -981.7784319890992037
    Two-Electron Energy =                 383.5818013490786598
    Total Energy =                       -329.6649870671133158
  Basis Set: (AUG-CC-PVTZ AUX)
    Blend: AUG-CC-PVTZ-RI
    Molecular point group: c1

    Geometry (in Angstrom), charge = 0, multiplicity = 1:

       Center              X                  Y                   Z               Mass
    ------------   -----------------  -----------------  -----------------  -----------------
         F            2.215319632320    -0.000000349453    -0.003318653619    18.998403162730
         C            0.857064632320     0.000001650547    -0.003215653619    12.000000000000
         C            0.188335632320     1.218239650547    -0.003288653619    12.000000000000
         C            0.188335632320    -1.218238349453    -0.003052653619    12.000000000000
         C           -1.207832367680     1.209217650547    -0.003162653619    12.000000000000
         C           -1.207831367680    -1.209220349453    -0.002931653619    12.000000000000
         C           -1.907578367680    -0.000002349453    -0.003001653619    12.000000000000
         H            0.757659632320     2.142816650547    -0.003408653619     1.007825032230
         H            0.757695332320    -2.142781049453     0.296994346381     1.007825032230
         H           -1.747851367680     2.152608650547    -0.003223653619     1.007825032230
         H           -1.747846367680    -2.152614349453    -0.002804653619     1.007825032230
         H           -2.994192367680     0.000001650547    -0.002900653619     1.007825032230

  Basis Set: AUG-CC-PVTZ
    Blend: AUG-CC-PVTZ
  Basis Set: (AUG-CC-PVTZ AUX)
    Blend: AUG-CC-PVTZ-JKFIT
	 Reference Energy          =    -329.6649870671133158 [Eh]
	 Singles Energy            =      -0.0000000000000000 [Eh]
	 Same-Spin Energy          =      -0.3287652499681875 [Eh]
	 Opposite-Spin Energy      =      -1.0084911147292674 [Eh]
	 Correlation Energy        =      -1.3372563646974549 [Eh]
	 Total Energy              =    -331.0022434318107685 [Eh]

	 ================> DF-SCS-MP2 Energies <==================
	-----------------------------------------------------------
	 SCS Same-Spin Scale       =       0.3333333333333333 [-]
	 SCS Opposite-Spin Scale   =       1.2000000000000000 [-]
	 SCS Same-Spin Energy      =      -0.1095884166560625 [Eh]
	 SCS Opposite-Spin Energy  =      -1.2101893376751209 [Eh]
	 SCS Correlation Energy    =      -1.3197777543311835 [Eh]
	 SCS Total Energy          =    -330.9847648214445144 [Eh]
	-----------------------------------------------------------

  Dipole Moment: [D]
     X:    -1.6130      Y:     0.0588      Z:     0.2134     Total:     1.6281

*** Psi4 exiting successfully. Buy a developer a beer!
