                               Psi4 1.3.2 release

  ==> Input File <==

--------------------------------------------------------------------------
#psi4
#
memory 32 gb

molecule  {
0 1
  F        2.2867940     0.0000000    -0.0001760
  C        0.9285390     0.0000020    -0.0000730
  C        0.2598100     1.2182400    -0.0001460
  C        0.2598100    -1.2182380     0.0000900
  C       -1.1363580     1.2092180    -0.0000200
  C       -1.1363570    -1.2092200     0.0002110
  C       -1.8361040    -0.0000020     0.0001410
  H        0.8291340     2.1428170    -0.0002660
  H        0.8291574    -2.1427949     0.1501370
  H       -1.6763770     2.1526090    -0.0000810
  H       -1.6763720    -2.1526140     0.0003380
  H       -2.9227180     0.0000020     0.0002420
units angstrom
no_reorient  #important for SAPT in psi4, default
symmetry c1  #important for SAPT in psi4, default
}

set PROPERTIES_ORIGIN ["COM"]
properties('MP2/aug-cc-pvtz', properties = ['dipole'])
--------------------------------------------------------------------------

    Molecular point group: c1
  Charge       = 0
  Multiplicity = 1
  Basis Set: AUG-CC-PVTZ
    Blend: AUG-CC-PVTZ
  Basis Set: (AUG-CC-PVTZ AUX)
    Blend: AUG-CC-PVTZ-JKFIT

    Orbital Energies [Eh]
    ---------------------

    Doubly Occupied:

       1A    -26.308026     2A    -11.332088     3A    -11.254038
       4A    -11.253962     5A    -11.248565     6A    -11.247817
       7A    -11.243991     8A     -1.621032     9A     -1.164217
      10A     -1.032732    11A     -1.022719    12A     -0.854760
      13A     -0.840805    14A     -0.742811    15A     -0.698254
      16A     -0.690249    17A     -0.685827    18A     -0.623662
      19A     -0.605931    20A     -0.595438    21A     -0.532114
      22A     -0.512420    23A     -0.505753    24A     -0.352682
      25A     -0.341724

  @DF-RHF Final Energy:  -329.66965097901999

   => Energetics <=

    Nuclear Repulsion Energy =            268.6486101638262198
    One-Electron Energy =                -982.0132890428189967
    Two-Electron Energy =                 383.6950278999727857
    Total Energy =                       -329.6696509790199912
  Basis Set: (AUG-CC-PVTZ AUX)
    Blend: AUG-CC-PVTZ-RI
    Molecular point group: c1

    Geometry (in Angstrom), charge = 0, multiplicity = 1:

       Center              X                  Y                   Z               Mass
    ------------   -----------------  -----------------  -----------------  -----------------
         F            2.215319761397    -0.000000200437    -0.001744542358    18.998403162730
         C            0.857064761397     0.000001799563    -0.001641542358    12.000000000000
         C            0.188335761397     1.218239799563    -0.001714542358    12.000000000000
         C            0.188335761397    -1.218238200437    -0.001478542358    12.000000000000
         C           -1.207832238603     1.209217799563    -0.001588542358    12.000000000000
         C           -1.207831238603    -1.209220200437    -0.001357542358    12.000000000000
         C           -1.907578238603    -0.000002200437    -0.001427542358    12.000000000000
         H            0.757659761397     2.142816799563    -0.001834542358     1.007825032230
         H            0.757683161397    -2.142795100437     0.148568457642     1.007825032230
         H           -1.747851238603     2.152608799563    -0.001649542358     1.007825032230
         H           -1.747846238603    -2.152614200437    -0.001230542358     1.007825032230
         H           -2.994192238603     0.000001799563    -0.001326542358     1.007825032230

  Basis Set: AUG-CC-PVTZ
    Blend: AUG-CC-PVTZ
  Basis Set: (AUG-CC-PVTZ AUX)
    Blend: AUG-CC-PVTZ-JKFIT
	 Reference Energy          =    -329.6696509790199912 [Eh]
	 Singles Energy            =      -0.0000000000000000 [Eh]
	 Same-Spin Energy          =      -0.3285312055767040 [Eh]
	 Opposite-Spin Energy      =      -1.0079095571191872 [Eh]
	 Correlation Energy        =      -1.3364407626958912 [Eh]
	 Total Energy              =    -331.0060917417158635 [Eh]

	 ================> DF-SCS-MP2 Energies <==================
	-----------------------------------------------------------
	 SCS Same-Spin Scale       =       0.3333333333333333 [-]
	 SCS Opposite-Spin Scale   =       1.2000000000000000 [-]
	 SCS Same-Spin Energy      =      -0.1095104018589013 [Eh]
	 SCS Opposite-Spin Energy  =      -1.2094914685430245 [Eh]
	 SCS Correlation Energy    =      -1.3190018704019257 [Eh]
	 SCS Total Energy          =    -330.9886528494218965 [Eh]
	-----------------------------------------------------------

  Dipole Moment: [D]
     X:    -1.5856      Y:     0.0150      Z:     0.1085     Total:     1.5894

*** Psi4 exiting successfully. Buy a developer a beer!
