                               Psi4 1.3.2 release

  ==> Input File <==

--------------------------------------------------------------------------
#psi4
#
memory 32 gb

molecule  {
0 1
  F        2.2867940     0.0000000    -0.0001760
  C        0.9285390     0.0000020    -0.0000730
  C        0.2598100     1.2182400    -0.0001460
  C        0.2598100    -1.2182380     0.0000900
  C       -1.1363580     1.2092180    -0.0000200
  C       -1.1363570    -1.2092200     0.0002110
  C       -1.8361040    -0.0000020     0.0001410
  H        0.8291340     2.1428170    -0.0002660
  H        0.8291450    -2.1428090     0.0001370
  H       -1.6763770     2.1526090    -0.0000810
  H       -1.6763679    -2.1526091     0.0503380
  H       -2.9227180     0.0000020     0.0002420
units angstrom
no_reorient  #important for SAPT in psi4, default
symmetry c1  #important for SAPT in psi4, default
}

set PROPERTIES_ORIGIN ["COM"]
properties('MP2/aug-cc-pvtz', properties = ['dipole'])
--------------------------------------------------------------------------

    Molecular point group: c1
  Charge       = 0
  Multiplicity = 1
  Basis Set: AUG-CC-PVTZ
    Blend: AUG-CC-PVTZ
  Basis Set: (AUG-CC-PVTZ AUX)
    Blend: AUG-CC-PVTZ-JKFIT

    Orbital Energies [Eh]
    ---------------------

    Doubly Occupied:

       1A    -26.307983     2A    -11.331894     3A    -11.253894
       4A    -11.253786     5A    -11.247773     6A    -11.247757
       7A    -11.243940     8A     -1.621004     9A     -1.164153
      10A     -1.032876    11A     -1.022696    12A     -0.855005
      13A     -0.840889    14A     -0.742925    15A     -0.698286
      16A     -0.689903    17A     -0.687048    18A     -0.623929
      19A     -0.606313    20A     -0.595829    21A     -0.532088
      22A     -0.510909    23A     -0.507807    24A     -0.352728
      25A     -0.341681

  @DF-RHF Final Energy:  -329.67087711311268

   => Energetics <=

    Nuclear Repulsion Energy =            268.6849168971530730
    One-Electron Energy =                -982.0854030863264370
    Two-Electron Energy =                 383.7296090760606262
    Total Energy =                       -329.6708771131126809
  Basis Set: (AUG-CC-PVTZ AUX)
    Blend: AUG-CC-PVTZ-RI
    Molecular point group: c1

    Geometry (in Angstrom), charge = 0, multiplicity = 1:

       Center              X                  Y                   Z               Mass
    ------------   -----------------  -----------------  -----------------  -----------------
         F            2.215319848498    -0.000000103891    -0.000695134851    18.998403162730
         C            0.857064848498     0.000001896109    -0.000592134851    12.000000000000
         C            0.188335848498     1.218239896109    -0.000665134851    12.000000000000
         C            0.188335848498    -1.218238103891    -0.000429134851    12.000000000000
         C           -1.207832151502     1.209217896109    -0.000539134851    12.000000000000
         C           -1.207831151502    -1.209220103891    -0.000308134851    12.000000000000
         C           -1.907578151502    -0.000002103891    -0.000378134851    12.000000000000
         H            0.757659848498     2.142816896109    -0.000785134851     1.007825032230
         H            0.757670848498    -2.142809103891    -0.000382134851     1.007825032230
         H           -1.747851151502     2.152608896109    -0.000600134851     1.007825032230
         H           -1.747842051502    -2.152609203891     0.049818865149     1.007825032230
         H           -2.994192151502     0.000001896109    -0.000277134851     1.007825032230

  Basis Set: AUG-CC-PVTZ
    Blend: AUG-CC-PVTZ
  Basis Set: (AUG-CC-PVTZ AUX)
    Blend: AUG-CC-PVTZ-JKFIT
	 Reference Energy          =    -329.6708771131126809 [Eh]
	 Singles Energy            =      -0.0000000000000000 [Eh]
	 Same-Spin Energy          =      -0.3284587385909846 [Eh]
	 Opposite-Spin Energy      =      -1.0077511850592848 [Eh]
	 Correlation Energy        =      -1.3362099236502694 [Eh]
	 Total Energy              =    -331.0070870367629254 [Eh]

	 ================> DF-SCS-MP2 Energies <==================
	-----------------------------------------------------------
	 SCS Same-Spin Scale       =       0.3333333333333333 [-]
	 SCS Opposite-Spin Scale   =       1.2000000000000000 [-]
	 SCS Same-Spin Energy      =      -0.1094862461969948 [Eh]
	 SCS Opposite-Spin Energy  =      -1.2093014220711418 [Eh]
	 SCS Correlation Energy    =      -1.3187876682681365 [Eh]
	 SCS Total Energy          =    -330.9896647813808386 [Eh]
	-----------------------------------------------------------

  Dipole Moment: [D]
     X:    -1.5752      Y:     0.0019      Z:     0.0317     Total:     1.5755

*** Psi4 exiting successfully. Buy a developer a beer!
