                               Psi4 1.3.2 release

  ==> Input File <==

--------------------------------------------------------------------------
#psi4
#
memory 32 gb

molecule  {
0 1
  F        2.2867940     0.0000000    -0.0001760
  C        0.9285390     0.0000020    -0.0000730
  C        0.2598100     1.2182400    -0.0001460
  C        0.2598100    -1.2182380     0.0000900
  C       -1.1363580     1.2092180    -0.0000200
  C       -1.1363570    -1.2092200     0.0002110
  C       -1.8361040    -0.0000020     0.0001410
  H        0.8291340     2.1428170    -0.0002660
  H        0.8291450    -2.1428090     0.0001370
  H       -1.6763770     2.1526090    -0.0000810
  H       -1.6763720    -2.1526140     0.0003380
  H       -2.9227344    -0.0000171    -0.1997580
units angstrom
no_reorient  #important for SAPT in psi4, default
symmetry c1  #important for SAPT in psi4, default
}

set PROPERTIES_ORIGIN ["COM"]
properties('MP2/aug-cc-pvtz', properties = ['dipole'])
--------------------------------------------------------------------------

    Molecular point group: c1
  Charge       = 0
  Multiplicity = 1
  Basis Set: AUG-CC-PVTZ
    Blend: AUG-CC-PVTZ
  Basis Set: (AUG-CC-PVTZ AUX)
    Blend: AUG-CC-PVTZ-JKFIT

    Orbital Energies [Eh]
    ---------------------

    Doubly Occupied:

       1A    -26.308303     2A    -11.332332     3A    -11.254154
       4A    -11.254085     5A    -11.247899     6A    -11.247884
       7A    -11.245464     8A     -1.621306     9A     -1.164293
      10A     -1.033108    11A     -1.022260    12A     -0.855252
      13A     -0.840065    14A     -0.743216    15A     -0.698515
      16A     -0.690192    17A     -0.684081    18A     -0.623876
      19A     -0.606602    20A     -0.596003    21A     -0.532151
      22A     -0.508887    23A     -0.507487    24A     -0.352929
      25A     -0.341470

  @DF-RHF Final Energy:  -329.66844625078164

   => Energetics <=

    Nuclear Repulsion Energy =            268.6217776429413107
    One-Electron Energy =                -981.9568257449617477
    Two-Electron Energy =                 383.6666018512387950
    Total Energy =                       -329.6684462507816420
  Basis Set: (AUG-CC-PVTZ AUX)
    Blend: AUG-CC-PVTZ-RI
    Molecular point group: c1

    Geometry (in Angstrom), charge = 0, multiplicity = 1:

       Center              X                  Y                   Z               Mass
    ------------   -----------------  -----------------  -----------------  -----------------
         F            2.215320063627     0.000000147966     0.001928383918    18.998403162730
         C            0.857065063627     0.000002147966     0.002031383918    12.000000000000
         C            0.188336063627     1.218240147966     0.001958383918    12.000000000000
         C            0.188336063627    -1.218237852034     0.002194383918    12.000000000000
         C           -1.207831936373     1.209218147966     0.002084383918    12.000000000000
         C           -1.207830936373    -1.209219852034     0.002315383918    12.000000000000
         C           -1.907577936373    -0.000001852034     0.002245383918    12.000000000000
         H            0.757660063627     2.142817147966     0.001838383918     1.007825032230
         H            0.757671063627    -2.142808852034     0.002241383918     1.007825032230
         H           -1.747850936373     2.152609147966     0.002023383918     1.007825032230
         H           -1.747845936373    -2.152613852034     0.002442383918     1.007825032230
         H           -2.994208336373    -0.000016952034    -0.197653616082     1.007825032230

  Basis Set: AUG-CC-PVTZ
    Blend: AUG-CC-PVTZ
  Basis Set: (AUG-CC-PVTZ AUX)
    Blend: AUG-CC-PVTZ-JKFIT
	 Reference Energy          =    -329.6684462507816420 [Eh]
	 Singles Energy            =      -0.0000000000000000 [Eh]
	 Same-Spin Energy          =      -0.3285846616988340 [Eh]
	 Opposite-Spin Energy      =      -1.0081051085291746 [Eh]
	 Correlation Energy        =      -1.3366897702280085 [Eh]
	 Total Energy              =    -331.0051360210096618 [Eh]

	 ================> DF-SCS-MP2 Energies <==================
	-----------------------------------------------------------
	 SCS Same-Spin Scale       =       0.3333333333333333 [-]
	 SCS Opposite-Spin Scale   =       1.2000000000000000 [-]
	 SCS Same-Spin Energy      =      -0.1095282205662780 [Eh]
	 SCS Opposite-Spin Energy  =      -1.2097261302350095 [Eh]
	 SCS Correlation Energy    =      -1.3192543508012875 [Eh]
	 SCS Total Energy          =    -330.9877006015829011 [Eh]
	-----------------------------------------------------------

  Dipole Moment: [D]
     X:    -1.5405      Y:    -0.0000      Z:    -0.1323     Total:     1.5461

*** Psi4 exiting successfully. Buy a developer a beer!
