                               Psi4 1.3.2 release

  ==> Input File <==

--------------------------------------------------------------------------
#psi4
#
memory 32 gb

molecule  {
0 1
  F        2.2867940     0.0000000    -0.0001760
  C        0.9285390     0.0000020    -0.0000730
  C        0.2598100     1.2182400    -0.0001460
  C        0.2598100    -1.2182380     0.0000900
  C       -1.1363580     1.2092180    -0.0000200
  C       -1.1363570    -1.2092200     0.0002110
  C       -1.8361040    -0.0000020     0.0001410
  H        0.8291340     2.1428170    -0.0002660
  H        0.8291450    -2.1428090     0.0001370
  H       -1.6763770     2.1526090    -0.0000810
  H       -1.6763720    -2.1526140     0.0003380
  H       -2.9227262    -0.0000076    -0.0997580
units angstrom
no_reorient  #important for SAPT in psi4, default
symmetry c1  #important for SAPT in psi4, default
}

set PROPERTIES_ORIGIN ["COM"]
properties('MP2/aug-cc-pvtz', properties = ['dipole'])
--------------------------------------------------------------------------

    Molecular point group: c1
  Charge       = 0
  Multiplicity = 1
  Basis Set: AUG-CC-PVTZ
    Blend: AUG-CC-PVTZ
  Basis Set: (AUG-CC-PVTZ AUX)
    Blend: AUG-CC-PVTZ-JKFIT

    Orbital Energies [Eh]
    ---------------------

    Doubly Occupied:

       1A    -26.308058     2A    -11.331997     3A    -11.253897
       4A    -11.253836     5A    -11.247786     6A    -11.247770
       7A    -11.244306     8A     -1.621074     9A     -1.164180
      10A     -1.032943    11A     -1.022580    12A     -0.855101
      13A     -0.840676    14A     -0.743052    15A     -0.698342
      16A     -0.689973    17A     -0.686272    18A     -0.623993
      19A     -0.606429    20A     -0.595869    21A     -0.532107
      22A     -0.509461    23A     -0.508725    24A     -0.352785
      25A     -0.341621

  @DF-RHF Final Energy:  -329.67041572955321

   => Energetics <=

    Nuclear Repulsion Energy =            268.6721212190573738
    One-Electron Energy =                -982.0594032746594166
    Two-Electron Energy =                 383.7168663260488870
    Total Energy =                       -329.6704157295532127
  Basis Set: (AUG-CC-PVTZ AUX)
    Blend: AUG-CC-PVTZ-RI
    Molecular point group: c1

    Geometry (in Angstrom), charge = 0, multiplicity = 1:

       Center              X                  Y                   Z               Mass
    ------------   -----------------  -----------------  -----------------  -----------------
         F            2.215319977575     0.000000048273     0.000878976411    18.998403162730
         C            0.857064977575     0.000002048273     0.000981976411    12.000000000000
         C            0.188335977575     1.218240048273     0.000908976411    12.000000000000
         C            0.188335977575    -1.218237951727     0.001144976411    12.000000000000
         C           -1.207832022425     1.209218048273     0.001034976411    12.000000000000
         C           -1.207831022425    -1.209219951727     0.001265976411    12.000000000000
         C           -1.907578022425    -0.000001951727     0.001195976411    12.000000000000
         H            0.757659977575     2.142817048273     0.000788976411     1.007825032230
         H            0.757670977575    -2.142808951727     0.001191976411     1.007825032230
         H           -1.747851022425     2.152609048273     0.000973976411     1.007825032230
         H           -1.747846022425    -2.152613951727     0.001392976411     1.007825032230
         H           -2.994200222425    -0.000007551727    -0.098703023589     1.007825032230

  Basis Set: AUG-CC-PVTZ
    Blend: AUG-CC-PVTZ
  Basis Set: (AUG-CC-PVTZ AUX)
    Blend: AUG-CC-PVTZ-JKFIT
	 Reference Energy          =    -329.6704157295532127 [Eh]
	 Singles Energy            =      -0.0000000000000000 [Eh]
	 Same-Spin Energy          =      -0.3284843872818156 [Eh]
	 Opposite-Spin Energy      =      -1.0078227541292037 [Eh]
	 Correlation Energy        =      -1.3363071414110195 [Eh]
	 Total Energy              =    -331.0067228709642109 [Eh]

	 ================> DF-SCS-MP2 Energies <==================
	-----------------------------------------------------------
	 SCS Same-Spin Scale       =       0.3333333333333333 [-]
	 SCS Opposite-Spin Scale   =       1.2000000000000000 [-]
	 SCS Same-Spin Energy      =      -0.1094947957606052 [Eh]
	 SCS Opposite-Spin Energy  =      -1.2093873049550445 [Eh]
	 SCS Correlation Energy    =      -1.3188821007156497 [Eh]
	 SCS Total Energy          =    -330.9892978302688675 [Eh]
	-----------------------------------------------------------

  Dipole Moment: [D]
     X:    -1.5671      Y:    -0.0000      Z:    -0.0667     Total:     1.5686

*** Psi4 exiting successfully. Buy a developer a beer!
