                               Psi4 1.3.2 release

  ==> Input File <==

--------------------------------------------------------------------------
#psi4
#
memory 32 gb

molecule  {
0 1
  O       -0.1027990     2.1661630    -0.1573240
  O       -2.2585870    -1.3354710    -0.3679860
  O       -2.3909180     0.7817600     0.4224630
  C       -0.2229310    -0.2124960     0.0158460
  C        0.5432600     0.9664360    -0.0570110
  C        0.4335280    -1.4494910     0.0925130
  C        1.9402870     0.8816050    -0.0559020
  C        1.8233140    -1.5265410     0.1016630
  C        2.5770400    -0.3539830     0.0301550
  C       -1.7066960    -0.1573290     0.0554370
  H       -0.1661180    -2.3524960     0.1439440
  H        2.5301710     1.7954230    -0.1182500
  H        2.3155190    -2.5026911     0.0190784
  H        3.6635200    -0.3964420     0.0343940
  H        0.5733460     2.8632860    -0.2381370
  H       -3.2241600    -1.2056690    -0.2641310
units angstrom
no_reorient  #important for SAPT in psi4, default
symmetry c1  #important for SAPT in psi4, default
}

set PROPERTIES_ORIGIN ["COM"]
properties('MP2/aug-cc-pvtz', properties = ['dipole'])
--------------------------------------------------------------------------

    Molecular point group: c1
  Charge       = 0
  Multiplicity = 1
  Basis Set: AUG-CC-PVTZ
    Blend: AUG-CC-PVTZ
  Basis Set: (AUG-CC-PVTZ AUX)
    Blend: AUG-CC-PVTZ-JKFIT

    Orbital Energies [Eh]
    ---------------------

    Doubly Occupied:

       1A    -20.609892     2A    -20.602831     3A    -20.542838
       4A    -11.389400     5A    -11.331177     6A    -11.265777
       7A    -11.263117     8A    -11.256644     9A    -11.249931
      10A    -11.243392    11A     -1.453681    12A     -1.415347
      13A     -1.348540    14A     -1.167497    15A     -1.055130
      16A     -1.022715    17A     -0.897896    18A     -0.861670
      19A     -0.800749    20A     -0.746019    21A     -0.708273
      22A     -0.697872    23A     -0.676151    24A     -0.643900
      25A     -0.625291    26A     -0.623135    27A     -0.596622
      28A     -0.588744    29A     -0.580314    30A     -0.536836
      31A     -0.523510    32A     -0.497980    33A     -0.476223
      34A     -0.446715    35A     -0.361914    36A     -0.331934

  @DF-RHF Final Energy:  -493.35242806514304

   => Energetics <=

    Nuclear Repulsion Energy =            498.9334630266113209
    One-Electron Energy =               -1663.6924664796902107
    Two-Electron Energy =                 671.4065753879359590
    Total Energy =                       -493.3524280651430445
  Basis Set: (AUG-CC-PVTZ AUX)
    Blend: AUG-CC-PVTZ-RI
    Molecular point group: c1

    Geometry (in Angstrom), charge = 0, multiplicity = 1:

       Center              X                  Y                   Z               Mass
    ------------   -----------------  -----------------  -----------------  -----------------
         O           -0.062067394798     2.153435626316    -0.158200397506    15.994914619570
         O           -2.217855394798    -1.348198373684    -0.368862397506    15.994914619570
         O           -2.350186394798     0.769032626316     0.421586602494    15.994914619570
         C           -0.182199394798    -0.225223373684     0.014969602494    12.000000000000
         C            0.583991605202     0.953708626316    -0.057887397506    12.000000000000
         C            0.474259605202    -1.462218373684     0.091636602494    12.000000000000
         C            1.981018605202     0.868877626316    -0.056778397506    12.000000000000
         C            1.864045605202    -1.539268373684     0.100786602494    12.000000000000
         C            2.617771605202    -0.366710373684     0.029278602494    12.000000000000
         C           -1.665964394798    -0.170056373684     0.054560602494    12.000000000000
         H           -0.125386394798    -2.365223373684     0.143067602494     1.007825032230
         H            2.570902605202     1.782695626316    -0.119126397506     1.007825032230
         H            2.356250605202    -2.515418473684     0.018202002494     1.007825032230
         H            3.704251605202    -0.409169373684     0.033517602494     1.007825032230
         H            0.614077605202     2.850558626316    -0.239013397506     1.007825032230
         H           -3.183428394798    -1.218396373684    -0.265007397506     1.007825032230

  Basis Set: AUG-CC-PVTZ
    Blend: AUG-CC-PVTZ
  Basis Set: (AUG-CC-PVTZ AUX)
    Blend: AUG-CC-PVTZ-JKFIT
	 Reference Energy          =    -493.3524280651430445 [Eh]
	 Singles Energy            =      -0.0000000000000000 [Eh]
	 Same-Spin Energy          =      -0.5054049960854621 [Eh]
	 Opposite-Spin Energy      =      -1.5045726952829237 [Eh]
	 Correlation Energy        =      -2.0099776913683858 [Eh]
	 Total Energy              =    -495.3624057565114072 [Eh]

	 ================> DF-SCS-MP2 Energies <==================
	-----------------------------------------------------------
	 SCS Same-Spin Scale       =       0.3333333333333333 [-]
	 SCS Opposite-Spin Scale   =       1.2000000000000000 [-]
	 SCS Same-Spin Energy      =      -0.1684683320284873 [Eh]
	 SCS Opposite-Spin Energy  =      -1.8054872343395083 [Eh]
	 SCS Correlation Energy    =      -1.9739555663679957 [Eh]
	 SCS Total Energy          =    -495.3263836315110211 [Eh]
	-----------------------------------------------------------

  Dipole Moment: [D]
     X:     2.6402      Y:    -0.4619      Z:    -0.5606     Total:     2.7383

*** Psi4 exiting successfully. Buy a developer a beer!
