                               Psi4 1.3.2 release

  ==> Input File <==

--------------------------------------------------------------------------
#psi4
#
memory 32 gb

molecule  {
0 1
  O       -0.1027990     2.1661630    -0.1573240
  O       -2.2585870    -1.3354710    -0.3679860
  O       -2.3909180     0.7817600     0.4224630
  C       -0.2229310    -0.2124960     0.0158460
  C        0.5432600     0.9664360    -0.0570110
  C        0.4335280    -1.4494910     0.0925130
  C        1.9402870     0.8816050    -0.0559020
  C        1.8233140    -1.5265410     0.1016630
  C        2.5770400    -0.3539830     0.0301550
  C       -1.7066960    -0.1573290     0.0554370
  H       -0.1661180    -2.3524960     0.1439440
  H        2.5303701     1.8023154    -0.0184880
  H        2.3148760    -2.4929130     0.1687580
  H        3.6635200    -0.3964420     0.0343940
  H        0.5733460     2.8632860    -0.2381370
  H       -3.2241600    -1.2056690    -0.2641310
units angstrom
no_reorient  #important for SAPT in psi4, default
symmetry c1  #important for SAPT in psi4, default
}

set PROPERTIES_ORIGIN ["COM"]
properties('MP2/aug-cc-pvtz', properties = ['dipole'])
--------------------------------------------------------------------------

    Molecular point group: c1
  Charge       = 0
  Multiplicity = 1
  Basis Set: AUG-CC-PVTZ
    Blend: AUG-CC-PVTZ
  Basis Set: (AUG-CC-PVTZ AUX)
    Blend: AUG-CC-PVTZ-JKFIT

    Orbital Energies [Eh]
    ---------------------

    Doubly Occupied:

       1A    -20.609844     2A    -20.602729     3A    -20.542768
       4A    -11.389349     5A    -11.331171     6A    -11.265706
       7A    -11.262995     8A    -11.256600     9A    -11.250232
      10A    -11.242581    11A     -1.453626    12A     -1.415250
      13A     -1.348487    14A     -1.167479    15A     -1.055026
      16A     -1.022908    17A     -0.897853    18A     -0.861533
      19A     -0.801227    20A     -0.745811    21A     -0.708832
      22A     -0.697828    23A     -0.676120    24A     -0.643757
      25A     -0.625890    26A     -0.622852    27A     -0.596452
      28A     -0.588721    29A     -0.580105    30A     -0.537058
      31A     -0.523480    32A     -0.498627    33A     -0.476344
      34A     -0.446606    35A     -0.361810    36A     -0.332041

  @DF-RHF Final Energy:  -493.35320626215764

   => Energetics <=

    Nuclear Repulsion Energy =            498.9517772361492121
    One-Electron Energy =               -1663.7305746678548530
    Two-Electron Energy =                 671.4255911695480563
    Total Energy =                       -493.3532062621576415
  Basis Set: (AUG-CC-PVTZ AUX)
    Blend: AUG-CC-PVTZ-RI
    Molecular point group: c1

    Geometry (in Angstrom), charge = 0, multiplicity = 1:

       Center              X                  Y                   Z               Mass
    ------------   -----------------  -----------------  -----------------  -----------------
         O           -0.062064153706     2.153313908276    -0.160021671166    15.994914619570
         O           -2.217852153706    -1.348320091724    -0.370683671166    15.994914619570
         O           -2.350183153706     0.768910908276     0.419765328834    15.994914619570
         C           -0.182196153706    -0.225345091724     0.013148328834    12.000000000000
         C            0.583994846294     0.953586908276    -0.059708671166    12.000000000000
         C            0.474262846294    -1.462340091724     0.089815328834    12.000000000000
         C            1.981021846294     0.868755908276    -0.058599671166    12.000000000000
         C            1.864048846294    -1.539390091724     0.098965328834    12.000000000000
         C            2.617774846294    -0.366832091724     0.027457328834    12.000000000000
         C           -1.665961153706    -0.170178091724     0.052739328834    12.000000000000
         H           -0.125383153706    -2.365345091724     0.141246328834     1.007825032230
         H            2.571104946294     1.789466308276    -0.021185671166     1.007825032230
         H            2.355610846294    -2.505762091724     0.166060328834     1.007825032230
         H            3.704254846294    -0.409291091724     0.031696328834     1.007825032230
         H            0.614080846294     2.850436908276    -0.240834671166     1.007825032230
         H           -3.183425153706    -1.218518091724    -0.266828671166     1.007825032230

  Basis Set: AUG-CC-PVTZ
    Blend: AUG-CC-PVTZ
  Basis Set: (AUG-CC-PVTZ AUX)
    Blend: AUG-CC-PVTZ-JKFIT
	 Reference Energy          =    -493.3532062621576415 [Eh]
	 Singles Energy            =      -0.0000000000000000 [Eh]
	 Same-Spin Energy          =      -0.5053788600507332 [Eh]
	 Opposite-Spin Energy      =      -1.5045045684677811 [Eh]
	 Correlation Energy        =      -2.0098834285185143 [Eh]
	 Total Energy              =    -495.3630896906761336 [Eh]

	 ================> DF-SCS-MP2 Energies <==================
	-----------------------------------------------------------
	 SCS Same-Spin Scale       =       0.3333333333333333 [-]
	 SCS Opposite-Spin Scale   =       1.2000000000000000 [-]
	 SCS Same-Spin Energy      =      -0.1684596200169111 [Eh]
	 SCS Opposite-Spin Energy  =      -1.8054054821613372 [Eh]
	 SCS Correlation Energy    =      -1.9738651021782483 [Eh]
	 SCS Total Energy          =    -495.3270713643358931 [Eh]
	-----------------------------------------------------------

  Dipole Moment: [D]
     X:     2.6475      Y:    -0.4726      Z:    -0.3962     Total:     2.7184

*** Psi4 exiting successfully. Buy a developer a beer!
