                               Psi4 1.3.2 release

  ==> Input File <==

--------------------------------------------------------------------------
#psi4
#
memory 32 gb

molecule  {
0 1
  O       -0.1027990     2.1661630    -0.1573240
  O       -2.2585870    -1.3354710    -0.3679860
  O       -2.3909180     0.7817600     0.4224630
  C       -0.2229310    -0.2124960     0.0158460
  C        0.5432600     0.9664360    -0.0570110
  C        0.4335280    -1.4494910     0.0925130
  C        1.9402870     0.8816050    -0.0559020
  C        1.8233140    -1.5265410     0.1016630
  C        2.5770400    -0.3539830     0.0301550
  C       -1.7066960    -0.1573290     0.0554370
  H       -0.1659403    -2.3554789     0.0940334
  H        2.5301710     1.7954230    -0.1182500
  H        2.3148760    -2.4929130     0.1687580
  H        3.6635200    -0.3964420     0.0343940
  H        0.5733460     2.8632860    -0.2381370
  H       -3.2241600    -1.2056690    -0.2641310
units angstrom
no_reorient  #important for SAPT in psi4, default
symmetry c1  #important for SAPT in psi4, default
}

set PROPERTIES_ORIGIN ["COM"]
properties('MP2/aug-cc-pvtz', properties = ['dipole'])
--------------------------------------------------------------------------

    Molecular point group: c1
  Charge       = 0
  Multiplicity = 1
  Basis Set: AUG-CC-PVTZ
    Blend: AUG-CC-PVTZ
  Basis Set: (AUG-CC-PVTZ AUX)
    Blend: AUG-CC-PVTZ-JKFIT

    Orbital Energies [Eh]
    ---------------------

    Doubly Occupied:

       1A    -20.609818     2A    -20.602677     3A    -20.542791
       4A    -11.389363     5A    -11.330994     6A    -11.265655
       7A    -11.262924     8A    -11.256591     9A    -11.249874
      10A    -11.242563    11A     -1.453627    12A     -1.415206
      13A     -1.348492    14A     -1.167427    15A     -1.055049
      16A     -1.022912    17A     -0.897806    18A     -0.861702
      19A     -0.801238    20A     -0.745815    21A     -0.709007
      22A     -0.697881    23A     -0.675997    24A     -0.644107
      25A     -0.625785    26A     -0.623201    27A     -0.596306
      28A     -0.588793    29A     -0.580256    30A     -0.537048
      31A     -0.523653    32A     -0.498127    33A     -0.476672
      34A     -0.446628    35A     -0.361823    36A     -0.331997

  @DF-RHF Final Energy:  -493.35362752609922

   => Energetics <=

    Nuclear Repulsion Energy =            498.9713758924701779
    One-Electron Energy =               -1663.7703937545772988
    Two-Electron Energy =                 671.4453903360079039
    Total Energy =                       -493.3536275260992170
  Basis Set: (AUG-CC-PVTZ AUX)
    Blend: AUG-CC-PVTZ-RI
    Molecular point group: c1

    Geometry (in Angstrom), charge = 0, multiplicity = 1:

       Center              X                  Y                   Z               Mass
    ------------   -----------------  -----------------  -----------------  -----------------
         O           -0.062063997456     2.153386011822    -0.158928851187    15.994914619570
         O           -2.217851997456    -1.348247988178    -0.369590851187    15.994914619570
         O           -2.350182997456     0.768983011822     0.420858148813    15.994914619570
         C           -0.182195997456    -0.225272988178     0.014241148813    12.000000000000
         C            0.583995002544     0.953659011822    -0.058615851187    12.000000000000
         C            0.474263002544    -1.462267988178     0.090908148813    12.000000000000
         C            1.981022002544     0.868828011822    -0.057506851187    12.000000000000
         C            1.864049002544    -1.539317988178     0.100058148813    12.000000000000
         C            2.617775002544    -0.366759988178     0.028550148813    12.000000000000
         C           -1.665960997456    -0.170105988178     0.053832148813    12.000000000000
         H           -0.125205297456    -2.368255888178     0.092428548813     1.007825032230
         H            2.570906002544     1.782646011822    -0.119854851187     1.007825032230
         H            2.355611002544    -2.505689988178     0.167153148813     1.007825032230
         H            3.704255002544    -0.409218988178     0.032789148813     1.007825032230
         H            0.614081002544     2.850509011822    -0.239741851187     1.007825032230
         H           -3.183424997456    -1.218445988178    -0.265735851187     1.007825032230

  Basis Set: AUG-CC-PVTZ
    Blend: AUG-CC-PVTZ
  Basis Set: (AUG-CC-PVTZ AUX)
    Blend: AUG-CC-PVTZ-JKFIT
	 Reference Energy          =    -493.3536275260992170 [Eh]
	 Singles Energy            =      -0.0000000000000000 [Eh]
	 Same-Spin Energy          =      -0.5053643909574825 [Eh]
	 Opposite-Spin Energy      =      -1.5044525406137457 [Eh]
	 Correlation Energy        =      -2.0098169315712280 [Eh]
	 Total Energy              =    -495.3634444576704254 [Eh]

	 ================> DF-SCS-MP2 Energies <==================
	-----------------------------------------------------------
	 SCS Same-Spin Scale       =       0.3333333333333333 [-]
	 SCS Opposite-Spin Scale   =       1.2000000000000000 [-]
	 SCS Same-Spin Energy      =      -0.1684547969858275 [Eh]
	 SCS Opposite-Spin Energy  =      -1.8053430487364948 [Eh]
	 SCS Correlation Energy    =      -1.9737978457223222 [Eh]
	 SCS Total Energy          =    -495.3274253718215618 [Eh]
	-----------------------------------------------------------

  Dipole Moment: [D]
     X:     2.6525      Y:    -0.4707      Z:    -0.4929     Total:     2.7386

*** Psi4 exiting successfully. Buy a developer a beer!
