                               Psi4 1.3.2 release

  ==> Input File <==

--------------------------------------------------------------------------
#psi4
#
memory 32 gb

molecule  {
0 1
  O       -0.1027990     2.1661630    -0.1573240
  O       -2.2585870    -1.3354710    -0.3679860
  O       -2.3909180     0.7817600     0.4224630
  C       -0.2229310    -0.2124960     0.0158460
  C        0.5432600     0.9664360    -0.0570110
  C        0.4335280    -1.4494910     0.0925130
  C        1.9402870     0.8816050    -0.0559020
  C        1.8233140    -1.5265410     0.1016630
  C        2.5770400    -0.3539830     0.0301550
  C       -1.7066960    -0.1573290     0.0554370
  H       -0.1650520    -2.3703933    -0.1555198
  H        2.5301710     1.7954230    -0.1182500
  H        2.3148760    -2.4929130     0.1687580
  H        3.6635200    -0.3964420     0.0343940
  H        0.5733460     2.8632860    -0.2381370
  H       -3.2241600    -1.2056690    -0.2641310
units angstrom
no_reorient  #important for SAPT in psi4, default
symmetry c1  #important for SAPT in psi4, default
}

set PROPERTIES_ORIGIN ["COM"]
properties('MP2/aug-cc-pvtz', properties = ['dipole'])
--------------------------------------------------------------------------

    Molecular point group: c1
  Charge       = 0
  Multiplicity = 1
  Basis Set: AUG-CC-PVTZ
    Blend: AUG-CC-PVTZ
  Basis Set: (AUG-CC-PVTZ AUX)
    Blend: AUG-CC-PVTZ-JKFIT

    Orbital Energies [Eh]
    ---------------------

    Doubly Occupied:

       1A    -20.609590     2A    -20.602785     3A    -20.543095
       4A    -11.389557     5A    -11.331089     6A    -11.265775
       7A    -11.265751     8A    -11.257125     9A    -11.250467
      10A    -11.243107    11A     -1.453626    12A     -1.415337
      13A     -1.348610    14A     -1.167402    15A     -1.054860
      16A     -1.022373    17A     -0.897616    18A     -0.860043
      19A     -0.801365    20A     -0.742780    21A     -0.709242
      22A     -0.698147    23A     -0.675372    24A     -0.644029
      25A     -0.626632    26A     -0.619384    27A     -0.596624
      28A     -0.586389    29A     -0.580147    30A     -0.537133
      31A     -0.523752    32A     -0.493712    33A     -0.477184
      34A     -0.446565    35A     -0.361385    36A     -0.331921

  @DF-RHF Final Energy:  -493.34711189420142

   => Energetics <=

    Nuclear Repulsion Energy =            498.8295305178388048
    One-Electron Energy =               -1663.4933436621192868
    Two-Electron Energy =                 671.3167012500790634
    Total Energy =                       -493.3471118942014755
  Basis Set: (AUG-CC-PVTZ AUX)
    Blend: AUG-CC-PVTZ-RI
    Molecular point group: c1

    Geometry (in Angstrom), charge = 0, multiplicity = 1:

       Center              X                  Y                   Z               Mass
    ------------   -----------------  -----------------  -----------------  -----------------
         O           -0.062070483292     2.153494907867    -0.157106762691    15.994914619570
         O           -2.217858483292    -1.348139092133    -0.367768762691    15.994914619570
         O           -2.350189483292     0.769091907867     0.422680237309    15.994914619570
         C           -0.182202483292    -0.225164092133     0.016063237309    12.000000000000
         C            0.583988516708     0.953767907867    -0.056793762691    12.000000000000
         C            0.474256516708    -1.462159092133     0.092730237309    12.000000000000
         C            1.981015516708     0.868936907867    -0.055684762691    12.000000000000
         C            1.864042516708    -1.539209092133     0.101880237309    12.000000000000
         C            2.617768516708    -0.366651092133     0.030372237309    12.000000000000
         C           -1.665967483292    -0.169997092133     0.055654237309    12.000000000000
         H           -0.124323483292    -2.383061392133    -0.155302562691     1.007825032230
         H            2.570899516708     1.782754907867    -0.118032762691     1.007825032230
         H            2.355604516708    -2.505581092133     0.168975237309     1.007825032230
         H            3.704248516708    -0.409110092133     0.034611237309     1.007825032230
         H            0.614074516708     2.850617907867    -0.237919762691     1.007825032230
         H           -3.183431483292    -1.218337092133    -0.263913762691     1.007825032230

  Basis Set: AUG-CC-PVTZ
    Blend: AUG-CC-PVTZ
  Basis Set: (AUG-CC-PVTZ AUX)
    Blend: AUG-CC-PVTZ-JKFIT
	 Reference Energy          =    -493.3471118942014186 [Eh]
	 Singles Energy            =      -0.0000000000000000 [Eh]
	 Same-Spin Energy          =      -0.5057979127003223 [Eh]
	 Opposite-Spin Energy      =      -1.5053346204602076 [Eh]
	 Correlation Energy        =      -2.0111325331605299 [Eh]
	 Total Energy              =    -495.3582444273619672 [Eh]

	 ================> DF-SCS-MP2 Energies <==================
	-----------------------------------------------------------
	 SCS Same-Spin Scale       =       0.3333333333333333 [-]
	 SCS Opposite-Spin Scale   =       1.2000000000000000 [-]
	 SCS Same-Spin Energy      =      -0.1685993042334407 [Eh]
	 SCS Opposite-Spin Energy  =      -1.8064015445522490 [Eh]
	 SCS Correlation Energy    =      -1.9750008487856898 [Eh]
	 SCS Total Energy          =    -495.3221127429870876 [Eh]
	-----------------------------------------------------------

  Dipole Moment: [D]
     X:     2.6726      Y:    -0.4288      Z:    -0.6460     Total:     2.7828

*** Psi4 exiting successfully. Buy a developer a beer!
