                               Psi4 1.3.2 release

  ==> Input File <==

--------------------------------------------------------------------------
#psi4
#
memory 32 gb

molecule  {
0 1
  O       -0.1027990     2.1661630    -0.1573240
  O       -2.2585870    -1.3354710    -0.3679860
  O       -2.3909180     0.7817600     0.4224630
  C       -0.2229310    -0.2124960     0.0158460
  C        0.5432600     0.9664360    -0.0570110
  C        0.4335280    -1.4494910     0.0925130
  C        1.9395391     0.8961643     0.1435660
  C        1.8233140    -1.5265410     0.1016630
  C        2.5770400    -0.3539830     0.0301550
  C       -1.7066960    -0.1573290     0.0554370
  H       -0.1661180    -2.3524960     0.1439440
  H        2.5301710     1.7954230    -0.1182500
  H        2.3148760    -2.4929130     0.1687580
  H        3.6635200    -0.3964420     0.0343940
  H        0.5733460     2.8632860    -0.2381370
  H       -3.2241600    -1.2056690    -0.2641310
units angstrom
no_reorient  #important for SAPT in psi4, default
symmetry c1  #important for SAPT in psi4, default
}

set PROPERTIES_ORIGIN ["COM"]
properties('MP2/aug-cc-pvtz', properties = ['dipole'])
--------------------------------------------------------------------------

    Molecular point group: c1
  Charge       = 0
  Multiplicity = 1
  Basis Set: AUG-CC-PVTZ
    Blend: AUG-CC-PVTZ
  Basis Set: (AUG-CC-PVTZ AUX)
    Blend: AUG-CC-PVTZ-JKFIT

    Orbital Energies [Eh]
    ---------------------

    Doubly Occupied:

       1A    -20.609984     2A    -20.603656     3A    -20.543029
       4A    -11.389572     5A    -11.333989     6A    -11.269029
       7A    -11.265163     8A    -11.256419     9A    -11.252839
      10A    -11.242593    11A     -1.453824    12A     -1.415829
      13A     -1.348698    14A     -1.166480    15A     -1.053963
      16A     -1.021946    17A     -0.896893    18A     -0.861450
      19A     -0.799968    20A     -0.745026    21A     -0.707913
      22A     -0.697355    23A     -0.675418    24A     -0.644186
      25A     -0.624722    26A     -0.621915    27A     -0.596997
      28A     -0.587653    29A     -0.579282    30A     -0.535307
      31A     -0.521724    32A     -0.496267    33A     -0.476756
      34A     -0.446869    35A     -0.361617    36A     -0.332090

  @DF-RHF Final Energy:  -493.34264950331510

   => Energetics <=

    Nuclear Repulsion Energy =            498.5152953763075061
    One-Electron Energy =               -1662.8430473759249253
    Two-Electron Energy =                 670.9851024963023747
    Total Energy =                       -493.3426495033151014
  Basis Set: (AUG-CC-PVTZ AUX)
    Blend: AUG-CC-PVTZ-RI
    Molecular point group: c1

    Geometry (in Angstrom), charge = 0, multiplicity = 1:

       Center              X                  Y                   Z               Mass
    ------------   -----------------  -----------------  -----------------  -----------------
         O           -0.061997680147     2.152098497077    -0.176634329403    15.994914619570
         O           -2.217785680147    -1.349535502923    -0.387296329403    15.994914619570
         O           -2.350116680147     0.767695497077     0.403152670597    15.994914619570
         C           -0.182129680147    -0.226560502923    -0.003464329403    12.000000000000
         C            0.584061319853     0.952371497077    -0.076321329403    12.000000000000
         C            0.474329319853    -1.463555502923     0.073202670597    12.000000000000
         C            1.980340419853     0.882099797077     0.124255670597    12.000000000000
         C            1.864115319853    -1.540605502923     0.082352670597    12.000000000000
         C            2.617841319853    -0.368047502923     0.010844670597    12.000000000000
         C           -1.665894680147    -0.171393502923     0.036126670597    12.000000000000
         H           -0.125316680147    -2.366560502923     0.124633670597     1.007825032230
         H            2.570972319853     1.781358497077    -0.137560329403     1.007825032230
         H            2.355677319853    -2.506977502923     0.149447670597     1.007825032230
         H            3.704321319853    -0.410506502923     0.015083670597     1.007825032230
         H            0.614147319853     2.849221497077    -0.257447329403     1.007825032230
         H           -3.183358680147    -1.219733502923    -0.283441329403     1.007825032230

  Basis Set: AUG-CC-PVTZ
    Blend: AUG-CC-PVTZ
  Basis Set: (AUG-CC-PVTZ AUX)
    Blend: AUG-CC-PVTZ-JKFIT
	 Reference Energy          =    -493.3426495033151014 [Eh]
	 Singles Energy            =      -0.0000000000000000 [Eh]
	 Same-Spin Energy          =      -0.5057673897994105 [Eh]
	 Opposite-Spin Energy      =      -1.5058132509041826 [Eh]
	 Correlation Energy        =      -2.0115806407035932 [Eh]
	 Total Energy              =    -495.3542301440186861 [Eh]

	 ================> DF-SCS-MP2 Energies <==================
	-----------------------------------------------------------
	 SCS Same-Spin Scale       =       0.3333333333333333 [-]
	 SCS Opposite-Spin Scale   =       1.2000000000000000 [-]
	 SCS Same-Spin Energy      =      -0.1685891299331368 [Eh]
	 SCS Opposite-Spin Energy  =      -1.8069759010850190 [Eh]
	 SCS Correlation Energy    =      -1.9755650310181558 [Eh]
	 SCS Total Energy          =    -495.3182145343332650 [Eh]
	-----------------------------------------------------------

  Dipole Moment: [D]
     X:     2.5828      Y:    -0.5389      Z:    -0.5872     Total:     2.7029

*** Psi4 exiting successfully. Buy a developer a beer!
