                               Psi4 1.3.2 release

  ==> Input File <==

--------------------------------------------------------------------------
#psi4
#
memory 32 gb

molecule  {
0 1
  O       -0.1027990     2.1661630    -0.1573240
  O       -2.2585870    -1.3354710    -0.3679860
  O       -2.3909180     0.7817600     0.4224630
  C       -0.2229310    -0.2124960     0.0158460
  C        0.5432600     0.9664360    -0.0570110
  C        0.4335280    -1.4494910     0.0925130
  C        1.9402870     0.8816050    -0.0559020
  C        1.8233140    -1.5265410     0.1016630
  C        2.5770400    -0.3539830     0.0301550
  C       -1.7066960    -0.1573290     0.0554370
  H       -0.1654073    -2.3644275    -0.0556985
  H        2.5301710     1.7954230    -0.1182500
  H        2.3148760    -2.4929130     0.1687580
  H        3.6635200    -0.3964420     0.0343940
  H        0.5733460     2.8632860    -0.2381370
  H       -3.2241600    -1.2056690    -0.2641310
units angstrom
no_reorient  #important for SAPT in psi4, default
symmetry c1  #important for SAPT in psi4, default
}

set PROPERTIES_ORIGIN ["COM"]
properties('MP2/aug-cc-pvtz', properties = ['dipole'])
--------------------------------------------------------------------------

    Molecular point group: c1
  Charge       = 0
  Multiplicity = 1
  Basis Set: AUG-CC-PVTZ
    Blend: AUG-CC-PVTZ
  Basis Set: (AUG-CC-PVTZ AUX)
    Blend: AUG-CC-PVTZ-JKFIT

    Orbital Energies [Eh]
    ---------------------

    Doubly Occupied:

       1A    -20.609743     2A    -20.602721     3A    -20.542982
       4A    -11.389498     5A    -11.331018     6A    -11.265683
       7A    -11.264089     8A    -11.256830     9A    -11.250119
      10A    -11.242776    11A     -1.453671    12A     -1.415260
      13A     -1.348592    14A     -1.167395    15A     -1.054951
      16A     -1.022646    17A     -0.897717    18A     -0.860939
      19A     -0.801297    20A     -0.744442    21A     -0.709135
      22A     -0.698067    23A     -0.675640    24A     -0.644031
      25A     -0.626516    26A     -0.621284    27A     -0.596506
      28A     -0.587649    29A     -0.580239    30A     -0.537061
      31A     -0.523829    32A     -0.495988    33A     -0.477039
      34A     -0.446621    35A     -0.361638    36A     -0.331940

  @DF-RHF Final Energy:  -493.35097778566990

   => Energetics <=

    Nuclear Repulsion Energy =            498.9135798099662793
    One-Electron Energy =               -1663.6580133582035614
    Two-Electron Energy =                 671.3934557625674415
    Total Energy =                       -493.3509777856698975
  Basis Set: (AUG-CC-PVTZ AUX)
    Blend: AUG-CC-PVTZ-RI
    Molecular point group: c1

    Geometry (in Angstrom), charge = 0, multiplicity = 1:

       Center              X                  Y                   Z               Mass
    ------------   -----------------  -----------------  -----------------  -----------------
         O           -0.062067889103     2.153451349157    -0.157835598236    15.994914619570
         O           -2.217855889103    -1.348182650843    -0.368497598236    15.994914619570
         O           -2.350186889103     0.769048349157     0.421951401764    15.994914619570
         C           -0.182199889103    -0.225207650843     0.015334401764    12.000000000000
         C            0.583991110897     0.953724349157    -0.057522598236    12.000000000000
         C            0.474259110897    -1.462202650843     0.092001401764    12.000000000000
         C            1.981018110897     0.868893349157    -0.056413598236    12.000000000000
         C            1.864045110897    -1.539252650843     0.101151401764    12.000000000000
         C            2.617771110897    -0.366694650843     0.029643401764    12.000000000000
         C           -1.665964889103    -0.170040650843     0.054925401764    12.000000000000
         H           -0.124676189103    -2.377139150843    -0.056210098236     1.007825032230
         H            2.570902110897     1.782711349157    -0.118761598236     1.007825032230
         H            2.355607110897    -2.505624650843     0.168246401764     1.007825032230
         H            3.704251110897    -0.409153650843     0.033882401764     1.007825032230
         H            0.614077110897     2.850574349157    -0.238648598236     1.007825032230
         H           -3.183428889103    -1.218380650843    -0.264642598236     1.007825032230

  Basis Set: AUG-CC-PVTZ
    Blend: AUG-CC-PVTZ
  Basis Set: (AUG-CC-PVTZ AUX)
    Blend: AUG-CC-PVTZ-JKFIT
	 Reference Energy          =    -493.3509777856698975 [Eh]
	 Singles Energy            =      -0.0000000000000000 [Eh]
	 Same-Spin Energy          =      -0.5055549311224303 [Eh]
	 Opposite-Spin Energy      =      -1.5048164482484445 [Eh]
	 Correlation Energy        =      -2.0103713793708748 [Eh]
	 Total Energy              =    -495.3613491650407923 [Eh]

	 ================> DF-SCS-MP2 Energies <==================
	-----------------------------------------------------------
	 SCS Same-Spin Scale       =       0.3333333333333333 [-]
	 SCS Opposite-Spin Scale   =       1.2000000000000000 [-]
	 SCS Same-Spin Energy      =      -0.1685183103741434 [Eh]
	 SCS Opposite-Spin Energy  =      -1.8057797378981333 [Eh]
	 SCS Correlation Energy    =      -1.9742980482722767 [Eh]
	 SCS Total Energy          =    -495.3252758339421575 [Eh]
	-----------------------------------------------------------

  Dipole Moment: [D]
     X:     2.6589      Y:    -0.4528      Z:    -0.5850     Total:     2.7599

*** Psi4 exiting successfully. Buy a developer a beer!
