                               Psi4 1.3.2 release

  ==> Input File <==

--------------------------------------------------------------------------
#psi4
#
memory 32 gb

molecule  {
0 1
  O       -0.1027990     2.1661630    -0.1573240
  O       -2.2585870    -1.3354710    -0.3679860
  O       -2.3909180     0.7817600     0.4224630
  C       -0.2229310    -0.2124960     0.0158460
  C        0.5432600     0.9664360    -0.0570110
  C        0.4335280    -1.4494910     0.0925130
  C        1.9401000     0.8852448    -0.0060350
  C        1.8233140    -1.5265410     0.1016630
  C        2.5770400    -0.3539830     0.0301550
  C       -1.7066960    -0.1573290     0.0554370
  H       -0.1661180    -2.3524960     0.1439440
  H        2.5301710     1.7954230    -0.1182500
  H        2.3148760    -2.4929130     0.1687580
  H        3.6635200    -0.3964420     0.0343940
  H        0.5733460     2.8632860    -0.2381370
  H       -3.2241600    -1.2056690    -0.2641310
units angstrom
no_reorient  #important for SAPT in psi4, default
symmetry c1  #important for SAPT in psi4, default
}

set PROPERTIES_ORIGIN ["COM"]
properties('MP2/aug-cc-pvtz', properties = ['dipole'])
--------------------------------------------------------------------------

    Molecular point group: c1
  Charge       = 0
  Multiplicity = 1
  Basis Set: AUG-CC-PVTZ
    Blend: AUG-CC-PVTZ
  Basis Set: (AUG-CC-PVTZ AUX)
    Blend: AUG-CC-PVTZ-JKFIT

    Orbital Energies [Eh]
    ---------------------

    Doubly Occupied:

       1A    -20.609796     2A    -20.602713     3A    -20.542778
       4A    -11.389334     5A    -11.331109     6A    -11.265901
       7A    -11.263066     8A    -11.256521     9A    -11.250032
      10A    -11.242569    11A     -1.453596    12A     -1.415213
      13A     -1.348466    14A     -1.167361    15A     -1.054960
      16A     -1.022907    17A     -0.897749    18A     -0.861728
      19A     -0.801139    20A     -0.745826    21A     -0.708892
      22A     -0.697777    23A     -0.676024    24A     -0.644296
      25A     -0.624872    26A     -0.623855    27A     -0.595969
      28A     -0.589179    29A     -0.580187    30A     -0.536902
      31A     -0.523444    32A     -0.498256    33A     -0.476565
      34A     -0.446668    35A     -0.361776    36A     -0.332028

  @DF-RHF Final Energy:  -493.35315393417034

   => Energetics <=

    Nuclear Repulsion Energy =            498.9435231184529016
    One-Electron Energy =               -1663.7144421177181357
    Two-Electron Energy =                 671.4177650650948408
    Total Energy =                       -493.3531539341703365
  Basis Set: (AUG-CC-PVTZ AUX)
    Blend: AUG-CC-PVTZ-RI
    Molecular point group: c1

    Geometry (in Angstrom), charge = 0, multiplicity = 1:

       Center              X                  Y                   Z               Mass
    ------------   -----------------  -----------------  -----------------  -----------------
         O           -0.062046442860     2.153047800793    -0.163628533797    15.994914619570
         O           -2.217834442860    -1.348586199207    -0.374290533797    15.994914619570
         O           -2.350165442860     0.768644800793     0.416158466203    15.994914619570
         C           -0.182178442860    -0.225611199207     0.009541466203    12.000000000000
         C            0.584012557140     0.953320800793    -0.063315533797    12.000000000000
         C            0.474280557140    -1.462606199207     0.086208466203    12.000000000000
         C            1.980852557140     0.872129600793    -0.012339533797    12.000000000000
         C            1.864066557140    -1.539656199207     0.095358466203    12.000000000000
         C            2.617792557140    -0.367098199207     0.023850466203    12.000000000000
         C           -1.665943442860    -0.170444199207     0.049132466203    12.000000000000
         H           -0.125365442860    -2.365611199207     0.137639466203     1.007825032230
         H            2.570923557140     1.782307800793    -0.124554533797     1.007825032230
         H            2.355628557140    -2.506028199207     0.162453466203     1.007825032230
         H            3.704272557140    -0.409557199207     0.028089466203     1.007825032230
         H            0.614098557140     2.850170800793    -0.244441533797     1.007825032230
         H           -3.183407442860    -1.218784199207    -0.270435533797     1.007825032230

  Basis Set: AUG-CC-PVTZ
    Blend: AUG-CC-PVTZ
  Basis Set: (AUG-CC-PVTZ AUX)
    Blend: AUG-CC-PVTZ-JKFIT
	 Reference Energy          =    -493.3531539341703365 [Eh]
	 Singles Energy            =      -0.0000000000000000 [Eh]
	 Same-Spin Energy          =      -0.5053795874768880 [Eh]
	 Opposite-Spin Energy      =      -1.5045173130753664 [Eh]
	 Correlation Energy        =      -2.0098969005522545 [Eh]
	 Total Energy              =    -495.3630508347225714 [Eh]

	 ================> DF-SCS-MP2 Energies <==================
	-----------------------------------------------------------
	 SCS Same-Spin Scale       =       0.3333333333333333 [-]
	 SCS Opposite-Spin Scale   =       1.2000000000000000 [-]
	 SCS Same-Spin Energy      =      -0.1684598624922960 [Eh]
	 SCS Opposite-Spin Energy  =      -1.8054207756904397 [Eh]
	 SCS Correlation Energy    =      -1.9738806381827356 [Eh]
	 SCS Total Energy          =    -495.3270345723530568 [Eh]
	-----------------------------------------------------------

  Dipole Moment: [D]
     X:     2.6489      Y:    -0.4772      Z:    -0.4937     Total:     2.7364

*** Psi4 exiting successfully. Buy a developer a beer!
