                               Psi4 1.3.2 release

  ==> Input File <==

--------------------------------------------------------------------------
#psi4
#
memory 32 gb

molecule  {
0 1
  O       -0.1027990     2.1661630    -0.1573240
  O       -2.2585870    -1.3354710    -0.3679860
  O       -2.3909180     0.7817600     0.4224630
  C       -0.2229310    -0.2124960     0.0158460
  C        0.5432600     0.9664360    -0.0570110
  C        0.4335280    -1.4494910     0.0925130
  C        1.9402870     0.8816050    -0.0559020
  C        1.8233140    -1.5265410     0.1016630
  C        2.5770400    -0.3539830     0.0301550
  C       -1.7066960    -0.1573290     0.0554370
  H       -0.1661180    -2.3524960     0.1439440
  H        2.5301710     1.7954230    -0.1182500
  H        2.3150903    -2.4961724     0.1188648
  H        3.6635200    -0.3964420     0.0343940
  H        0.5733460     2.8632860    -0.2381370
  H       -3.2241600    -1.2056690    -0.2641310
units angstrom
no_reorient  #important for SAPT in psi4, default
symmetry c1  #important for SAPT in psi4, default
}

set PROPERTIES_ORIGIN ["COM"]
properties('MP2/aug-cc-pvtz', properties = ['dipole'])
--------------------------------------------------------------------------

    Molecular point group: c1
  Charge       = 0
  Multiplicity = 1
  Basis Set: AUG-CC-PVTZ
    Blend: AUG-CC-PVTZ
  Basis Set: (AUG-CC-PVTZ AUX)
    Blend: AUG-CC-PVTZ-JKFIT

    Orbital Energies [Eh]
    ---------------------

    Doubly Occupied:

       1A    -20.609819     2A    -20.602684     3A    -20.542746
       4A    -11.389321     5A    -11.331009     6A    -11.265666
       7A    -11.262942     8A    -11.256570     9A    -11.249869
      10A    -11.242653    11A     -1.453601    12A     -1.415211
      13A     -1.348458    14A     -1.167445    15A     -1.055066
      16A     -1.022918    17A     -0.897819    18A     -0.861748
      19A     -0.801180    20A     -0.745914    21A     -0.708886
      22A     -0.697818    23A     -0.676090    24A     -0.644193
      25A     -0.625284    26A     -0.623478    27A     -0.596341
      28A     -0.588913    29A     -0.580262    30A     -0.537062
      31A     -0.523524    32A     -0.498497    33A     -0.476417
      34A     -0.446641    35A     -0.361831    36A     -0.332005

  @DF-RHF Final Energy:  -493.35365857894732

   => Energetics <=

    Nuclear Repulsion Energy =            498.9673020843014797
    One-Electron Energy =               -1663.7621602061008161
    Two-Electron Energy =                 671.4411995428519049
    Total Energy =                       -493.3536585789473747
  Basis Set: (AUG-CC-PVTZ AUX)
    Blend: AUG-CC-PVTZ-RI
    Molecular point group: c1

    Geometry (in Angstrom), charge = 0, multiplicity = 1:

       Center              X                  Y                   Z               Mass
    ------------   -----------------  -----------------  -----------------  -----------------
         O           -0.062064264687     2.153388030660    -0.158928978232    15.994914619570
         O           -2.217852264687    -1.348245969340    -0.369590978232    15.994914619570
         O           -2.350183264687     0.768985030660     0.420858021768    15.994914619570
         C           -0.182196264687    -0.225270969340     0.014241021768    12.000000000000
         C            0.583994735313     0.953661030660    -0.058615978232    12.000000000000
         C            0.474262735313    -1.462265969340     0.090908021768    12.000000000000
         C            1.981021735313     0.868830030660    -0.057506978232    12.000000000000
         C            1.864048735313    -1.539315969340     0.100058021768    12.000000000000
         C            2.617774735313    -0.366757969340     0.028550021768    12.000000000000
         C           -1.665961264687    -0.170103969340     0.053832021768    12.000000000000
         H           -0.125383264687    -2.365270969340     0.142339021768     1.007825032230
         H            2.570905735313     1.782648030660    -0.119854978232     1.007825032230
         H            2.355825035313    -2.508947369340     0.117259821768     1.007825032230
         H            3.704254735313    -0.409216969340     0.032789021768     1.007825032230
         H            0.614080735313     2.850511030660    -0.239741978232     1.007825032230
         H           -3.183425264687    -1.218443969340    -0.265735978232     1.007825032230

  Basis Set: AUG-CC-PVTZ
    Blend: AUG-CC-PVTZ
  Basis Set: (AUG-CC-PVTZ AUX)
    Blend: AUG-CC-PVTZ-JKFIT
	 Reference Energy          =    -493.3536585789473179 [Eh]
	 Singles Energy            =      -0.0000000000000000 [Eh]
	 Same-Spin Energy          =      -0.5053546194224314 [Eh]
	 Opposite-Spin Energy      =      -1.5044406203392628 [Eh]
	 Correlation Energy        =      -2.0097952397616945 [Eh]
	 Total Energy              =    -495.3634538187089902 [Eh]

	 ================> DF-SCS-MP2 Energies <==================
	-----------------------------------------------------------
	 SCS Same-Spin Scale       =       0.3333333333333333 [-]
	 SCS Opposite-Spin Scale   =       1.2000000000000000 [-]
	 SCS Same-Spin Energy      =      -0.1684515398074771 [Eh]
	 SCS Opposite-Spin Energy  =      -1.8053287444071153 [Eh]
	 SCS Correlation Energy    =      -1.9737802842145924 [Eh]
	 SCS Total Energy          =    -495.3274388631618876 [Eh]
	-----------------------------------------------------------

  Dipole Moment: [D]
     X:     2.6520      Y:    -0.4723      Z:    -0.4950     Total:     2.7389

*** Psi4 exiting successfully. Buy a developer a beer!
