                               Psi4 1.3.2 release

  ==> Input File <==

--------------------------------------------------------------------------
#psi4
#
memory 32 gb

molecule  {
0 1
  O       -0.1027990     2.1661630    -0.1573240
  O       -2.2585870    -1.3354710    -0.3679860
  O       -2.3909180     0.7817600     0.4224630
  C       -0.2229310    -0.2124960     0.0158460
  C        0.5432600     0.9664360    -0.0570110
  C        0.4335280    -1.4494910     0.0925130
  C        1.9402870     0.8816050    -0.0559020
  C        1.8233140    -1.5265410     0.1016630
  C        2.5770400    -0.3539830     0.0301550
  C       -1.7066960    -0.1573290     0.0554370
  H       -0.1661180    -2.3524960     0.1439440
  H        2.5301710     1.7954230    -0.1182500
  H        2.3148760    -2.4929130     0.1687580
  H        3.6627740    -0.3833479     0.2339635
  H        0.5733460     2.8632860    -0.2381370
  H       -3.2241600    -1.2056690    -0.2641310
units angstrom
no_reorient  #important for SAPT in psi4, default
symmetry c1  #important for SAPT in psi4, default
}

set PROPERTIES_ORIGIN ["COM"]
properties('MP2/aug-cc-pvtz', properties = ['dipole'])
--------------------------------------------------------------------------

    Molecular point group: c1
  Charge       = 0
  Multiplicity = 1
  Basis Set: AUG-CC-PVTZ
    Blend: AUG-CC-PVTZ
  Basis Set: (AUG-CC-PVTZ AUX)
    Blend: AUG-CC-PVTZ-JKFIT

    Orbital Energies [Eh]
    ---------------------

    Doubly Occupied:

       1A    -20.609972     2A    -20.602736     3A    -20.542879
       4A    -11.389462     5A    -11.331106     6A    -11.267229
       7A    -11.263018     8A    -11.256874     9A    -11.250116
      10A    -11.242857    11A     -1.453740    12A     -1.415284
      13A     -1.348593    14A     -1.167520    15A     -1.054791
      16A     -1.023089    17A     -0.897060    18A     -0.861812
      19A     -0.800946    20A     -0.745379    21A     -0.709134
      22A     -0.697896    23A     -0.674559    24A     -0.643338
      25A     -0.624877    26A     -0.623866    27A     -0.597068
      28A     -0.588179    29A     -0.580375    30A     -0.536816
      31A     -0.523819    32A     -0.496660    33A     -0.476668
      34A     -0.446832    35A     -0.361543    36A     -0.332123

  @DF-RHF Final Energy:  -493.35113262099833

   => Energetics <=

    Nuclear Repulsion Energy =            498.9038748806846115
    One-Electron Energy =               -1663.6335863607062038
    Two-Electron Energy =                 671.3785788590233778
    Total Energy =                       -493.3511326209983281
  Basis Set: (AUG-CC-PVTZ AUX)
    Blend: AUG-CC-PVTZ-RI
    Molecular point group: c1

    Geometry (in Angstrom), charge = 0, multiplicity = 1:

       Center              X                  Y                   Z               Mass
    ------------   -----------------  -----------------  -----------------  -----------------
         O           -0.062057253150     2.153268627165    -0.160750405951    15.994914619570
         O           -2.217845253150    -1.348365372835    -0.371412405951    15.994914619570
         O           -2.350176253150     0.768865627165     0.419036594049    15.994914619570
         C           -0.182189253150    -0.225390372835     0.012419594049    12.000000000000
         C            0.584001746850     0.953541627165    -0.060437405951    12.000000000000
         C            0.474269746850    -1.462385372835     0.089086594049    12.000000000000
         C            1.981028746850     0.868710627165    -0.059328405951    12.000000000000
         C            1.864055746850    -1.539435372835     0.098236594049    12.000000000000
         C            2.617781746850    -0.366877372835     0.026728594049    12.000000000000
         C           -1.665954253150    -0.170223372835     0.052010594049    12.000000000000
         H           -0.125376253150    -2.365390372835     0.140517594049     1.007825032230
         H            2.570912746850     1.782528627165    -0.121676405951     1.007825032230
         H            2.355617746850    -2.505807372835     0.165331594049     1.007825032230
         H            3.703515746850    -0.396242272835     0.230537094049     1.007825032230
         H            0.614087746850     2.850391627165    -0.241563405951     1.007825032230
         H           -3.183418253150    -1.218563372835    -0.267557405951     1.007825032230

  Basis Set: AUG-CC-PVTZ
    Blend: AUG-CC-PVTZ
  Basis Set: (AUG-CC-PVTZ AUX)
    Blend: AUG-CC-PVTZ-JKFIT
	 Reference Energy          =    -493.3511326209983281 [Eh]
	 Singles Energy            =      -0.0000000000000000 [Eh]
	 Same-Spin Energy          =      -0.5055239231297578 [Eh]
	 Opposite-Spin Energy      =      -1.5048220223065476 [Eh]
	 Correlation Energy        =      -2.0103459454363053 [Eh]
	 Total Energy              =    -495.3614785664346414 [Eh]

	 ================> DF-SCS-MP2 Energies <==================
	-----------------------------------------------------------
	 SCS Same-Spin Scale       =       0.3333333333333333 [-]
	 SCS Opposite-Spin Scale   =       1.2000000000000000 [-]
	 SCS Same-Spin Energy      =      -0.1685079743765859 [Eh]
	 SCS Opposite-Spin Energy  =      -1.8057864267678569 [Eh]
	 SCS Correlation Energy    =      -1.9742944011444430 [Eh]
	 SCS Total Energy          =    -495.3254270221427760 [Eh]
	-----------------------------------------------------------

  Dipole Moment: [D]
     X:     2.6192      Y:    -0.4632      Z:    -0.3374     Total:     2.6812

*** Psi4 exiting successfully. Buy a developer a beer!
