                               Psi4 1.3.2 release

  ==> Input File <==

--------------------------------------------------------------------------
#psi4
#
memory 32 gb

molecule  {
0 1
  O       -0.1027990     2.1661630    -0.1573240
  O       -2.2585870    -1.3354710    -0.3679860
  O       -2.3909180     0.7817600     0.4224630
  C       -0.2229310    -0.2124960     0.0158460
  C        0.5432600     0.9664360    -0.0570110
  C        0.4335280    -1.4494910     0.0925130
  C        1.9402870     0.8816050    -0.0559020
  C        1.8233140    -1.5265410     0.1016630
  C        2.5770400    -0.3539830     0.0301550
  C       -1.7066960    -0.1573290     0.0554370
  H       -0.1661180    -2.3524960     0.1439440
  H        2.5301710     1.7954230    -0.1182500
  H        2.3148760    -2.4929130     0.1687580
  H        3.6629605    -0.3866214     0.1840711
  H        0.5733460     2.8632860    -0.2381370
  H       -3.2241600    -1.2056690    -0.2641310
units angstrom
no_reorient  #important for SAPT in psi4, default
symmetry c1  #important for SAPT in psi4, default
}

set PROPERTIES_ORIGIN ["COM"]
properties('MP2/aug-cc-pvtz', properties = ['dipole'])
--------------------------------------------------------------------------

    Molecular point group: c1
  Charge       = 0
  Multiplicity = 1
  Basis Set: AUG-CC-PVTZ
    Blend: AUG-CC-PVTZ
  Basis Set: (AUG-CC-PVTZ AUX)
    Blend: AUG-CC-PVTZ-JKFIT

    Orbital Energies [Eh]
    ---------------------

    Doubly Occupied:

       1A    -20.609902     2A    -20.602707     3A    -20.542804
       4A    -11.389389     5A    -11.331063     6A    -11.266540
       7A    -11.262971     8A    -11.256736     9A    -11.250000
      10A    -11.242725    11A     -1.453671    12A     -1.415247
      13A     -1.348524    14A     -1.167483    15A     -1.054903
      16A     -1.023025    17A     -0.897379    18A     -0.861787
      19A     -0.801065    20A     -0.745602    21A     -0.709061
      22A     -0.697851    23A     -0.675232    24A     -0.643635
      25A     -0.624995    26A     -0.623814    27A     -0.596866
      28A     -0.588455    29A     -0.580317    30A     -0.536930
      31A     -0.523738    32A     -0.497342    33A     -0.476630
      34A     -0.446756    35A     -0.361651    36A     -0.332080

  @DF-RHF Final Energy:  -493.35234107955847

   => Energetics <=

    Nuclear Repulsion Energy =            498.9333021868313267
    One-Electron Energy =               -1663.6935348286931458
    Two-Electron Energy =                 671.4078915623034618
    Total Energy =                       -493.3523410795584141
  Basis Set: (AUG-CC-PVTZ AUX)
    Blend: AUG-CC-PVTZ-RI
    Molecular point group: c1

    Geometry (in Angstrom), charge = 0, multiplicity = 1:

       Center              X                  Y                   Z               Mass
    ------------   -----------------  -----------------  -----------------  -----------------
         O           -0.062058614861     2.153292528308    -0.160386121429    15.994914619570
         O           -2.217846614861    -1.348341471692    -0.371048121429    15.994914619570
         O           -2.350177614861     0.768889528308     0.419400878571    15.994914619570
         C           -0.182190614861    -0.225366471692     0.012783878571    12.000000000000
         C            0.584000385139     0.953565528308    -0.060073121429    12.000000000000
         C            0.474268385139    -1.462361471692     0.089450878571    12.000000000000
         C            1.981027385139     0.868734528308    -0.058964121429    12.000000000000
         C            1.864054385139    -1.539411471692     0.098600878571    12.000000000000
         C            2.617780385139    -0.366853471692     0.027092878571    12.000000000000
         C           -1.665955614861    -0.170199471692     0.052374878571    12.000000000000
         H           -0.125377614861    -2.365366471692     0.140881878571     1.007825032230
         H            2.570911385139     1.782552528308    -0.121312121429     1.007825032230
         H            2.355616385139    -2.505783471692     0.165695878571     1.007825032230
         H            3.703700885139    -0.399491871692     0.181008978571     1.007825032230
         H            0.614086385139     2.850415528308    -0.241199121429     1.007825032230
         H           -3.183419614861    -1.218539471692    -0.267193121429     1.007825032230

  Basis Set: AUG-CC-PVTZ
    Blend: AUG-CC-PVTZ
  Basis Set: (AUG-CC-PVTZ AUX)
    Blend: AUG-CC-PVTZ-JKFIT
	 Reference Energy          =    -493.3523410795584709 [Eh]
	 Singles Energy            =      -0.0000000000000000 [Eh]
	 Same-Spin Energy          =      -0.5054481929968974 [Eh]
	 Opposite-Spin Energy      =      -1.5046413205389695 [Eh]
	 Correlation Energy        =      -2.0100895135358670 [Eh]
	 Total Energy              =    -495.3624305930943592 [Eh]

	 ================> DF-SCS-MP2 Energies <==================
	-----------------------------------------------------------
	 SCS Same-Spin Scale       =       0.3333333333333333 [-]
	 SCS Opposite-Spin Scale   =       1.2000000000000000 [-]
	 SCS Same-Spin Energy      =      -0.1684827309989658 [Eh]
	 SCS Opposite-Spin Energy  =      -1.8055695846467632 [Eh]
	 SCS Correlation Energy    =      -1.9740523156457290 [Eh]
	 SCS Total Energy          =    -495.3263933952042066 [Eh]
	-----------------------------------------------------------

  Dipole Moment: [D]
     X:     2.6346      Y:    -0.4654      Z:    -0.3682     Total:     2.7006

*** Psi4 exiting successfully. Buy a developer a beer!
