                               Psi4 1.3.2 release

  ==> Input File <==

--------------------------------------------------------------------------
#psi4
#
memory 32 gb

molecule  {
0 1
  O       -0.1027990     2.1661630    -0.1573240
  O       -2.2585870    -1.3354710    -0.3679860
  O       -2.3909180     0.7817600     0.4224630
  C       -0.2229310    -0.2124960     0.0158460
  C        0.5432600     0.9664360    -0.0570110
  C        0.4335280    -1.4494910     0.0925130
  C        1.9393521     0.8998042     0.1934329
  C        1.8233140    -1.5265410     0.1016630
  C        2.5770400    -0.3539830     0.0301550
  C       -1.7066960    -0.1573290     0.0554370
  H       -0.1661180    -2.3524960     0.1439440
  H        2.5301710     1.7954230    -0.1182500
  H        2.3148760    -2.4929130     0.1687580
  H        3.6635200    -0.3964420     0.0343940
  H        0.5733460     2.8632860    -0.2381370
  H       -3.2241600    -1.2056690    -0.2641310
units angstrom
no_reorient  #important for SAPT in psi4, default
symmetry c1  #important for SAPT in psi4, default
}

set PROPERTIES_ORIGIN ["COM"]
properties('MP2/aug-cc-pvtz', properties = ['dipole'])
--------------------------------------------------------------------------

    Molecular point group: c1
  Charge       = 0
  Multiplicity = 1
  Basis Set: AUG-CC-PVTZ
    Blend: AUG-CC-PVTZ
  Basis Set: (AUG-CC-PVTZ AUX)
    Blend: AUG-CC-PVTZ-JKFIT

    Orbital Energies [Eh]
    ---------------------

    Doubly Occupied:

       1A    -20.610125     2A    -20.604253     3A    -20.543153
       4A    -11.389714     5A    -11.335752     6A    -11.270814
       7A    -11.266425     8A    -11.256418     9A    -11.254491
      10A    -11.242634    11A     -1.453973    12A     -1.416231
      13A     -1.348837    14A     -1.166020    15A     -1.053433
      16A     -1.021309    17A     -0.896446    18A     -0.861309
      19A     -0.799348    20A     -0.744679    21A     -0.707449
      22A     -0.697130    23A     -0.675060    24A     -0.644092
      25A     -0.624991    26A     -0.620514    27A     -0.597678
      28A     -0.586742    29A     -0.578737    30A     -0.534362
      31A     -0.520589    32A     -0.495142    33A     -0.476826
      34A     -0.446951    35A     -0.361609    36A     -0.332150

  @DF-RHF Final Energy:  -493.33620202299608

   => Energetics <=

    Nuclear Repulsion Energy =            498.2620342849413646
    One-Electron Energy =               -1662.3257009516598828
    Two-Electron Energy =                 670.7274646437224419
    Total Energy =                       -493.3362020229960763
  Basis Set: (AUG-CC-PVTZ AUX)
    Blend: AUG-CC-PVTZ-RI
    Molecular point group: c1

    Geometry (in Angstrom), charge = 0, multiplicity = 1:

       Center              X                  Y                   Z               Mass
    ------------   -----------------  -----------------  -----------------  -----------------
         O           -0.061981423011     2.151782056710    -0.180969585911    15.994914619570
         O           -2.217769423011    -1.349851943290    -0.391631585911    15.994914619570
         O           -2.350100423011     0.767379056710     0.398817414089    15.994914619570
         C           -0.182113423011    -0.226876943290    -0.007799585911    12.000000000000
         C            0.584077576989     0.952055056710    -0.080656585911    12.000000000000
         C            0.474345576989    -1.463871943290     0.068867414089    12.000000000000
         C            1.980169676989     0.885423256710     0.169787314089    12.000000000000
         C            1.864131576989    -1.540921943290     0.078017414089    12.000000000000
         C            2.617857576989    -0.368363943290     0.006509414089    12.000000000000
         C           -1.665878423011    -0.171709943290     0.031791414089    12.000000000000
         H           -0.125300423011    -2.366876943290     0.120298414089     1.007825032230
         H            2.570988576989     1.781042056710    -0.141895585911     1.007825032230
         H            2.355693576989    -2.507293943290     0.145112414089     1.007825032230
         H            3.704337576989    -0.410822943290     0.010748414089     1.007825032230
         H            0.614163576989     2.848905056710    -0.261782585911     1.007825032230
         H           -3.183342423011    -1.220049943290    -0.287776585911     1.007825032230

  Basis Set: AUG-CC-PVTZ
    Blend: AUG-CC-PVTZ
  Basis Set: (AUG-CC-PVTZ AUX)
    Blend: AUG-CC-PVTZ-JKFIT
	 Reference Energy          =    -493.3362020229960763 [Eh]
	 Singles Energy            =      -0.0000000000000000 [Eh]
	 Same-Spin Energy          =      -0.5059862159502769 [Eh]
	 Opposite-Spin Energy      =      -1.5066321230761093 [Eh]
	 Correlation Energy        =      -2.0126183390263863 [Eh]
	 Total Energy              =    -495.3488203620224795 [Eh]

	 ================> DF-SCS-MP2 Energies <==================
	-----------------------------------------------------------
	 SCS Same-Spin Scale       =       0.3333333333333333 [-]
	 SCS Opposite-Spin Scale   =       1.2000000000000000 [-]
	 SCS Same-Spin Energy      =      -0.1686620719834256 [Eh]
	 SCS Opposite-Spin Energy  =      -1.8079585476913311 [Eh]
	 SCS Correlation Energy    =      -1.9766206196747569 [Eh]
	 SCS Total Energy          =    -495.3128226426708238 [Eh]
	-----------------------------------------------------------

  Dipole Moment: [D]
     X:     2.5442      Y:    -0.5738      Z:    -0.6191     Total:     2.6806

*** Psi4 exiting successfully. Buy a developer a beer!
