                               Psi4 1.3.2 release

  ==> Input File <==

--------------------------------------------------------------------------
#psi4
#
memory 32 gb

molecule  {
0 1
  O       -0.1027990     2.1661630    -0.1573240
  O       -2.2585870    -1.3354710    -0.3679860
  O       -2.3909180     0.7817600     0.4224630
  C       -0.2229310    -0.2124960     0.0158460
  C        0.5432600     0.9664360    -0.0570110
  C        0.4335280    -1.4494910     0.0925130
  C        1.9402870     0.8816050    -0.0559020
  C        1.8233140    -1.5265410     0.1016630
  C        2.5770400    -0.3539830     0.0301550
  C       -1.7066960    -0.1573290     0.0554370
  H       -0.1661180    -2.3524960     0.1439440
  H        2.5301710     1.7954230    -0.1182500
  H        2.3159476    -2.5092098    -0.0807080
  H        3.6635200    -0.3964420     0.0343940
  H        0.5733460     2.8632860    -0.2381370
  H       -3.2241600    -1.2056690    -0.2641310
units angstrom
no_reorient  #important for SAPT in psi4, default
symmetry c1  #important for SAPT in psi4, default
}

set PROPERTIES_ORIGIN ["COM"]
properties('MP2/aug-cc-pvtz', properties = ['dipole'])
--------------------------------------------------------------------------

    Molecular point group: c1
  Charge       = 0
  Multiplicity = 1
  Basis Set: AUG-CC-PVTZ
    Blend: AUG-CC-PVTZ
  Basis Set: (AUG-CC-PVTZ AUX)
    Blend: AUG-CC-PVTZ-JKFIT

    Orbital Energies [Eh]
    ---------------------

    Doubly Occupied:

       1A    -20.610019     2A    -20.603151     3A    -20.542994
       4A    -11.389545     5A    -11.331565     6A    -11.266043
       7A    -11.263467     8A    -11.256805     9A    -11.250074
      10A    -11.244865    11A     -1.453819    12A     -1.415642
      13A     -1.348682    14A     -1.167625    15A     -1.055277
      16A     -1.022356    17A     -0.898055    18A     -0.861558
      19A     -0.799946    20A     -0.746250    21A     -0.707175
      22A     -0.697952    23A     -0.676289    24A     -0.643155
      25A     -0.625410    26A     -0.622644    27A     -0.596986
      28A     -0.588508    29A     -0.580405    30A     -0.536314
      31A     -0.523557    32A     -0.496778    33A     -0.475979
      34A     -0.446815    35A     -0.362097    36A     -0.331824

  @DF-RHF Final Energy:  -493.34974776659942

   => Energetics <=

    Nuclear Repulsion Energy =            498.8666529530642606
    One-Electron Energy =               -1663.5535474802325098
    Two-Electron Energy =                 671.3371467605688849
    Total Energy =                       -493.3497477665994211
  Basis Set: (AUG-CC-PVTZ AUX)
    Blend: AUG-CC-PVTZ-RI
    Molecular point group: c1

    Geometry (in Angstrom), charge = 0, multiplicity = 1:

       Center              X                  Y                   Z               Mass
    ------------   -----------------  -----------------  -----------------  -----------------
         O           -0.062070524180     2.153483221972    -0.157471816781    15.994914619570
         O           -2.217858524180    -1.348150778028    -0.368133816781    15.994914619570
         O           -2.350189524180     0.769080221972     0.422315183219    15.994914619570
         C           -0.182202524180    -0.225175778028     0.015698183219    12.000000000000
         C            0.583988475820     0.953756221972    -0.057158816781    12.000000000000
         C            0.474256475820    -1.462170778028     0.092365183219    12.000000000000
         C            1.981015475820     0.868925221972    -0.056049816781    12.000000000000
         C            1.864042475820    -1.539220778028     0.101515183219    12.000000000000
         C            2.617768475820    -0.366662778028     0.030007183219    12.000000000000
         C           -1.665967524180    -0.170008778028     0.055289183219    12.000000000000
         H           -0.125389524180    -2.365175778028     0.143796183219     1.007825032230
         H            2.570899475820     1.782743221972    -0.118397816781     1.007825032230
         H            2.356676075820    -2.521889578028    -0.080855816781     1.007825032230
         H            3.704248475820    -0.409121778028     0.034246183219     1.007825032230
         H            0.614074475820     2.850606221972    -0.238284816781     1.007825032230
         H           -3.183431524180    -1.218348778028    -0.264278816781     1.007825032230

  Basis Set: AUG-CC-PVTZ
    Blend: AUG-CC-PVTZ
  Basis Set: (AUG-CC-PVTZ AUX)
    Blend: AUG-CC-PVTZ-JKFIT
	 Reference Energy          =    -493.3497477665994211 [Eh]
	 Singles Energy            =      -0.0000000000000000 [Eh]
	 Same-Spin Energy          =      -0.5055063873788121 [Eh]
	 Opposite-Spin Energy      =      -1.5048779147049451 [Eh]
	 Correlation Energy        =      -2.0103843020837573 [Eh]
	 Total Energy              =    -495.3601320686831855 [Eh]

	 ================> DF-SCS-MP2 Energies <==================
	-----------------------------------------------------------
	 SCS Same-Spin Scale       =       0.3333333333333333 [-]
	 SCS Opposite-Spin Scale   =       1.2000000000000000 [-]
	 SCS Same-Spin Energy      =      -0.1685021291262707 [Eh]
	 SCS Opposite-Spin Energy  =      -1.8058534976459342 [Eh]
	 SCS Correlation Energy    =      -1.9743556267722049 [Eh]
	 SCS Total Energy          =    -495.3241033933716153 [Eh]
	-----------------------------------------------------------

  Dipole Moment: [D]
     X:     2.6189      Y:    -0.4359      Z:    -0.6257     Total:     2.7277

*** Psi4 exiting successfully. Buy a developer a beer!
