                               Psi4 1.3.2 release

  ==> Input File <==

--------------------------------------------------------------------------
#psi4
#
memory 32 gb

molecule  {
0 1
  O       -0.1027990     2.1661630    -0.1573240
  O       -2.2585870    -1.3354710    -0.3679860
  O       -2.3909180     0.7817600     0.4224630
  C       -0.2229310    -0.2124960     0.0158460
  C        0.5432600     0.9664360    -0.0570110
  C        0.4335280    -1.4494910     0.0925130
  C        1.9402870     0.8816050    -0.0559020
  C        1.8233140    -1.5265410     0.1016630
  C        2.5770400    -0.3539830     0.0301550
  C       -1.7066960    -0.1573290     0.0554370
  H       -0.1661180    -2.3524960     0.1439440
  H        2.5301710     1.7954230    -0.1182500
  H        2.3153047    -2.4994317     0.0689716
  H        3.6635200    -0.3964420     0.0343940
  H        0.5733460     2.8632860    -0.2381370
  H       -3.2241600    -1.2056690    -0.2641310
units angstrom
no_reorient  #important for SAPT in psi4, default
symmetry c1  #important for SAPT in psi4, default
}

set PROPERTIES_ORIGIN ["COM"]
properties('MP2/aug-cc-pvtz', properties = ['dipole'])
--------------------------------------------------------------------------

    Molecular point group: c1
  Charge       = 0
  Multiplicity = 1
  Basis Set: AUG-CC-PVTZ
    Blend: AUG-CC-PVTZ
  Basis Set: (AUG-CC-PVTZ AUX)
    Blend: AUG-CC-PVTZ-JKFIT

    Orbital Energies [Eh]
    ---------------------

    Doubly Occupied:

       1A    -20.609849     2A    -20.602736     3A    -20.542784
       4A    -11.389352     5A    -11.331065     6A    -11.265702
       7A    -11.263008     8A    -11.256597     9A    -11.249890
      10A    -11.242928    11A     -1.453634    12A     -1.415259
      13A     -1.348491    14A     -1.167462    15A     -1.055089
      16A     -1.022839    17A     -0.897847    18A     -0.861715
      19A     -0.801017    20A     -0.745951    21A     -0.708649
      22A     -0.697841    23A     -0.676111    24A     -0.644108
      25A     -0.625274    26A     -0.623324    27A     -0.596470
      28A     -0.588838    29A     -0.580283    30A     -0.536985
      31A     -0.523508    32A     -0.498327    33A     -0.476324
      34A     -0.446675    35A     -0.361860    36A     -0.331975

  @DF-RHF Final Energy:  -493.35320768065964

   => Energetics <=

    Nuclear Repulsion Energy =            498.9546652583945274
    One-Electron Energy =               -1663.7362083321386308
    Two-Electron Energy =                 671.4283353930845806
    Total Energy =                       -493.3532076806595796
  Basis Set: (AUG-CC-PVTZ AUX)
    Blend: AUG-CC-PVTZ-RI
    Molecular point group: c1

    Geometry (in Angstrom), charge = 0, multiplicity = 1:

       Center              X                  Y                   Z               Mass
    ------------   -----------------  -----------------  -----------------  -----------------
         O           -0.062065830108     2.153411828123    -0.158564687869    15.994914619570
         O           -2.217853830108    -1.348222171877    -0.369226687869    15.994914619570
         O           -2.350184830108     0.769008828123     0.421222312131    15.994914619570
         C           -0.182197830108    -0.225247171877     0.014605312131    12.000000000000
         C            0.583993169892     0.953684828123    -0.058251687869    12.000000000000
         C            0.474261169892    -1.462242171877     0.091272312131    12.000000000000
         C            1.981020169892     0.868853828123    -0.057142687869    12.000000000000
         C            1.864047169892    -1.539292171877     0.100422312131    12.000000000000
         C            2.617773169892    -0.366734171877     0.028914312131    12.000000000000
         C           -1.665962830108    -0.170080171877     0.054196312131    12.000000000000
         H           -0.125384830108    -2.365247171877     0.142703312131     1.007825032230
         H            2.570904169892     1.782671828123    -0.119490687869     1.007825032230
         H            2.356037869892    -2.512182871877     0.067730912131     1.007825032230
         H            3.704253169892    -0.409193171877     0.033153312131     1.007825032230
         H            0.614079169892     2.850534828123    -0.239377687869     1.007825032230
         H           -3.183426830108    -1.218420171877    -0.265371687869     1.007825032230

  Basis Set: AUG-CC-PVTZ
    Blend: AUG-CC-PVTZ
  Basis Set: (AUG-CC-PVTZ AUX)
    Blend: AUG-CC-PVTZ-JKFIT
	 Reference Energy          =    -493.3532076806596365 [Eh]
	 Singles Energy            =      -0.0000000000000000 [Eh]
	 Same-Spin Energy          =      -0.5053731716083703 [Eh]
	 Opposite-Spin Energy      =      -1.5044859254464620 [Eh]
	 Correlation Energy        =      -2.0098590970548322 [Eh]
	 Total Energy              =    -495.3630667777144936 [Eh]

	 ================> DF-SCS-MP2 Energies <==================
	-----------------------------------------------------------
	 SCS Same-Spin Scale       =       0.3333333333333333 [-]
	 SCS Opposite-Spin Scale   =       1.2000000000000000 [-]
	 SCS Same-Spin Energy      =      -0.1684577238694567 [Eh]
	 SCS Opposite-Spin Energy  =      -1.8053831105357543 [Eh]
	 SCS Correlation Energy    =      -1.9738408344052110 [Eh]
	 SCS Total Energy          =    -495.3270485150648597 [Eh]
	-----------------------------------------------------------

  Dipole Moment: [D]
     X:     2.6473      Y:    -0.4691      Z:    -0.5278     Total:     2.7399

*** Psi4 exiting successfully. Buy a developer a beer!
