                               Psi4 1.3.2 release

  ==> Input File <==

--------------------------------------------------------------------------
#psi4
#
memory 32 gb

molecule  {
0 1
  O       -0.1027990     2.1661630    -0.1573240
  O       -2.2585870    -1.3354710    -0.3679860
  O       -2.3909180     0.7817600     0.4224630
  C       -0.2229310    -0.2124960     0.0158460
  C        0.5432600     0.9664360    -0.0570110
  C        0.4335280    -1.4494910     0.0925130
  C        1.9402870     0.8816050    -0.0559020
  C        1.8233140    -1.5265410     0.1016630
  C        2.5770400    -0.3539830     0.0301550
  C       -1.7066960    -0.1573290     0.0554370
  H       -0.1661180    -2.3524960     0.1439440
  H        2.5301710     1.7954230    -0.1182500
  H        2.3157333    -2.5059504    -0.0308148
  H        3.6635200    -0.3964420     0.0343940
  H        0.5733460     2.8632860    -0.2381370
  H       -3.2241600    -1.2056690    -0.2641310
units angstrom
no_reorient  #important for SAPT in psi4, default
symmetry c1  #important for SAPT in psi4, default
}

set PROPERTIES_ORIGIN ["COM"]
properties('MP2/aug-cc-pvtz', properties = ['dipole'])
--------------------------------------------------------------------------

    Molecular point group: c1
  Charge       = 0
  Multiplicity = 1
  Basis Set: AUG-CC-PVTZ
    Blend: AUG-CC-PVTZ
  Basis Set: (AUG-CC-PVTZ AUX)
    Blend: AUG-CC-PVTZ-JKFIT

    Orbital Energies [Eh]
    ---------------------

    Doubly Occupied:

       1A    -20.609949     2A    -20.602970     3A    -20.542908
       4A    -11.389464     5A    -11.331344     6A    -11.265890
       7A    -11.263270     8A    -11.256714     9A    -11.249992
      10A    -11.244039    11A     -1.453743    12A     -1.415475
      13A     -1.348603    14A     -1.167551    15A     -1.055193
      16A     -1.022552    17A     -0.897965    18A     -0.861616
      19A     -0.800387    20A     -0.746119    21A     -0.707775
      22A     -0.697909    23A     -0.676210    24A     -0.643577
      25A     -0.625336    26A     -0.622909    27A     -0.596795
      28A     -0.588633    29A     -0.580355    30A     -0.536614
      31A     -0.523529    32A     -0.497461    33A     -0.476110
      34A     -0.446762    35A     -0.361993    36A     -0.331883

  @DF-RHF Final Energy:  -493.35128789926603

   => Energetics <=

    Nuclear Repulsion Energy =            498.9039931629598641
    One-Electron Energy =               -1663.6313729974604030
    Two-Electron Energy =                 671.3760919352343990
    Total Energy =                       -493.3512878992660262
  Basis Set: (AUG-CC-PVTZ AUX)
    Blend: AUG-CC-PVTZ-RI
    Molecular point group: c1

    Geometry (in Angstrom), charge = 0, multiplicity = 1:

       Center              X                  Y                   Z               Mass
    ------------   -----------------  -----------------  -----------------  -----------------
         O           -0.062068959489     2.153459423779    -0.157836107144    15.994914619570
         O           -2.217856959489    -1.348174576221    -0.368498107144    15.994914619570
         O           -2.350187959489     0.769056423779     0.421950892856    15.994914619570
         C           -0.182200959489    -0.225199576221     0.015333892856    12.000000000000
         C            0.583990040511     0.953732423779    -0.057523107144    12.000000000000
         C            0.474258040511    -1.462194576221     0.092000892856    12.000000000000
         C            1.981017040511     0.868901423779    -0.056414107144    12.000000000000
         C            1.864044040511    -1.539244576221     0.101150892856    12.000000000000
         C            2.617770040511    -0.366686576221     0.029642892856    12.000000000000
         C           -1.665965959489    -0.170032576221     0.054924892856    12.000000000000
         H           -0.125387959489    -2.365199576221     0.143431892856     1.007825032230
         H            2.570901040511     1.782719423779    -0.118762107144     1.007825032230
         H            2.356463340511    -2.518653976221    -0.031326907144     1.007825032230
         H            3.704250040511    -0.409145576221     0.033881892856     1.007825032230
         H            0.614076040511     2.850582423779    -0.238649107144     1.007825032230
         H           -3.183429959489    -1.218372576221    -0.264643107144     1.007825032230

  Basis Set: AUG-CC-PVTZ
    Blend: AUG-CC-PVTZ
  Basis Set: (AUG-CC-PVTZ AUX)
    Blend: AUG-CC-PVTZ-JKFIT
	 Reference Energy          =    -493.3512878992660262 [Eh]
	 Singles Energy            =      -0.0000000000000000 [Eh]
	 Same-Spin Energy          =      -0.5054496243396733 [Eh]
	 Opposite-Spin Energy      =      -1.5047031752251530 [Eh]
	 Correlation Energy        =      -2.0101527995648265 [Eh]
	 Total Energy              =    -495.3614406988308474 [Eh]

	 ================> DF-SCS-MP2 Energies <==================
	-----------------------------------------------------------
	 SCS Same-Spin Scale       =       0.3333333333333333 [-]
	 SCS Opposite-Spin Scale   =       1.2000000000000000 [-]
	 SCS Same-Spin Energy      =      -0.1684832081132244 [Eh]
	 SCS Opposite-Spin Energy  =      -1.8056438102701835 [Eh]
	 SCS Correlation Energy    =      -1.9741270183834079 [Eh]
	 SCS Total Energy          =    -495.3254149176494252 [Eh]
	-----------------------------------------------------------

  Dipole Moment: [D]
     X:     2.6307      Y:    -0.4508      Z:    -0.5932     Total:     2.7342

*** Psi4 exiting successfully. Buy a developer a beer!
