                               Psi4 1.3.2 release

  ==> Input File <==

--------------------------------------------------------------------------
#psi4
#
memory 32 gb

molecule  {
0 1
  O       -0.1027990     2.1661630    -0.1573240
  O       -2.2585870    -1.3354710    -0.3679860
  O       -2.3909180     0.7817600     0.4224630
  C       -0.2229310    -0.2124960     0.0158460
  C        0.5432600     0.9664360    -0.0570110
  C        0.4335280    -1.4494910     0.0925130
  C        1.9402870     0.8816050    -0.0559020
  C        1.8233140    -1.5265410     0.1016630
  C        2.5770400    -0.3539830     0.0301550
  C       -1.7066960    -0.1573290     0.0554370
  H       -0.1657627    -2.3584618     0.0441227
  H        2.5301710     1.7954230    -0.1182500
  H        2.3148760    -2.4929130     0.1687580
  H        3.6635200    -0.3964420     0.0343940
  H        0.5733460     2.8632860    -0.2381370
  H       -3.2241600    -1.2056690    -0.2641310
units angstrom
no_reorient  #important for SAPT in psi4, default
symmetry c1  #important for SAPT in psi4, default
}

set PROPERTIES_ORIGIN ["COM"]
properties('MP2/aug-cc-pvtz', properties = ['dipole'])
--------------------------------------------------------------------------

    Molecular point group: c1
  Charge       = 0
  Multiplicity = 1
  Basis Set: AUG-CC-PVTZ
    Blend: AUG-CC-PVTZ
  Basis Set: (AUG-CC-PVTZ AUX)
    Blend: AUG-CC-PVTZ-JKFIT

    Orbital Energies [Eh]
    ---------------------

    Doubly Occupied:

       1A    -20.609814     2A    -20.602685     3A    -20.542857
       4A    -11.389414     5A    -11.330992     6A    -11.265653
       7A    -11.263123     8A    -11.256643     9A    -11.249918
      10A    -11.242596    11A     -1.453657    12A     -1.415217
      13A     -1.348535    14A     -1.167412    15A     -1.055025
      16A     -1.022847    17A     -0.897789    18A     -0.861540
      19A     -0.801253    20A     -0.745532    21A     -0.709045
      22A     -0.697951    23A     -0.675890    24A     -0.644073
      25A     -0.626128    26A     -0.622688    27A     -0.596375
      28A     -0.588514    29A     -0.580258    30A     -0.537040
      31A     -0.523734    32A     -0.497589    33A     -0.476816
      34A     -0.446634    35A     -0.361790    36A     -0.331975

  @DF-RHF Final Energy:  -493.35311495444239

   => Energetics <=

    Nuclear Repulsion Energy =            498.9617013194938409
    One-Electron Energy =               -1663.7516295665570851
    Two-Electron Energy =                 671.4368132926208546
    Total Energy =                       -493.3531149544423897
  Basis Set: (AUG-CC-PVTZ AUX)
    Blend: AUG-CC-PVTZ-RI
    Molecular point group: c1

    Geometry (in Angstrom), charge = 0, multiplicity = 1:

       Center              X                  Y                   Z               Mass
    ------------   -----------------  -----------------  -----------------  -----------------
         O           -0.062065294185     2.153407791177    -0.158564433050    15.994914619570
         O           -2.217853294185    -1.348226208823    -0.369226433050    15.994914619570
         O           -2.350184294185     0.769004791177     0.421222566950    15.994914619570
         C           -0.182197294185    -0.225251208823     0.014605566950    12.000000000000
         C            0.583993705815     0.953680791177    -0.058251433050    12.000000000000
         C            0.474261705815    -1.462246208823     0.091272566950    12.000000000000
         C            1.981020705815     0.868849791177    -0.057142433050    12.000000000000
         C            1.864047705815    -1.539296208823     0.100422566950    12.000000000000
         C            2.617773705815    -0.366738208823     0.028914566950    12.000000000000
         C           -1.665962294185    -0.170084208823     0.054196566950    12.000000000000
         H           -0.125028994185    -2.371217008823     0.042882266950     1.007825032230
         H            2.570904705815     1.782667791177    -0.119490433050     1.007825032230
         H            2.355609705815    -2.505668208823     0.167517566950     1.007825032230
         H            3.704253705815    -0.409197208823     0.033153566950     1.007825032230
         H            0.614079705815     2.850530791177    -0.239377433050     1.007825032230
         H           -3.183426294185    -1.218424208823    -0.265371433050     1.007825032230

  Basis Set: AUG-CC-PVTZ
    Blend: AUG-CC-PVTZ
  Basis Set: (AUG-CC-PVTZ AUX)
    Blend: AUG-CC-PVTZ-JKFIT
	 Reference Energy          =    -493.3531149544423897 [Eh]
	 Singles Energy            =      -0.0000000000000000 [Eh]
	 Same-Spin Energy          =      -0.5054037559324093 [Eh]
	 Opposite-Spin Energy      =      -1.5045212807388448 [Eh]
	 Correlation Energy        =      -2.0099250366712540 [Eh]
	 Total Energy              =    -495.3630399911136237 [Eh]

	 ================> DF-SCS-MP2 Energies <==================
	-----------------------------------------------------------
	 SCS Same-Spin Scale       =       0.3333333333333333 [-]
	 SCS Opposite-Spin Scale   =       1.2000000000000000 [-]
	 SCS Same-Spin Energy      =      -0.1684679186441364 [Eh]
	 SCS Opposite-Spin Energy  =      -1.8054255368866137 [Eh]
	 SCS Correlation Energy    =      -1.9738934555307501 [Eh]
	 SCS Total Energy          =    -495.3270084099731321 [Eh]
	-----------------------------------------------------------

  Dipole Moment: [D]
     X:     2.6527      Y:    -0.4672      Z:    -0.5236     Total:     2.7440

*** Psi4 exiting successfully. Buy a developer a beer!
