                               Psi4 1.3.2 release

  ==> Input File <==

--------------------------------------------------------------------------
#psi4
#
memory 32 gb

molecule  {
0 1
  O       -0.1027990     2.1661630    -0.1573240
  O       -2.2585870    -1.3354710    -0.3679860
  O       -2.3909180     0.7817600     0.4224630
  C       -0.2229310    -0.2124960     0.0158460
  C        0.5432600     0.9664360    -0.0570110
  C        0.4335280    -1.4494910     0.0925130
  C        1.9402870     0.8816050    -0.0559020
  C        1.8233140    -1.5265410     0.1016630
  C        2.5770400    -0.3539830     0.0301550
  C       -1.7066960    -0.1573290     0.0554370
  H       -0.1661180    -2.3524960     0.1439440
  H        2.5301710     1.7954230    -0.1182500
  H        2.3148760    -2.4929130     0.1687580
  H        3.6624010    -0.3768009     0.3337483
  H        0.5733460     2.8632860    -0.2381370
  H       -3.2241600    -1.2056690    -0.2641310
units angstrom
no_reorient  #important for SAPT in psi4, default
symmetry c1  #important for SAPT in psi4, default
}

set PROPERTIES_ORIGIN ["COM"]
properties('MP2/aug-cc-pvtz', properties = ['dipole'])
--------------------------------------------------------------------------

    Molecular point group: c1
  Charge       = 0
  Multiplicity = 1
  Basis Set: AUG-CC-PVTZ
    Blend: AUG-CC-PVTZ
  Basis Set: (AUG-CC-PVTZ AUX)
    Blend: AUG-CC-PVTZ-JKFIT

    Orbital Energies [Eh]
    ---------------------

    Doubly Occupied:

       1A    -20.610169     2A    -20.602823     3A    -20.543101
       4A    -11.389674     5A    -11.331233     6A    -11.269164
       7A    -11.263161     8A    -11.257272     9A    -11.250457
      10A    -11.243243    11A     -1.453938    12A     -1.415393
      13A     -1.348793    14A     -1.167637    15A     -1.054507
      16A     -1.023283    17A     -0.896230    18A     -0.861894
      19A     -0.800646    20A     -0.744810    21A     -0.709346
      22A     -0.698038    23A     -0.672787    24A     -0.642573
      25A     -0.624742    26A     -0.623792    27A     -0.597439
      28A     -0.587476    29A     -0.580545    30A     -0.536471
      31A     -0.523975    32A     -0.494881    33A     -0.476730
      34A     -0.447023    35A     -0.361267    36A     -0.332245

  @DF-RHF Final Energy:  -493.34742102800743

   => Energetics <=

    Nuclear Repulsion Energy =            498.8220221538047667
    One-Electron Energy =               -1663.4653703521055377
    Two-Electron Energy =                 671.2959271702933393
    Total Energy =                       -493.3474210280074885
  Basis Set: (AUG-CC-PVTZ AUX)
    Blend: AUG-CC-PVTZ-RI
    Molecular point group: c1

    Geometry (in Angstrom), charge = 0, multiplicity = 1:

       Center              X                  Y                   Z               Mass
    ------------   -----------------  -----------------  -----------------  -----------------
         O           -0.062054529726     2.153220824879    -0.161478974994    15.994914619570
         O           -2.217842529726    -1.348413175121    -0.372140974994    15.994914619570
         O           -2.350173529726     0.768817824879     0.418308025006    15.994914619570
         C           -0.182186529726    -0.225438175121     0.011691025006    12.000000000000
         C            0.584004470274     0.953493824879    -0.061165974994    12.000000000000
         C            0.474272470274    -1.462433175121     0.088358025006    12.000000000000
         C            1.981031470274     0.868662824879    -0.060056974994    12.000000000000
         C            1.864058470274    -1.539483175121     0.097508025006    12.000000000000
         C            2.617784470274    -0.366925175121     0.026000025006    12.000000000000
         C           -1.665951529726    -0.170271175121     0.051282025006    12.000000000000
         H           -0.125373529726    -2.365438175121     0.139789025006     1.007825032230
         H            2.570915470274     1.782480824879    -0.122404974994     1.007825032230
         H            2.355620470274    -2.505855175121     0.164603025006     1.007825032230
         H            3.703145470274    -0.389743075121     0.329593325006     1.007825032230
         H            0.614090470274     2.850343824879    -0.242291974994     1.007825032230
         H           -3.183415529726    -1.218611175121    -0.268285974994     1.007825032230

  Basis Set: AUG-CC-PVTZ
    Blend: AUG-CC-PVTZ
  Basis Set: (AUG-CC-PVTZ AUX)
    Blend: AUG-CC-PVTZ-JKFIT
	 Reference Energy          =    -493.3474210280074317 [Eh]
	 Singles Energy            =      -0.0000000000000000 [Eh]
	 Same-Spin Energy          =      -0.5057343321838870 [Eh]
	 Opposite-Spin Energy      =      -1.5053534092826073 [Eh]
	 Correlation Energy        =      -2.0110877414664943 [Eh]
	 Total Energy              =    -495.3585087694739286 [Eh]

	 ================> DF-SCS-MP2 Energies <==================
	-----------------------------------------------------------
	 SCS Same-Spin Scale       =       0.3333333333333333 [-]
	 SCS Opposite-Spin Scale   =       1.2000000000000000 [-]
	 SCS Same-Spin Energy      =      -0.1685781107279623 [Eh]
	 SCS Opposite-Spin Energy  =      -1.8064240911391287 [Eh]
	 SCS Correlation Energy    =      -1.9750022018670910 [Eh]
	 SCS Total Energy          =    -495.3224232298745164 [Eh]
	-----------------------------------------------------------

  Dipole Moment: [D]
     X:     2.5759      Y:    -0.4585      Z:    -0.2774     Total:     2.6311

*** Psi4 exiting successfully. Buy a developer a beer!
