                               Psi4 1.3.2 release

  ==> Input File <==

--------------------------------------------------------------------------
#psi4
#
memory 32 gb

molecule  {
0 1
  O       -0.1027990     2.1661630    -0.1573240
  O       -2.2585870    -1.3354710    -0.3679860
  O       -2.3909180     0.7817600     0.4224630
  C       -0.2229310    -0.2124960     0.0158460
  C        0.5432600     0.9664360    -0.0570110
  C        0.4335280    -1.4494910     0.0925130
  C        1.9402870     0.8816050    -0.0559020
  C        1.8233140    -1.5265410     0.1016630
  C        2.5770400    -0.3539830     0.0301550
  C       -1.7066960    -0.1573290     0.0554370
  H       -0.1661180    -2.3524960     0.1439440
  H        2.5301710     1.7954230    -0.1182500
  H        2.3148760    -2.4929130     0.1687580
  H        3.6625875    -0.3800744     0.2838559
  H        0.5733460     2.8632860    -0.2381370
  H       -3.2241600    -1.2056690    -0.2641310
units angstrom
no_reorient  #important for SAPT in psi4, default
symmetry c1  #important for SAPT in psi4, default
}

set PROPERTIES_ORIGIN ["COM"]
properties('MP2/aug-cc-pvtz', properties = ['dipole'])
--------------------------------------------------------------------------

    Molecular point group: c1
  Charge       = 0
  Multiplicity = 1
  Basis Set: AUG-CC-PVTZ
    Blend: AUG-CC-PVTZ
  Basis Set: (AUG-CC-PVTZ AUX)
    Blend: AUG-CC-PVTZ-JKFIT

    Orbital Energies [Eh]
    ---------------------

    Doubly Occupied:

       1A    -20.610061     2A    -20.602774     3A    -20.542978
       4A    -11.389557     5A    -11.331162     6A    -11.268107
       7A    -11.263081     8A    -11.257053     9A    -11.250268
      10A    -11.243030    11A     -1.453829    12A     -1.415332
      13A     -1.348683    14A     -1.167570    15A     -1.054657
      16A     -1.023175    17A     -0.896672    18A     -0.861848
      19A     -0.800804    20A     -0.745111    21A     -0.709229
      22A     -0.697958    23A     -0.673732    24A     -0.642983
      25A     -0.624781    26A     -0.623873    27A     -0.597260
      28A     -0.587853    29A     -0.580451    30A     -0.536664
      31A     -0.523901    32A     -0.495837    33A     -0.476703
      34A     -0.446921    35A     -0.361414    36A     -0.332177

  @DF-RHF Final Energy:  -493.34950635501878

   => Energetics <=

    Nuclear Repulsion Energy =            498.8666218688886715
    One-Electron Energy =               -1663.5572768566139530
    Two-Electron Energy =                 671.3411486327065631
    Total Energy =                       -493.3495063550187751
  Basis Set: (AUG-CC-PVTZ AUX)
    Blend: AUG-CC-PVTZ-RI
    Molecular point group: c1

    Geometry (in Angstrom), charge = 0, multiplicity = 1:

       Center              X                  Y                   Z               Mass
    ------------   -----------------  -----------------  -----------------  -----------------
         O           -0.062055891438     2.153244726022    -0.161114690473    15.994914619570
         O           -2.217843891438    -1.348389273978    -0.371776690473    15.994914619570
         O           -2.350174891438     0.768841726022     0.418672309527    15.994914619570
         C           -0.182187891438    -0.225414273978     0.012055309527    12.000000000000
         C            0.584003108562     0.953517726022    -0.060801690473    12.000000000000
         C            0.474271108562    -1.462409273978     0.088722309527    12.000000000000
         C            1.981030108562     0.868686726022    -0.059692690473    12.000000000000
         C            1.864057108562    -1.539459273978     0.097872309527    12.000000000000
         C            2.617783108562    -0.366901273978     0.026364309527    12.000000000000
         C           -1.665952891438    -0.170247273978     0.051646309527    12.000000000000
         H           -0.125374891438    -2.365414273978     0.140153309527     1.007825032230
         H            2.570914108562     1.782504726022    -0.122040690473     1.007825032230
         H            2.355619108562    -2.505831273978     0.164967309527     1.007825032230
         H            3.703330608562    -0.392992673978     0.280065209527     1.007825032230
         H            0.614089108562     2.850367726022    -0.241927690473     1.007825032230
         H           -3.183416891438    -1.218587273978    -0.267921690473     1.007825032230

  Basis Set: AUG-CC-PVTZ
    Blend: AUG-CC-PVTZ
  Basis Set: (AUG-CC-PVTZ AUX)
    Blend: AUG-CC-PVTZ-JKFIT
	 Reference Energy          =    -493.3495063550187751 [Eh]
	 Singles Energy            =      -0.0000000000000000 [Eh]
	 Same-Spin Energy          =      -0.5056196817729668 [Eh]
	 Opposite-Spin Energy      =      -1.5050596075227745 [Eh]
	 Correlation Energy        =      -2.0106792892957412 [Eh]
	 Total Energy              =    -495.3601856443145266 [Eh]

	 ================> DF-SCS-MP2 Energies <==================
	-----------------------------------------------------------
	 SCS Same-Spin Scale       =       0.3333333333333333 [-]
	 SCS Opposite-Spin Scale   =       1.2000000000000000 [-]
	 SCS Same-Spin Energy      =      -0.1685398939243223 [Eh]
	 SCS Opposite-Spin Energy  =      -1.8060715290273293 [Eh]
	 SCS Correlation Energy    =      -1.9746114229516516 [Eh]
	 SCS Total Energy          =    -495.3241177779704003 [Eh]
	-----------------------------------------------------------

  Dipole Moment: [D]
     X:     2.5996      Y:    -0.4609      Z:    -0.3071     Total:     2.6579

*** Psi4 exiting successfully. Buy a developer a beer!
