                               Psi4 1.3.2 release

  ==> Input File <==

--------------------------------------------------------------------------
#psi4
#
memory 32 gb

molecule  {
0 1
  O       -0.1027990     2.1661630    -0.1573240
  O       -2.2585870    -1.3354710    -0.3679860
  O       -2.3909180     0.7817600     0.4224630
  C       -0.2229310    -0.2124960     0.0158460
  C        0.5432600     0.9664360    -0.0570110
  C        0.4335280    -1.4494910     0.0925130
  C        1.9402870     0.8816050    -0.0559020
  C        1.8233140    -1.5265410     0.1016630
  C        2.5770400    -0.3539830     0.0301550
  C       -1.7066960    -0.1573290     0.0554370
  H       -0.1661180    -2.3524960     0.1439440
  H        2.5301710     1.7954230    -0.1182500
  H        2.3148760    -2.4929130     0.1687580
  H        3.6631470    -0.3898950     0.1341788
  H        0.5733460     2.8632860    -0.2381370
  H       -3.2241600    -1.2056690    -0.2641310
units angstrom
no_reorient  #important for SAPT in psi4, default
symmetry c1  #important for SAPT in psi4, default
}

set PROPERTIES_ORIGIN ["COM"]
properties('MP2/aug-cc-pvtz', properties = ['dipole'])
--------------------------------------------------------------------------

    Molecular point group: c1
  Charge       = 0
  Multiplicity = 1
  Basis Set: AUG-CC-PVTZ
    Blend: AUG-CC-PVTZ
  Basis Set: (AUG-CC-PVTZ AUX)
    Blend: AUG-CC-PVTZ-JKFIT

    Orbital Energies [Eh]
    ---------------------

    Doubly Occupied:

       1A    -20.609850     2A    -20.602688     3A    -20.542753
       4A    -11.389339     5A    -11.331033     6A    -11.266048
       7A    -11.262939     8A    -11.256638     9A    -11.249921
      10A    -11.242633    11A     -1.453622    12A     -1.415222
      13A     -1.348475    14A     -1.167459    15A     -1.054989
      16A     -1.022980    17A     -0.897616    18A     -0.861772
      19A     -0.801155    20A     -0.745769    21A     -0.709011
      22A     -0.697821    23A     -0.675724    24A     -0.643870
      25A     -0.625112    26A     -0.623746    27A     -0.596658
      28A     -0.588680    29A     -0.580278    30A     -0.537009
      31A     -0.523666    32A     -0.497877    33A     -0.476589
      34A     -0.446694    35A     -0.361736    36A     -0.332050

  @DF-RHF Final Energy:  -493.35316982964804

   => Energetics <=

    Nuclear Repulsion Energy =            498.9545080905209602
    One-Electron Energy =               -1663.7365120287895479
    Two-Electron Energy =                 671.4288341086205492
    Total Energy =                       -493.3531698296480954
  Basis Set: (AUG-CC-PVTZ AUX)
    Blend: AUG-CC-PVTZ-RI
    Molecular point group: c1

    Geometry (in Angstrom), charge = 0, multiplicity = 1:

       Center              X                  Y                   Z               Mass
    ------------   -----------------  -----------------  -----------------  -----------------
         O           -0.062059976573     2.153316430181    -0.160021837638    15.994914619570
         O           -2.217847976573    -1.348317569819    -0.370683837638    15.994914619570
         O           -2.350178976573     0.768913430181     0.419765162362    15.994914619570
         C           -0.182191976573    -0.225342569819     0.013148162362    12.000000000000
         C            0.583999023427     0.953589430181    -0.059708837638    12.000000000000
         C            0.474267023427    -1.462337569819     0.089815162362    12.000000000000
         C            1.981026023427     0.868758430181    -0.058599837638    12.000000000000
         C            1.864053023427    -1.539387569819     0.098965162362    12.000000000000
         C            2.617779023427    -0.366829569819     0.027457162362    12.000000000000
         C           -1.665956976573    -0.170175569819     0.052739162362    12.000000000000
         H           -0.125378976573    -2.365342569819     0.141246162362     1.007825032230
         H            2.570910023427     1.782576430181    -0.120947837638     1.007825032230
         H            2.355615023427    -2.505759569819     0.166060162362     1.007825032230
         H            3.703886023427    -0.402741569819     0.131480962362     1.007825032230
         H            0.614085023427     2.850439430181    -0.240834837638     1.007825032230
         H           -3.183420976573    -1.218515569819    -0.266828837638     1.007825032230

  Basis Set: AUG-CC-PVTZ
    Blend: AUG-CC-PVTZ
  Basis Set: (AUG-CC-PVTZ AUX)
    Blend: AUG-CC-PVTZ-JKFIT
	 Reference Energy          =    -493.3531698296480386 [Eh]
	 Singles Energy            =      -0.0000000000000000 [Eh]
	 Same-Spin Energy          =      -0.5053934140343628 [Eh]
	 Opposite-Spin Energy      =      -1.5045177223252859 [Eh]
	 Correlation Energy        =      -2.0099111363596487 [Eh]
	 Total Energy              =    -495.3630809660077148 [Eh]

	 ================> DF-SCS-MP2 Energies <==================
	-----------------------------------------------------------
	 SCS Same-Spin Scale       =       0.3333333333333333 [-]
	 SCS Opposite-Spin Scale   =       1.2000000000000000 [-]
	 SCS Same-Spin Energy      =      -0.1684644713447876 [Eh]
	 SCS Opposite-Spin Energy  =      -1.8054212667903431 [Eh]
	 SCS Correlation Energy    =      -1.9738857381351307 [Eh]
	 SCS Total Energy          =    -495.3270555677831908 [Eh]
	-----------------------------------------------------------

  Dipole Moment: [D]
     X:     2.6456      Y:    -0.4675      Z:    -0.3994     Total:     2.7161

*** Psi4 exiting successfully. Buy a developer a beer!
