                               Psi4 1.3.2 release

  ==> Input File <==

--------------------------------------------------------------------------
#psi4
#
memory 32 gb

molecule  {
0 1
  O       -0.1027990     2.1661630    -0.1573240
  O       -2.2585870    -1.3354710    -0.3679860
  O       -2.3909180     0.7817600     0.4224630
  C       -0.2229310    -0.2124960     0.0158460
  C        0.5432600     0.9664360    -0.0570110
  C        0.4335280    -1.4494910     0.0925130
  C        1.9402870     0.8816050    -0.0559020
  C        1.8233140    -1.5265410     0.1016630
  C        2.5770400    -0.3539830     0.0301550
  C       -1.7066960    -0.1573290     0.0554370
  H       -0.1661180    -2.3524960     0.1439440
  H        2.5306688     1.8126539     0.1311550
  H        2.3148760    -2.4929130     0.1687580
  H        3.6635200    -0.3964420     0.0343940
  H        0.5733460     2.8632860    -0.2381370
  H       -3.2241600    -1.2056690    -0.2641310
units angstrom
no_reorient  #important for SAPT in psi4, default
symmetry c1  #important for SAPT in psi4, default
}

set PROPERTIES_ORIGIN ["COM"]
properties('MP2/aug-cc-pvtz', properties = ['dipole'])
--------------------------------------------------------------------------

    Molecular point group: c1
  Charge       = 0
  Multiplicity = 1
  Basis Set: AUG-CC-PVTZ
    Blend: AUG-CC-PVTZ
  Basis Set: (AUG-CC-PVTZ AUX)
    Blend: AUG-CC-PVTZ-JKFIT

    Orbital Energies [Eh]
    ---------------------

    Doubly Occupied:

       1A    -20.610017     2A    -20.602865     3A    -20.542929
       4A    -11.389517     5A    -11.331773     6A    -11.266114
       7A    -11.263544     8A    -11.256813     9A    -11.252151
      10A    -11.242768    11A     -1.453797    12A     -1.415358
      13A     -1.348655    14A     -1.167708    15A     -1.054913
      16A     -1.022740    17A     -0.898086    18A     -0.860481
      19A     -0.801252    20A     -0.745329    21A     -0.708009
      22A     -0.697888    23A     -0.676348    24A     -0.642939
      25A     -0.626232    26A     -0.620928    27A     -0.596837
      28A     -0.588277    29A     -0.579254    30A     -0.537159
      31A     -0.522930    32A     -0.498351    33A     -0.476095
      34A     -0.446676    35A     -0.361745    36A     -0.332188

  @DF-RHF Final Energy:  -493.34989114163261

   => Energetics <=

    Nuclear Repulsion Energy =            498.8561453455656647
    One-Electron Energy =               -1663.5347305077041256
    Two-Electron Energy =                 671.3286940205058499
    Total Energy =                       -493.3498911416326109
  Basis Set: (AUG-CC-PVTZ AUX)
    Blend: AUG-CC-PVTZ-RI
    Molecular point group: c1

    Geometry (in Angstrom), charge = 0, multiplicity = 1:

       Center              X                  Y                   Z               Mass
    ------------   -----------------  -----------------  -----------------  -----------------
         O           -0.062066334635     2.153238422721    -0.161114275023    15.994914619570
         O           -2.217854334635    -1.348395577279    -0.371776275023    15.994914619570
         O           -2.350185334635     0.768835422721     0.418672724977    15.994914619570
         C           -0.182198334635    -0.225420577279     0.012055724977    12.000000000000
         C            0.583992665365     0.953511422721    -0.060801275023    12.000000000000
         C            0.474260665365    -1.462415577279     0.088722724977    12.000000000000
         C            1.981019665365     0.868680422721    -0.059692275023    12.000000000000
         C            1.864046665365    -1.539465577279     0.097872724977    12.000000000000
         C            2.617772665365    -0.366907577279     0.026364724977    12.000000000000
         C           -1.665963334635    -0.170253577279     0.051646724977    12.000000000000
         H           -0.125385334635    -2.365420577279     0.140153724977     1.007825032230
         H            2.571401465365     1.799729322721     0.127364724977     1.007825032230
         H            2.355608665365    -2.505837577279     0.164967724977     1.007825032230
         H            3.704252665365    -0.409366577279     0.030603724977     1.007825032230
         H            0.614078665365     2.850361422721    -0.241927275023     1.007825032230
         H           -3.183427334635    -1.218593577279    -0.267921275023     1.007825032230

  Basis Set: AUG-CC-PVTZ
    Blend: AUG-CC-PVTZ
  Basis Set: (AUG-CC-PVTZ AUX)
    Blend: AUG-CC-PVTZ-JKFIT
	 Reference Energy          =    -493.3498911416326109 [Eh]
	 Singles Energy            =      -0.0000000000000000 [Eh]
	 Same-Spin Energy          =      -0.5055291294226195 [Eh]
	 Opposite-Spin Energy      =      -1.5048614425334585 [Eh]
	 Correlation Energy        =      -2.0103905719560782 [Eh]
	 Total Energy              =    -495.3602817135886767 [Eh]

	 ================> DF-SCS-MP2 Energies <==================
	-----------------------------------------------------------
	 SCS Same-Spin Scale       =       0.3333333333333333 [-]
	 SCS Opposite-Spin Scale   =       1.2000000000000000 [-]
	 SCS Same-Spin Energy      =      -0.1685097098075398 [Eh]
	 SCS Opposite-Spin Energy  =      -1.8058337310401502 [Eh]
	 SCS Correlation Energy    =      -1.9743434408476901 [Eh]
	 SCS Total Energy          =    -495.3242345824803010 [Eh]
	-----------------------------------------------------------

  Dipole Moment: [D]
     X:     2.6186      Y:    -0.5008      Z:    -0.2973     Total:     2.6825

*** Psi4 exiting successfully. Buy a developer a beer!
