                               Psi4 1.3.2 release

  ==> Input File <==

--------------------------------------------------------------------------
#psi4
#
memory 32 gb

molecule  {
0 1
  O       -0.1027990     2.1661630    -0.1573240
  O       -2.2585870    -1.3354710    -0.3679860
  O       -2.3909180     0.7817600     0.4224630
  C       -0.2229310    -0.2124960     0.0158460
  C        0.5432600     0.9664360    -0.0570110
  C        0.4335280    -1.4494910     0.0925130
  C        1.9402870     0.8816050    -0.0559020
  C        1.8233140    -1.5265410     0.1016630
  C        2.5762615    -0.3354160     0.3295789
  C       -1.7066960    -0.1573290     0.0554370
  H       -0.1661180    -2.3524960     0.1439440
  H        2.5301710     1.7954230    -0.1182500
  H        2.3148760    -2.4929130     0.1687580
  H        3.6635200    -0.3964420     0.0343940
  H        0.5733460     2.8632860    -0.2381370
  H       -3.2241600    -1.2056690    -0.2641310
units angstrom
no_reorient  #important for SAPT in psi4, default
symmetry c1  #important for SAPT in psi4, default
}

set PROPERTIES_ORIGIN ["COM"]
properties('MP2/aug-cc-pvtz', properties = ['dipole'])
--------------------------------------------------------------------------

    Molecular point group: c1
  Charge       = 0
  Multiplicity = 1
  Basis Set: AUG-CC-PVTZ
    Blend: AUG-CC-PVTZ
  Basis Set: (AUG-CC-PVTZ AUX)
    Blend: AUG-CC-PVTZ-JKFIT

    Orbital Energies [Eh]
    ---------------------

    Doubly Occupied:

       1A    -20.611270     2A    -20.602117     3A    -20.544993
       4A    -11.391231     5A    -11.329973     6A    -11.273551
       7A    -11.262374     8A    -11.260548     9A    -11.256803
      10A    -11.249887    11A     -1.455224    12A     -1.414988
      13A     -1.350230    14A     -1.164510    15A     -1.051081
      16A     -1.021974    17A     -0.896353    18A     -0.859338
      19A     -0.800763    20A     -0.742536    21A     -0.710190
      22A     -0.697773    23A     -0.668050    24A     -0.642395
      25A     -0.625686    26A     -0.621923    27A     -0.595572
      28A     -0.586688    29A     -0.579261    30A     -0.530541
      31A     -0.520159    32A     -0.494497    33A     -0.476221
      34A     -0.448102    35A     -0.361253    36A     -0.329605

  @DF-RHF Final Energy:  -493.32341603110535

   => Energetics <=

    Nuclear Repulsion Energy =            497.9911388148383367
    One-Electron Energy =               -1661.7737914792064657
    Two-Electron Energy =                 670.4592366332626625
    Total Energy =                       -493.3234160311053529
  Basis Set: (AUG-CC-PVTZ AUX)
    Blend: AUG-CC-PVTZ-RI
    Molecular point group: c1

    Geometry (in Angstrom), charge = 0, multiplicity = 1:

       Center              X                  Y                   Z               Mass
    ------------   -----------------  -----------------  -----------------  -----------------
         O           -0.061995019888     2.151750081445    -0.185324151028    15.994914619570
         O           -2.217783019888    -1.349883918555    -0.395986151028    15.994914619570
         O           -2.350114019888     0.767347081445     0.394462848972    15.994914619570
         C           -0.182127019888    -0.226908918555    -0.012154151028    12.000000000000
         C            0.584063980112     0.952023081445    -0.085011151028    12.000000000000
         C            0.474331980112    -1.463903918555     0.064512848972    12.000000000000
         C            1.981090980112     0.867192081445    -0.083902151028    12.000000000000
         C            1.864117980112    -1.540953918555     0.073662848972    12.000000000000
         C            2.617065480112    -0.349828918555     0.301578748972    12.000000000000
         C           -1.665892019888    -0.171741918555     0.027436848972    12.000000000000
         H           -0.125314019888    -2.366908918555     0.115943848972     1.007825032230
         H            2.570974980112     1.781010081445    -0.146250151028     1.007825032230
         H            2.355679980112    -2.507325918555     0.140757848972     1.007825032230
         H            3.704323980112    -0.410854918555     0.006393848972     1.007825032230
         H            0.614149980112     2.848873081445    -0.266137151028     1.007825032230
         H           -3.183356019888    -1.220081918555    -0.292131151028     1.007825032230

  Basis Set: AUG-CC-PVTZ
    Blend: AUG-CC-PVTZ
  Basis Set: (AUG-CC-PVTZ AUX)
    Blend: AUG-CC-PVTZ-JKFIT
	 Reference Energy          =    -493.3234160311053529 [Eh]
	 Singles Energy            =      -0.0000000000000000 [Eh]
	 Same-Spin Energy          =      -0.5071601872970797 [Eh]
	 Opposite-Spin Energy      =      -1.5094878837930565 [Eh]
	 Correlation Energy        =      -2.0166480710901364 [Eh]
	 Total Energy              =    -495.3400641021954698 [Eh]

	 ================> DF-SCS-MP2 Energies <==================
	-----------------------------------------------------------
	 SCS Same-Spin Scale       =       0.3333333333333333 [-]
	 SCS Opposite-Spin Scale   =       1.2000000000000000 [-]
	 SCS Same-Spin Energy      =      -0.1690533957656932 [Eh]
	 SCS Opposite-Spin Energy  =      -1.8113854605516677 [Eh]
	 SCS Correlation Energy    =      -1.9804388563173609 [Eh]
	 SCS Total Energy          =    -495.3038548874226876 [Eh]
	-----------------------------------------------------------

  Dipole Moment: [D]
     X:     2.4083      Y:    -0.4848      Z:    -0.6724     Total:     2.5470

*** Psi4 exiting successfully. Buy a developer a beer!
