                               Psi4 1.3.2 release

  ==> Input File <==

--------------------------------------------------------------------------
#psi4
#
memory 32 gb

molecule  {
0 1
  O       -0.1027990     2.1661630    -0.1573240
  O       -2.2585870    -1.3354710    -0.3679860
  O       -2.3909180     0.7817600     0.4224630
  C       -0.2245071    -0.1776108    -0.0778585
  C        0.5432600     0.9664360    -0.0570110
  C        0.4335280    -1.4494910     0.0925130
  C        1.9402870     0.8816050    -0.0559020
  C        1.8233140    -1.5265410     0.1016630
  C        2.5770400    -0.3539830     0.0301550
  C       -1.7066960    -0.1573290     0.0554370
  H       -0.1661180    -2.3524960     0.1439440
  H        2.5301710     1.7954230    -0.1182500
  H        2.3148760    -2.4929130     0.1687580
  H        3.6635200    -0.3964420     0.0343940
  H        0.5733460     2.8632860    -0.2381370
  H       -3.2241600    -1.2056690    -0.2641310
units angstrom
no_reorient  #important for SAPT in psi4, default
symmetry c1  #important for SAPT in psi4, default
}

set PROPERTIES_ORIGIN ["COM"]
properties('MP2/aug-cc-pvtz', properties = ['dipole'])
--------------------------------------------------------------------------

    Molecular point group: c1
  Charge       = 0
  Multiplicity = 1
  Basis Set: AUG-CC-PVTZ
    Blend: AUG-CC-PVTZ
  Basis Set: (AUG-CC-PVTZ AUX)
    Blend: AUG-CC-PVTZ-JKFIT

    Orbital Energies [Eh]
    ---------------------

    Doubly Occupied:

       1A    -20.609583     2A    -20.600764     3A    -20.542123
       4A    -11.389381     5A    -11.327437     6A    -11.267157
       7A    -11.266696     8A    -11.256145     9A    -11.250992
      10A    -11.243510    11A     -1.453213    12A     -1.414527
      13A     -1.347970    14A     -1.166463    15A     -1.053559
      16A     -1.024476    17A     -0.897556    18A     -0.863660
      19A     -0.798456    20A     -0.745795    21A     -0.707203
      22A     -0.697574    23A     -0.673940    24A     -0.647053
      25A     -0.624737    26A     -0.623774    27A     -0.595718
      28A     -0.589058    29A     -0.577303    30A     -0.535728
      31A     -0.525844    32A     -0.496738    33A     -0.476103
      34A     -0.445709    35A     -0.358286    36A     -0.335825

  @DF-RHF Final Energy:  -493.34909951434815

   => Energetics <=

    Nuclear Repulsion Energy =            498.9621201900903884
    One-Electron Energy =               -1663.7623359209935643
    Two-Electron Energy =                 671.4511162165549649
    Total Energy =                       -493.3490995143481541
  Basis Set: (AUG-CC-PVTZ AUX)
    Blend: AUG-CC-PVTZ-RI
    Molecular point group: c1

    Geometry (in Angstrom), charge = 0, multiplicity = 1:

       Center              X                  Y                   Z               Mass
    ------------   -----------------  -----------------  -----------------  -----------------
         O           -0.061925679292     2.150331433348    -0.151146922151    15.994914619570
         O           -2.217713679292    -1.351302566652    -0.361808922151    15.994914619570
         O           -2.350044679292     0.765928433348     0.428640077849    15.994914619570
         C           -0.183633779292    -0.193442366652    -0.071681422151    12.000000000000
         C            0.584133320708     0.950604433348    -0.050833922151    12.000000000000
         C            0.474401320708    -1.465322566652     0.098690077849    12.000000000000
         C            1.981160320708     0.865773433348    -0.049724922151    12.000000000000
         C            1.864187320708    -1.542372566652     0.107840077849    12.000000000000
         C            2.617913320708    -0.369814566652     0.036332077849    12.000000000000
         C           -1.665822679292    -0.173160566652     0.061614077849    12.000000000000
         H           -0.125244679292    -2.368327566652     0.150121077849     1.007825032230
         H            2.571044320708     1.779591433348    -0.112072922151     1.007825032230
         H            2.355749320708    -2.508744566652     0.174935077849     1.007825032230
         H            3.704393320708    -0.412273566652     0.040571077849     1.007825032230
         H            0.614219320708     2.847454433348    -0.231959922151     1.007825032230
         H           -3.183286679292    -1.221500566652    -0.257953922151     1.007825032230

  Basis Set: AUG-CC-PVTZ
    Blend: AUG-CC-PVTZ
  Basis Set: (AUG-CC-PVTZ AUX)
    Blend: AUG-CC-PVTZ-JKFIT
	 Reference Energy          =    -493.3490995143481541 [Eh]
	 Singles Energy            =      -0.0000000000000000 [Eh]
	 Same-Spin Energy          =      -0.5053958410076647 [Eh]
	 Opposite-Spin Energy      =      -1.5046406640111845 [Eh]
	 Correlation Energy        =      -2.0100365050188493 [Eh]
	 Total Energy              =    -495.3591360193669857 [Eh]

	 ================> DF-SCS-MP2 Energies <==================
	-----------------------------------------------------------
	 SCS Same-Spin Scale       =       0.3333333333333333 [-]
	 SCS Opposite-Spin Scale   =       1.2000000000000000 [-]
	 SCS Same-Spin Energy      =      -0.1684652803358882 [Eh]
	 SCS Opposite-Spin Energy  =      -1.8055687968134213 [Eh]
	 SCS Correlation Energy    =      -1.9740340771493095 [Eh]
	 SCS Total Energy          =    -495.3231335914974807 [Eh]
	-----------------------------------------------------------

  Dipole Moment: [D]
     X:     2.7072      Y:    -0.4973      Z:    -0.4521     Total:     2.7894

*** Psi4 exiting successfully. Buy a developer a beer!
