                               Psi4 1.3.2 release

  ==> Input File <==

--------------------------------------------------------------------------
#psi4
#
memory 32 gb

molecule  {
0 1
  O       -0.1027990     2.1661630    -0.1573240
  O       -2.2585870    -1.3354710    -0.3679860
  O       -2.3909180     0.7817600     0.4224630
  C       -0.2229310    -0.2124960     0.0158460
  C        0.5432600     0.9664360    -0.0570110
  C        0.4335280    -1.4494910     0.0925130
  C        1.9402870     0.8816050    -0.0559020
  C        1.8233140    -1.5265410     0.1016630
  C        2.5770400    -0.3539830     0.0301550
  C       -1.7066960    -0.1573290     0.0554370
  H       -0.1661180    -2.3524960     0.1439440
  H        2.5301710     1.7954230    -0.1182500
  H        2.3148760    -2.4929130     0.1687580
  H        3.6635200    -0.3964420     0.0343940
  H        0.5733460     2.8632860    -0.2381370
  H       -3.2241600    -1.2056690    -0.2641310
units angstrom
no_reorient  #important for SAPT in psi4, default
symmetry c1  #important for SAPT in psi4, default
}

set PROPERTIES_ORIGIN ["COM"]
properties('MP2/aug-cc-pvtz', properties = ['dipole'])
--------------------------------------------------------------------------

    Molecular point group: c1
  Charge       = 0
  Multiplicity = 1
  Basis Set: AUG-CC-PVTZ
    Blend: AUG-CC-PVTZ
  Basis Set: (AUG-CC-PVTZ AUX)
    Blend: AUG-CC-PVTZ-JKFIT

    Orbital Energies [Eh]
    ---------------------

    Doubly Occupied:

       1A    -20.609801     2A    -20.602675     3A    -20.542722
       4A    -11.389306     5A    -11.331007     6A    -11.265667
       7A    -11.262919     8A    -11.256565     9A    -11.249868
      10A    -11.242568    11A     -1.453583    12A     -1.415203
      13A     -1.348440    14A     -1.167445    15A     -1.055062
      16A     -1.022949    17A     -0.897810    18A     -0.861763
      19A     -0.801229    20A     -0.745907    21A     -0.708974
      22A     -0.697803    23A     -0.676086    24A     -0.644148
      25A     -0.625317    26A     -0.623598    27A     -0.596238
      28A     -0.588967    29A     -0.580251    30A     -0.537070
      31A     -0.523562    32A     -0.498484    33A     -0.476504
      34A     -0.446614    35A     -0.361826    36A     -0.332022

  @DF-RHF Final Energy:  -493.35380142791757

   => Energetics <=

    Nuclear Repulsion Energy =            498.9711916382750587
    One-Electron Energy =               -1663.7700778857126807
    Two-Electron Energy =                 671.4450848195200479
    Total Energy =                       -493.3538014279175741
  Basis Set: (AUG-CC-PVTZ AUX)
    Blend: AUG-CC-PVTZ-RI
    Molecular point group: c1

    Geometry (in Angstrom), charge = 0, multiplicity = 1:

       Center              X                  Y                   Z               Mass
    ------------   -----------------  -----------------  -----------------  -----------------
         O           -0.062062699996     2.153364232467    -0.159293268595    15.994914619570
         O           -2.217850699996    -1.348269767533    -0.369955268595    15.994914619570
         O           -2.350181699996     0.768961232467     0.420493731405    15.994914619570
         C           -0.182194699996    -0.225294767533     0.013876731405    12.000000000000
         C            0.583996300004     0.953637232467    -0.058980268595    12.000000000000
         C            0.474264300004    -1.462289767533     0.090543731405    12.000000000000
         C            1.981023300004     0.868806232467    -0.057871268595    12.000000000000
         C            1.864050300004    -1.539339767533     0.099693731405    12.000000000000
         C            2.617776300004    -0.366781767533     0.028185731405    12.000000000000
         C           -1.665959699996    -0.170127767533     0.053467731405    12.000000000000
         H           -0.125381699996    -2.365294767533     0.141974731405     1.007825032230
         H            2.570907300004     1.782624232467    -0.120219268595     1.007825032230
         H            2.355612300004    -2.505711767533     0.166788731405     1.007825032230
         H            3.704256300004    -0.409240767533     0.032424731405     1.007825032230
         H            0.614082300004     2.850487232467    -0.240106268595     1.007825032230
         H           -3.183423699996    -1.218467767533    -0.266100268595     1.007825032230

  Basis Set: AUG-CC-PVTZ
    Blend: AUG-CC-PVTZ
  Basis Set: (AUG-CC-PVTZ AUX)
    Blend: AUG-CC-PVTZ-JKFIT
	 Reference Energy          =    -493.3538014279175741 [Eh]
	 Singles Energy            =      -0.0000000000000000 [Eh]
	 Same-Spin Energy          =      -0.5053495236123559 [Eh]
	 Opposite-Spin Energy      =      -1.5044325764139406 [Eh]
	 Correlation Energy        =      -2.0097821000262965 [Eh]
	 Total Energy              =    -495.3635835279438879 [Eh]

	 ================> DF-SCS-MP2 Energies <==================
	-----------------------------------------------------------
	 SCS Same-Spin Scale       =       0.3333333333333333 [-]
	 SCS Opposite-Spin Scale   =       1.2000000000000000 [-]
	 SCS Same-Spin Energy      =      -0.1684498412041186 [Eh]
	 SCS Opposite-Spin Energy  =      -1.8053190916967286 [Eh]
	 SCS Correlation Energy    =      -1.9737689329008472 [Eh]
	 SCS Total Energy          =    -495.3275703608184131 [Eh]
	-----------------------------------------------------------

  Dipole Moment: [D]
     X:     2.6542      Y:    -0.4715      Z:    -0.4624     Total:     2.7352

*** Psi4 exiting successfully. Buy a developer a beer!
