                               Psi4 1.3.2 release

  ==> Input File <==

--------------------------------------------------------------------------
#psi4
#
memory 32 gb

molecule  {
0 1
  O       -0.1027990     2.1661630    -0.1573240
  O       -2.2585870    -1.3354710    -0.3679860
  O       -2.3909180     0.7817600     0.4224630
  C       -0.2229310    -0.2124960     0.0158460
  C        0.5432600     0.9664360    -0.0570110
  C        0.4335280    -1.4494910     0.0925130
  C        1.9402870     0.8816050    -0.0559020
  C        1.8233140    -1.5265410     0.1016630
  C        2.5770400    -0.3539830     0.0301550
  C       -1.7066960    -0.1573290     0.0554370
  H       -0.1661180    -2.3524960     0.1439440
  H        2.5301710     1.7954230    -0.1182500
  H        2.3148760    -2.4929130     0.1687580
  H        3.6633335    -0.3931685     0.0842864
  H        0.5733460     2.8632860    -0.2381370
  H       -3.2241600    -1.2056690    -0.2641310
units angstrom
no_reorient  #important for SAPT in psi4, default
symmetry c1  #important for SAPT in psi4, default
}

set PROPERTIES_ORIGIN ["COM"]
properties('MP2/aug-cc-pvtz', properties = ['dipole'])
--------------------------------------------------------------------------

    Molecular point group: c1
  Charge       = 0
  Multiplicity = 1
  Basis Set: AUG-CC-PVTZ
    Blend: AUG-CC-PVTZ
  Basis Set: (AUG-CC-PVTZ AUX)
    Blend: AUG-CC-PVTZ-JKFIT

    Orbital Energies [Eh]
    ---------------------

    Doubly Occupied:

       1A    -20.609816     2A    -20.602678     3A    -20.542726
       4A    -11.389311     5A    -11.331015     6A    -11.265756
       7A    -11.262922     8A    -11.256581     9A    -11.249877
      10A    -11.242581    11A     -1.453593    12A     -1.415208
      13A     -1.348447    14A     -1.167447    15A     -1.055043
      16A     -1.022956    17A     -0.897762    18A     -0.861764
      19A     -0.801211    20A     -0.745873    21A     -0.708981
      22A     -0.697806    23A     -0.676013    24A     -0.644041
      25A     -0.625220    26A     -0.623673    27A     -0.596447
      28A     -0.588852    29A     -0.580256    30A     -0.537055
      31A     -0.523607    32A     -0.498259    33A     -0.476547
      34A     -0.446647    35A     -0.361794    36A     -0.332031

  @DF-RHF Final Energy:  -493.35364982612600

   => Energetics <=

    Nuclear Repulsion Energy =            498.9671979890346165
    One-Electron Energy =               -1663.7620983108949986
    Two-Electron Energy =                 671.4412504957344936
    Total Energy =                       -493.3536498261260022
  Basis Set: (AUG-CC-PVTZ AUX)
    Blend: AUG-CC-PVTZ-RI
    Molecular point group: c1

    Geometry (in Angstrom), charge = 0, multiplicity = 1:

       Center              X                  Y                   Z               Mass
    ------------   -----------------  -----------------  -----------------  -----------------
         O           -0.062061338285     2.153340331324    -0.159657553116    15.994914619570
         O           -2.217849338285    -1.348293668676    -0.370319553116    15.994914619570
         O           -2.350180338285     0.768937331324     0.420129446884    15.994914619570
         C           -0.182193338285    -0.225318668676     0.013512446884    12.000000000000
         C            0.583997661715     0.953613331324    -0.059344553116    12.000000000000
         C            0.474265661715    -1.462313668676     0.090179446884    12.000000000000
         C            1.981024661715     0.868782331324    -0.058235553116    12.000000000000
         C            1.864051661715    -1.539363668676     0.099329446884    12.000000000000
         C            2.617777661715    -0.366805668676     0.027821446884    12.000000000000
         C           -1.665958338285    -0.170151668676     0.053103446884    12.000000000000
         H           -0.125380338285    -2.365318668676     0.141610446884     1.007825032230
         H            2.570908661715     1.782600331324    -0.120583553116     1.007825032230
         H            2.355613661715    -2.505735668676     0.166424446884     1.007825032230
         H            3.704071161715    -0.405991168676     0.081952846884     1.007825032230
         H            0.614083661715     2.850463331324    -0.240470553116     1.007825032230
         H           -3.183422338285    -1.218491668676    -0.266464553116     1.007825032230

  Basis Set: AUG-CC-PVTZ
    Blend: AUG-CC-PVTZ
  Basis Set: (AUG-CC-PVTZ AUX)
    Blend: AUG-CC-PVTZ-JKFIT
	 Reference Energy          =    -493.3536498261260022 [Eh]
	 Singles Energy            =      -0.0000000000000000 [Eh]
	 Same-Spin Energy          =      -0.5053603493993517 [Eh]
	 Opposite-Spin Energy      =      -1.5044495660929025 [Eh]
	 Correlation Energy        =      -2.0098099154922542 [Eh]
	 Total Energy              =    -495.3634597416182714 [Eh]

	 ================> DF-SCS-MP2 Energies <==================
	-----------------------------------------------------------
	 SCS Same-Spin Scale       =       0.3333333333333333 [-]
	 SCS Opposite-Spin Scale   =       1.2000000000000000 [-]
	 SCS Same-Spin Energy      =      -0.1684534497997839 [Eh]
	 SCS Opposite-Spin Energy  =      -1.8053394793114830 [Eh]
	 SCS Correlation Energy    =      -1.9737929291112668 [Eh]
	 SCS Total Energy          =    -495.3274427552372572 [Eh]
	-----------------------------------------------------------

  Dipole Moment: [D]
     X:     2.6522      Y:    -0.4696      Z:    -0.4309     Total:     2.7277

*** Psi4 exiting successfully. Buy a developer a beer!
