                               Psi4 1.3.2 release

  ==> Input File <==

--------------------------------------------------------------------------
#psi4
#
memory 32 gb

molecule  {
0 1
  O       -0.1027990     2.1661630    -0.1573240
  O       -2.2585870    -1.3354710    -0.3679860
  O       -2.3909180     0.7817600     0.4224630
  C       -0.2229310    -0.2124960     0.0158460
  C        0.5432600     0.9664360    -0.0570110
  C        0.4335280    -1.4494910     0.0925130
  C        1.9402870     0.8816050    -0.0559020
  C        1.8233140    -1.5265410     0.1016630
  C        2.5769102    -0.3508885     0.0800590
  C       -1.7066960    -0.1573290     0.0554370
  H       -0.1661180    -2.3524960     0.1439440
  H        2.5301710     1.7954230    -0.1182500
  H        2.3148760    -2.4929130     0.1687580
  H        3.6635200    -0.3964420     0.0343940
  H        0.5733460     2.8632860    -0.2381370
  H       -3.2241600    -1.2056690    -0.2641310
units angstrom
no_reorient  #important for SAPT in psi4, default
symmetry c1  #important for SAPT in psi4, default
}

set PROPERTIES_ORIGIN ["COM"]
properties('MP2/aug-cc-pvtz', properties = ['dipole'])
--------------------------------------------------------------------------

    Molecular point group: c1
  Charge       = 0
  Multiplicity = 1
  Basis Set: AUG-CC-PVTZ
    Blend: AUG-CC-PVTZ
  Basis Set: (AUG-CC-PVTZ AUX)
    Blend: AUG-CC-PVTZ-JKFIT

    Orbital Energies [Eh]
    ---------------------

    Doubly Occupied:

       1A    -20.609831     2A    -20.602635     3A    -20.542788
       4A    -11.389355     5A    -11.330946     6A    -11.265927
       7A    -11.262901     8A    -11.256673     9A    -11.250089
      10A    -11.242780    11A     -1.453622    12A     -1.415177
      13A     -1.348486    14A     -1.167342    15A     -1.054928
      16A     -1.022912    17A     -0.897756    18A     -0.861673
      19A     -0.801201    20A     -0.745778    21A     -0.708979
      22A     -0.697777    23A     -0.675771    24A     -0.644259
      25A     -0.625277    26A     -0.623538    27A     -0.595980
      28A     -0.588974    29A     -0.580205    30A     -0.536900
      31A     -0.523413    32A     -0.498515    33A     -0.476440
      34A     -0.446640    35A     -0.361774    36A     -0.331960

  @DF-RHF Final Energy:  -493.35291517170566

   => Energetics <=

    Nuclear Repulsion Energy =            498.9403845161803019
    One-Electron Energy =               -1663.7081960927371256
    Two-Electron Energy =                 671.4148964048511061
    Total Energy =                       -493.3529151717057175
  Basis Set: (AUG-CC-PVTZ AUX)
    Blend: AUG-CC-PVTZ-RI
    Molecular point group: c1

    Geometry (in Angstrom), charge = 0, multiplicity = 1:

       Center              X                  Y                   Z               Mass
    ------------   -----------------  -----------------  -----------------  -----------------
         O           -0.062051415631     2.153095207296    -0.163631750449    15.994914619570
         O           -2.217839415631    -1.348538792704    -0.374293750449    15.994914619570
         O           -2.350170415631     0.768692207296     0.416155249551    15.994914619570
         C           -0.182183415631    -0.225563792704     0.009538249551    12.000000000000
         C            0.584007584369     0.953368207296    -0.063318750449    12.000000000000
         C            0.474275584369    -1.462558792704     0.086205249551    12.000000000000
         C            1.981034584369     0.868537207296    -0.062209750449    12.000000000000
         C            1.864061584369    -1.539608792704     0.095355249551    12.000000000000
         C            2.617657784369    -0.363956292704     0.073751249551    12.000000000000
         C           -1.665948415631    -0.170396792704     0.049129249551    12.000000000000
         H           -0.125370415631    -2.365563792704     0.137636249551     1.007825032230
         H            2.570918584369     1.782355207296    -0.124557750449     1.007825032230
         H            2.355623584369    -2.505980792704     0.162450249551     1.007825032230
         H            3.704267584369    -0.409509792704     0.028086249551     1.007825032230
         H            0.614093584369     2.850218207296    -0.244444750449     1.007825032230
         H           -3.183412415631    -1.218736792704    -0.270438750449     1.007825032230

  Basis Set: AUG-CC-PVTZ
    Blend: AUG-CC-PVTZ
  Basis Set: (AUG-CC-PVTZ AUX)
    Blend: AUG-CC-PVTZ-JKFIT
	 Reference Energy          =    -493.3529151717056607 [Eh]
	 Singles Energy            =      -0.0000000000000000 [Eh]
	 Same-Spin Energy          =      -0.5054036716754743 [Eh]
	 Opposite-Spin Energy      =      -1.5045326224331796 [Eh]
	 Correlation Energy        =      -2.0099362941086540 [Eh]
	 Total Energy              =    -495.3628514658142876 [Eh]

	 ================> DF-SCS-MP2 Energies <==================
	-----------------------------------------------------------
	 SCS Same-Spin Scale       =       0.3333333333333333 [-]
	 SCS Opposite-Spin Scale   =       1.2000000000000000 [-]
	 SCS Same-Spin Energy      =      -0.1684678905584914 [Eh]
	 SCS Opposite-Spin Energy  =      -1.8054391469198154 [Eh]
	 SCS Correlation Energy    =      -1.9739070374783068 [Eh]
	 SCS Total Energy          =    -495.3268222091839448 [Eh]
	-----------------------------------------------------------

  Dipole Moment: [D]
     X:     2.6469      Y:    -0.4741      Z:    -0.4941     Total:     2.7340

*** Psi4 exiting successfully. Buy a developer a beer!
