                               Psi4 1.3.2 release

  ==> Input File <==

--------------------------------------------------------------------------
#psi4
#
memory 32 gb

molecule  {
0 1
  O       -0.1027990     2.1661630    -0.1573240
  O       -2.2585870    -1.3354710    -0.3679860
  O       -2.3909180     0.7817600     0.4224630
  C       -0.2252952    -0.1601682    -0.1247108
  C        0.5432600     0.9664360    -0.0570110
  C        0.4335280    -1.4494910     0.0925130
  C        1.9402870     0.8816050    -0.0559020
  C        1.8233140    -1.5265410     0.1016630
  C        2.5770400    -0.3539830     0.0301550
  C       -1.7066960    -0.1573290     0.0554370
  H       -0.1661180    -2.3524960     0.1439440
  H        2.5301710     1.7954230    -0.1182500
  H        2.3148760    -2.4929130     0.1687580
  H        3.6635200    -0.3964420     0.0343940
  H        0.5733460     2.8632860    -0.2381370
  H       -3.2241600    -1.2056690    -0.2641310
units angstrom
no_reorient  #important for SAPT in psi4, default
symmetry c1  #important for SAPT in psi4, default
}

set PROPERTIES_ORIGIN ["COM"]
properties('MP2/aug-cc-pvtz', properties = ['dipole'])
--------------------------------------------------------------------------

    Molecular point group: c1
  Charge       = 0
  Multiplicity = 1
  Basis Set: AUG-CC-PVTZ
    Blend: AUG-CC-PVTZ
  Basis Set: (AUG-CC-PVTZ AUX)
    Blend: AUG-CC-PVTZ-JKFIT

    Orbital Energies [Eh]
    ---------------------

    Doubly Occupied:

       1A    -20.609442     2A    -20.599922     3A    -20.541858
       4A    -11.389584     5A    -11.326017     6A    -11.269370
       7A    -11.267409     8A    -11.256262     9A    -11.251502
      10A    -11.243934    11A     -1.452967    12A     -1.414309
      13A     -1.347720    14A     -1.165863    15A     -1.052878
      16A     -1.024825    17A     -0.897010    18A     -0.864339
      19A     -0.796898    20A     -0.745721    21A     -0.706170
      22A     -0.697425    23A     -0.672964    24A     -0.648378
      25A     -0.624975    26A     -0.622801    27A     -0.595822
      28A     -0.588529    29A     -0.575471    30A     -0.535146
      31A     -0.526206    32A     -0.495716    33A     -0.475874
      34A     -0.444884    35A     -0.356857    36A     -0.337474

  @DF-RHF Final Energy:  -493.34349407208759

   => Energetics <=

    Nuclear Repulsion Energy =            498.8722000623822623
    One-Electron Energy =               -1663.5863417017069423
    Two-Electron Energy =                 671.3706475672371425
    Total Energy =                       -493.3434940720875375
  Basis Set: (AUG-CC-PVTZ AUX)
    Blend: AUG-CC-PVTZ-RI
    Molecular point group: c1

    Geometry (in Angstrom), charge = 0, multiplicity = 1:

       Center              X                  Y                   Z               Mass
    ------------   -----------------  -----------------  -----------------  -----------------
         O           -0.061857164592     2.148815033789    -0.147073744582    15.994914619570
         O           -2.217645164592    -1.352818966211    -0.357735744582    15.994914619570
         O           -2.349976164592     0.764412033789     0.432713255418    15.994914619570
         C           -0.184353364592    -0.177516166211    -0.114460544582    12.000000000000
         C            0.584201835408     0.949088033789    -0.046760744582    12.000000000000
         C            0.474469835408    -1.466838966211     0.102763255418    12.000000000000
         C            1.981228835408     0.864257033789    -0.045651744582    12.000000000000
         C            1.864255835408    -1.543888966211     0.111913255418    12.000000000000
         C            2.617981835408    -0.371330966211     0.040405255418    12.000000000000
         C           -1.665754164592    -0.174676966211     0.065687255418    12.000000000000
         H           -0.125176164592    -2.369843966211     0.154194255418     1.007825032230
         H            2.571112835408     1.778075033789    -0.107999744582     1.007825032230
         H            2.355817835408    -2.510260966211     0.179008255418     1.007825032230
         H            3.704461835408    -0.413789966211     0.044644255418     1.007825032230
         H            0.614287835408     2.845938033789    -0.227886744582     1.007825032230
         H           -3.183218164592    -1.223016966211    -0.253880744582     1.007825032230

  Basis Set: AUG-CC-PVTZ
    Blend: AUG-CC-PVTZ
  Basis Set: (AUG-CC-PVTZ AUX)
    Blend: AUG-CC-PVTZ-JKFIT
	 Reference Energy          =    -493.3434940720875943 [Eh]
	 Singles Energy            =      -0.0000000000000000 [Eh]
	 Same-Spin Energy          =      -0.5054591212855333 [Eh]
	 Opposite-Spin Energy      =      -1.5050669017067402 [Eh]
	 Correlation Energy        =      -2.0105260229922735 [Eh]
	 Total Energy              =    -495.3540200950798749 [Eh]

	 ================> DF-SCS-MP2 Energies <==================
	-----------------------------------------------------------
	 SCS Same-Spin Scale       =       0.3333333333333333 [-]
	 SCS Opposite-Spin Scale   =       1.2000000000000000 [-]
	 SCS Same-Spin Energy      =      -0.1684863737618444 [Eh]
	 SCS Opposite-Spin Energy  =      -1.8060802820480881 [Eh]
	 SCS Correlation Energy    =      -1.9745666558099326 [Eh]
	 SCS Total Energy          =    -495.3180607278975458 [Eh]
	-----------------------------------------------------------

  Dipole Moment: [D]
     X:     2.7369      Y:    -0.5077      Z:    -0.4454     Total:     2.8190

*** Psi4 exiting successfully. Buy a developer a beer!
