                               Psi4 1.3.2 release

  ==> Input File <==

--------------------------------------------------------------------------
#psi4
#
memory 32 gb

molecule  {
0 1
  O       -0.1027990     2.1661630    -0.1573240
  O       -2.2585870    -1.3354710    -0.3679860
  O       -2.3909180     0.7817600     0.4224630
  C       -0.2237191    -0.1950534    -0.0310063
  C        0.5432600     0.9664360    -0.0570110
  C        0.4335280    -1.4494910     0.0925130
  C        1.9402870     0.8816050    -0.0559020
  C        1.8233140    -1.5265410     0.1016630
  C        2.5770400    -0.3539830     0.0301550
  C       -1.7066960    -0.1573290     0.0554370
  H       -0.1661180    -2.3524960     0.1439440
  H        2.5301710     1.7954230    -0.1182500
  H        2.3148760    -2.4929130     0.1687580
  H        3.6635200    -0.3964420     0.0343940
  H        0.5733460     2.8632860    -0.2381370
  H       -3.2241600    -1.2056690    -0.2641310
units angstrom
no_reorient  #important for SAPT in psi4, default
symmetry c1  #important for SAPT in psi4, default
}

set PROPERTIES_ORIGIN ["COM"]
properties('MP2/aug-cc-pvtz', properties = ['dipole'])
--------------------------------------------------------------------------

    Molecular point group: c1
  Charge       = 0
  Multiplicity = 1
  Basis Set: AUG-CC-PVTZ
    Blend: AUG-CC-PVTZ
  Basis Set: (AUG-CC-PVTZ AUX)
    Blend: AUG-CC-PVTZ-JKFIT

    Orbital Energies [Eh]
    ---------------------

    Doubly Occupied:

       1A    -20.609702     2A    -20.601690     3A    -20.542414
       4A    -11.389288     5A    -11.329117     6A    -11.266115
       7A    -11.264989     8A    -11.256249     9A    -11.250448
      10A    -11.243053    11A     -1.453419    12A     -1.414832
      13A     -1.348212    14A     -1.166992    15A     -1.054292
      16A     -1.023847    17A     -0.897822    18A     -0.862799
      19A     -0.799912    20A     -0.745858    21A     -0.708146
      22A     -0.697700    23A     -0.674999    24A     -0.645626
      25A     -0.624735    26A     -0.624160    27A     -0.595859
      28A     -0.589199    29A     -0.578919    30A     -0.536398
      31A     -0.524919    32A     -0.497667    33A     -0.476314
      34A     -0.446283    35A     -0.359971    36A     -0.333980

  @DF-RHF Final Energy:  -493.35255374760152

   => Energetics <=

    Nuclear Repulsion Energy =            498.9951779476702995
    One-Electron Energy =               -1663.8236119543792029
    Two-Electron Energy =                 671.4758802591073845
    Total Energy =                       -493.3525537476015188
  Basis Set: (AUG-CC-PVTZ AUX)
    Blend: AUG-CC-PVTZ-RI
    Molecular point group: c1

    Geometry (in Angstrom), charge = 0, multiplicity = 1:

       Center              X                  Y                   Z               Mass
    ------------   -----------------  -----------------  -----------------  -----------------
         O           -0.061994185297     2.151847832907    -0.155220091026    15.994914619570
         O           -2.217782185297    -1.349786167093    -0.365882091026    15.994914619570
         O           -2.350113185297     0.767444832907     0.424566908974    15.994914619570
         C           -0.182914285297    -0.209368567093    -0.028902391026    12.000000000000
         C            0.584064814703     0.952120832907    -0.054907091026    12.000000000000
         C            0.474332814703    -1.463806167093     0.094616908974    12.000000000000
         C            1.981091814703     0.867289832907    -0.053798091026    12.000000000000
         C            1.864118814703    -1.540856167093     0.103766908974    12.000000000000
         C            2.617844814703    -0.368298167093     0.032258908974    12.000000000000
         C           -1.665891185297    -0.171644167093     0.057540908974    12.000000000000
         H           -0.125313185297    -2.366811167093     0.146047908974     1.007825032230
         H            2.570975814703     1.781107832907    -0.116146091026     1.007825032230
         H            2.355680814703    -2.507228167093     0.170861908974     1.007825032230
         H            3.704324814703    -0.410757167093     0.036497908974     1.007825032230
         H            0.614150814703     2.848970832907    -0.236033091026     1.007825032230
         H           -3.183355185297    -1.219984167093    -0.262027091026     1.007825032230

  Basis Set: AUG-CC-PVTZ
    Blend: AUG-CC-PVTZ
  Basis Set: (AUG-CC-PVTZ AUX)
    Blend: AUG-CC-PVTZ-JKFIT
	 Reference Energy          =    -493.3525537476015188 [Eh]
	 Singles Energy            =      -0.0000000000000000 [Eh]
	 Same-Spin Energy          =      -0.5053607554477485 [Eh]
	 Opposite-Spin Energy      =      -1.5044336506547737 [Eh]
	 Correlation Energy        =      -2.0097944061025221 [Eh]
	 Total Energy              =    -495.3623481537040334 [Eh]

	 ================> DF-SCS-MP2 Energies <==================
	-----------------------------------------------------------
	 SCS Same-Spin Scale       =       0.3333333333333333 [-]
	 SCS Opposite-Spin Scale   =       1.2000000000000000 [-]
	 SCS Same-Spin Energy      =      -0.1684535851492495 [Eh]
	 SCS Opposite-Spin Energy  =      -1.8053203807857283 [Eh]
	 SCS Correlation Energy    =      -1.9737739659349778 [Eh]
	 SCS Total Energy          =    -495.3263277135365001 [Eh]
	-----------------------------------------------------------

  Dipole Moment: [D]
     X:     2.6795      Y:    -0.4850      Z:    -0.4577     Total:     2.7612

*** Psi4 exiting successfully. Buy a developer a beer!
