                               Psi4 1.3.2 release

  ==> Input File <==

--------------------------------------------------------------------------
#psi4
#
memory 32 gb

molecule  {
0 1
  O       -0.1027990     2.1661630    -0.1573240
  O       -2.2585870    -1.3354710    -0.3679860
  O       -2.3909180     0.7817600     0.4224630
  C       -0.2229310    -0.2124960     0.0158460
  C        0.5432600     0.9664360    -0.0570110
  C        0.4335280    -1.4494910     0.0925130
  C        1.9402870     0.8816050    -0.0559020
  C        1.8233140    -1.5265410     0.1016630
  C        2.5767805    -0.3477940     0.1299630
  C       -1.7066960    -0.1573290     0.0554370
  H       -0.1661180    -2.3524960     0.1439440
  H        2.5301710     1.7954230    -0.1182500
  H        2.3148760    -2.4929130     0.1687580
  H        3.6635200    -0.3964420     0.0343940
  H        0.5733460     2.8632860    -0.2381370
  H       -3.2241600    -1.2056690    -0.2641310
units angstrom
no_reorient  #important for SAPT in psi4, default
symmetry c1  #important for SAPT in psi4, default
}

set PROPERTIES_ORIGIN ["COM"]
properties('MP2/aug-cc-pvtz', properties = ['dipole'])
--------------------------------------------------------------------------

    Molecular point group: c1
  Charge       = 0
  Multiplicity = 1
  Basis Set: AUG-CC-PVTZ
    Blend: AUG-CC-PVTZ
  Basis Set: (AUG-CC-PVTZ AUX)
    Blend: AUG-CC-PVTZ-JKFIT

    Orbital Energies [Eh]
    ---------------------

    Doubly Occupied:

       1A    -20.609942     2A    -20.602565     3A    -20.542972
       4A    -11.389507     5A    -11.330829     6A    -11.266642
       7A    -11.262835     8A    -11.257000     9A    -11.250700
      10A    -11.243410    11A     -1.453749    12A     -1.415141
      13A     -1.348628    14A     -1.167065    15A     -1.054585
      16A     -1.022810    17A     -0.897623    18A     -0.861435
      19A     -0.801142    20A     -0.745441    21A     -0.709052
      22A     -0.697734    23A     -0.674974    24A     -0.644179
      25A     -0.625257    26A     -0.623411    27A     -0.595754
      28A     -0.588846    29A     -0.580092    30A     -0.536402
      31A     -0.523126    32A     -0.498233    33A     -0.476399
      34A     -0.446753    35A     -0.361683    36A     -0.331750

  @DF-RHF Final Energy:  -493.35039060238881

   => Energetics <=

    Nuclear Repulsion Energy =            498.8548961335251875
    One-Electron Energy =               -1663.5352395425129544
    Two-Electron Energy =                 671.3299528065989534
    Total Energy =                       -493.3503906023887566
  Basis Set: (AUG-CC-PVTZ AUX)
    Blend: AUG-CC-PVTZ-RI
    Molecular point group: c1

    Geometry (in Angstrom), charge = 0, multiplicity = 1:

       Center              X                  Y                   Z               Mass
    ------------   -----------------  -----------------  -----------------  -----------------
         O           -0.062040139960     2.152826182126    -0.167970232304    15.994914619570
         O           -2.217828139960    -1.348807817874    -0.378632232304    15.994914619570
         O           -2.350159139960     0.768423182126     0.411816767696    15.994914619570
         C           -0.182172139960    -0.225832817874     0.005199767696    12.000000000000
         C            0.584018860040     0.953099182126    -0.067657232304    12.000000000000
         C            0.474286860040    -1.462827817874     0.081866767696    12.000000000000
         C            1.981045860040     0.868268182126    -0.066548232304    12.000000000000
         C            1.864072860040    -1.539877817874     0.091016767696    12.000000000000
         C            2.617539360040    -0.361130817874     0.119316767696    12.000000000000
         C           -1.665937139960    -0.170665817874     0.044790767696    12.000000000000
         H           -0.125359139960    -2.365832817874     0.133297767696     1.007825032230
         H            2.570929860040     1.782086182126    -0.128896232304     1.007825032230
         H            2.355634860040    -2.506249817874     0.158111767696     1.007825032230
         H            3.704278860040    -0.409778817874     0.023747767696     1.007825032230
         H            0.614104860040     2.849949182126    -0.248783232304     1.007825032230
         H           -3.183401139960    -1.219005817874    -0.274777232304     1.007825032230

  Basis Set: AUG-CC-PVTZ
    Blend: AUG-CC-PVTZ
  Basis Set: (AUG-CC-PVTZ AUX)
    Blend: AUG-CC-PVTZ-JKFIT
	 Reference Energy          =    -493.3503906023888135 [Eh]
	 Singles Energy            =      -0.0000000000000000 [Eh]
	 Same-Spin Energy          =      -0.5055600724588012 [Eh]
	 Opposite-Spin Energy      =      -1.5049399507408463 [Eh]
	 Correlation Energy        =      -2.0105000231996475 [Eh]
	 Total Energy              =    -495.3608906255884676 [Eh]

	 ================> DF-SCS-MP2 Energies <==================
	-----------------------------------------------------------
	 SCS Same-Spin Scale       =       0.3333333333333333 [-]
	 SCS Opposite-Spin Scale   =       1.2000000000000000 [-]
	 SCS Same-Spin Energy      =      -0.1685200241529337 [Eh]
	 SCS Opposite-Spin Energy  =      -1.8059279408890154 [Eh]
	 SCS Correlation Energy    =      -1.9744479650419491 [Eh]
	 SCS Total Energy          =    -495.3248385674307883 [Eh]
	-----------------------------------------------------------

  Dipole Moment: [D]
     X:     2.6259      Y:    -0.4764      Z:    -0.5264     Total:     2.7201

*** Psi4 exiting successfully. Buy a developer a beer!
