                               Psi4 1.3.2 release

  ==> Input File <==

--------------------------------------------------------------------------
#psi4
#
memory 32 gb

molecule  {
0 1
  O       -0.1027990     2.1661630    -0.1573240
  O       -2.2585870    -1.3354710    -0.3679860
  O       -2.3909180     0.7817600     0.4224630
  C       -0.2268713    -0.1252829    -0.2184153
  C        0.5432600     0.9664360    -0.0570110
  C        0.4335280    -1.4494910     0.0925130
  C        1.9402870     0.8816050    -0.0559020
  C        1.8233140    -1.5265410     0.1016630
  C        2.5770400    -0.3539830     0.0301550
  C       -1.7066960    -0.1573290     0.0554370
  H       -0.1661180    -2.3524960     0.1439440
  H        2.5301710     1.7954230    -0.1182500
  H        2.3148760    -2.4929130     0.1687580
  H        3.6635200    -0.3964420     0.0343940
  H        0.5733460     2.8632860    -0.2381370
  H       -3.2241600    -1.2056690    -0.2641310
units angstrom
no_reorient  #important for SAPT in psi4, default
symmetry c1  #important for SAPT in psi4, default
}

set PROPERTIES_ORIGIN ["COM"]
properties('MP2/aug-cc-pvtz', properties = ['dipole'])
--------------------------------------------------------------------------

    Molecular point group: c1
  Charge       = 0
  Multiplicity = 1
  Basis Set: AUG-CC-PVTZ
    Blend: AUG-CC-PVTZ
  Basis Set: (AUG-CC-PVTZ AUX)
    Blend: AUG-CC-PVTZ-JKFIT

    Orbital Energies [Eh]
    ---------------------

    Doubly Occupied:

       1A    -20.609087     2A    -20.598588     3A    -20.541420
       4A    -11.390303     5A    -11.324147     6A    -11.273745
       7A    -11.269225     8A    -11.257162     9A    -11.252414
      10A    -11.244661    11A     -1.452355    12A     -1.414205
      13A     -1.347201    14A     -1.164464    15A     -1.051669
      16A     -1.024688    17A     -0.895113    18A     -0.865127
      19A     -0.793622    20A     -0.745570    21A     -0.703909
      22A     -0.697059    23A     -0.671465    24A     -0.650565
      25A     -0.625071    26A     -0.620265    27A     -0.596491
      28A     -0.586592    29A     -0.571460    30A     -0.534634
      31A     -0.524640    32A     -0.493442    33A     -0.475359
      34A     -0.442396    35A     -0.355177    36A     -0.339746

  @DF-RHF Final Energy:  -493.32619881425387

   => Energetics <=

    Nuclear Repulsion Energy =            498.5234884179762389
    One-Electron Energy =               -1662.8932977425747595
    Two-Electron Energy =                 671.0436105103445925
    Total Energy =                       -493.3261988142538712
  Basis Set: (AUG-CC-PVTZ AUX)
    Blend: AUG-CC-PVTZ-RI
    Molecular point group: c1

    Geometry (in Angstrom), charge = 0, multiplicity = 1:

       Center              X                  Y                   Z               Mass
    ------------   -----------------  -----------------  -----------------  -----------------
         O           -0.061720143888     2.145782225977    -0.138927398138    15.994914619570
         O           -2.217508143888    -1.355851774023    -0.349589398138    15.994914619570
         O           -2.349839143888     0.761379225977     0.440859601862    15.994914619570
         C           -0.185792443888    -0.145663674023    -0.200018698138    12.000000000000
         C            0.584338856112     0.946055225977    -0.038614398138    12.000000000000
         C            0.474606856112    -1.469871774023     0.110909601862    12.000000000000
         C            1.981365856112     0.861224225977    -0.037505398138    12.000000000000
         C            1.864392856112    -1.546921774023     0.120059601862    12.000000000000
         C            2.618118856112    -0.374363774023     0.048551601862    12.000000000000
         C           -1.665617143888    -0.177709774023     0.073833601862    12.000000000000
         H           -0.125039143888    -2.372876774023     0.162340601862     1.007825032230
         H            2.571249856112     1.775042225977    -0.099853398138     1.007825032230
         H            2.355954856112    -2.513293774023     0.187154601862     1.007825032230
         H            3.704598856112    -0.416822774023     0.052790601862     1.007825032230
         H            0.614424856112     2.842905225977    -0.219740398138     1.007825032230
         H           -3.183081143888    -1.226049774023    -0.245734398138     1.007825032230

  Basis Set: AUG-CC-PVTZ
    Blend: AUG-CC-PVTZ
  Basis Set: (AUG-CC-PVTZ AUX)
    Blend: AUG-CC-PVTZ-JKFIT
	 Reference Energy          =    -493.3261988142538712 [Eh]
	 Singles Energy            =      -0.0000000000000000 [Eh]
	 Same-Spin Energy          =      -0.5057009578761754 [Eh]
	 Opposite-Spin Energy      =      -1.5065258120768779 [Eh]
	 Correlation Energy        =      -2.0122267699530534 [Eh]
	 Total Energy              =    -495.3384255842069024 [Eh]

	 ================> DF-SCS-MP2 Energies <==================
	-----------------------------------------------------------
	 SCS Same-Spin Scale       =       0.3333333333333333 [-]
	 SCS Opposite-Spin Scale   =       1.2000000000000000 [-]
	 SCS Same-Spin Energy      =      -0.1685669859587251 [Eh]
	 SCS Opposite-Spin Energy  =      -1.8078309744922534 [Eh]
	 SCS Correlation Energy    =      -1.9763979604509785 [Eh]
	 SCS Total Energy          =    -495.3025967747048526 [Eh]
	-----------------------------------------------------------

  Dipole Moment: [D]
     X:     2.8008      Y:    -0.5206      Z:    -0.4279     Total:     2.8807

*** Psi4 exiting successfully. Buy a developer a beer!
