                               Psi4 1.3.2 release

  ==> Input File <==

--------------------------------------------------------------------------
#psi4
#
memory 32 gb

molecule  {
0 1
  O       -0.1027990     2.1661630    -0.1573240
  O       -2.2585870    -1.3354710    -0.3679860
  O       -2.3909180     0.7817600     0.4224630
  C       -0.2229310    -0.2124960     0.0158460
  C        0.5432600     0.9664360    -0.0570110
  C        0.4335280    -1.4494910     0.0925130
  C        1.9402870     0.8816050    -0.0559020
  C        1.8233140    -1.5265410     0.1016630
  C        2.5770400    -0.3539830     0.0301550
  C       -1.7066960    -0.1573290     0.0554370
  H       -0.1661180    -2.3524960     0.1439440
  H        2.5304697     1.8057616     0.0313930
  H        2.3148760    -2.4929130     0.1687580
  H        3.6635200    -0.3964420     0.0343940
  H        0.5733460     2.8632860    -0.2381370
  H       -3.2241600    -1.2056690    -0.2641310
units angstrom
no_reorient  #important for SAPT in psi4, default
symmetry c1  #important for SAPT in psi4, default
}

set PROPERTIES_ORIGIN ["COM"]
properties('MP2/aug-cc-pvtz', properties = ['dipole'])
--------------------------------------------------------------------------

    Molecular point group: c1
  Charge       = 0
  Multiplicity = 1
  Basis Set: AUG-CC-PVTZ
    Blend: AUG-CC-PVTZ
  Basis Set: (AUG-CC-PVTZ AUX)
    Blend: AUG-CC-PVTZ-JKFIT

    Orbital Energies [Eh]
    ---------------------

    Doubly Occupied:

       1A    -20.609887     2A    -20.602767     3A    -20.542809
       4A    -11.389391     5A    -11.331324     6A    -11.265795
       7A    -11.263121     8A    -11.256649     9A    -11.250693
      10A    -11.242620    11A     -1.453669    12A     -1.415281
      13A     -1.348530    14A     -1.167531    15A     -1.054992
      16A     -1.022864    17A     -0.897908    18A     -0.861266
      19A     -0.801230    20A     -0.745687    21A     -0.708630
      22A     -0.697845    23A     -0.676173    24A     -0.643497
      25A     -0.626056    26A     -0.622338    27A     -0.596573
      28A     -0.588574    29A     -0.579916    30A     -0.537074
      31A     -0.523361    32A     -0.498599    33A     -0.476263
      34A     -0.446618    35A     -0.361792    36A     -0.332073

  @DF-RHF Final Energy:  -493.35245616814927

   => Energetics <=

    Nuclear Repulsion Energy =            498.9284634613788398
    One-Electron Energy =               -1663.6830450696384105
    Two-Electron Energy =                 671.4021254401102397
    Total Energy =                       -493.3524561681492742
  Basis Set: (AUG-CC-PVTZ AUX)
    Blend: AUG-CC-PVTZ-RI
    Molecular point group: c1

    Geometry (in Angstrom), charge = 0, multiplicity = 1:

       Center              X                  Y                   Z               Mass
    ------------   -----------------  -----------------  -----------------  -----------------
         O           -0.062064880925     2.153288746181    -0.160385872452    15.994914619570
         O           -2.217852880925    -1.348345253819    -0.371047872452    15.994914619570
         O           -2.350183880925     0.768885746181     0.419401127548    15.994914619570
         C           -0.182196880925    -0.225370253819     0.012784127548    12.000000000000
         C            0.583994119075     0.953561746181    -0.060072872452    12.000000000000
         C            0.474262119075    -1.462365253819     0.089451127548    12.000000000000
         C            1.981021119075     0.868730746181    -0.058963872452    12.000000000000
         C            1.864048119075    -1.539415253819     0.098601127548    12.000000000000
         C            2.617774119075    -0.366857253819     0.027093127548    12.000000000000
         C           -1.665961880925    -0.170203253819     0.052375127548    12.000000000000
         H           -0.125383880925    -2.365370253819     0.140882127548     1.007825032230
         H            2.571203819075     1.792887346181     0.028331127548     1.007825032230
         H            2.355610119075    -2.505787253819     0.165696127548     1.007825032230
         H            3.704254119075    -0.409316253819     0.031332127548     1.007825032230
         H            0.614080119075     2.850411746181    -0.241198872452     1.007825032230
         H           -3.183425880925    -1.218543253819    -0.267192872452     1.007825032230

  Basis Set: AUG-CC-PVTZ
    Blend: AUG-CC-PVTZ
  Basis Set: (AUG-CC-PVTZ AUX)
    Blend: AUG-CC-PVTZ-JKFIT
	 Reference Energy          =    -493.3524561681492742 [Eh]
	 Singles Energy            =      -0.0000000000000000 [Eh]
	 Same-Spin Energy          =      -0.5054153196853368 [Eh]
	 Opposite-Spin Energy      =      -1.5045867107670798 [Eh]
	 Correlation Energy        =      -2.0100020304524167 [Eh]
	 Total Energy              =    -495.3624581986017006 [Eh]

	 ================> DF-SCS-MP2 Energies <==================
	-----------------------------------------------------------
	 SCS Same-Spin Scale       =       0.3333333333333333 [-]
	 SCS Opposite-Spin Scale   =       1.2000000000000000 [-]
	 SCS Same-Spin Energy      =      -0.1684717732284456 [Eh]
	 SCS Opposite-Spin Energy  =      -1.8055040529204958 [Eh]
	 SCS Correlation Energy    =      -1.9739758261489413 [Eh]
	 SCS Total Energy          =    -495.3264319942982183 [Eh]
	-----------------------------------------------------------

  Dipole Moment: [D]
     X:     2.6403      Y:    -0.4786      Z:    -0.3631     Total:     2.7077

*** Psi4 exiting successfully. Buy a developer a beer!
