                               Psi4 1.3.2 release

  ==> Input File <==

--------------------------------------------------------------------------
#psi4
#
memory 32 gb

molecule  {
0 1
  O       -0.1027990     2.1661630    -0.1573240
  O       -2.2585870    -1.3354710    -0.3679860
  O       -2.3909180     0.7817600     0.4224630
  C       -0.2260832    -0.1427256    -0.1715630
  C        0.5432600     0.9664360    -0.0570110
  C        0.4335280    -1.4494910     0.0925130
  C        1.9402870     0.8816050    -0.0559020
  C        1.8233140    -1.5265410     0.1016630
  C        2.5770400    -0.3539830     0.0301550
  C       -1.7066960    -0.1573290     0.0554370
  H       -0.1661180    -2.3524960     0.1439440
  H        2.5301710     1.7954230    -0.1182500
  H        2.3148760    -2.4929130     0.1687580
  H        3.6635200    -0.3964420     0.0343940
  H        0.5733460     2.8632860    -0.2381370
  H       -3.2241600    -1.2056690    -0.2641310
units angstrom
no_reorient  #important for SAPT in psi4, default
symmetry c1  #important for SAPT in psi4, default
}

set PROPERTIES_ORIGIN ["COM"]
properties('MP2/aug-cc-pvtz', properties = ['dipole'])
--------------------------------------------------------------------------

    Molecular point group: c1
  Charge       = 0
  Multiplicity = 1
  Basis Set: AUG-CC-PVTZ
    Blend: AUG-CC-PVTZ
  Basis Set: (AUG-CC-PVTZ AUX)
    Blend: AUG-CC-PVTZ-JKFIT

    Orbital Energies [Eh]
    ---------------------

    Doubly Occupied:

       1A    -20.609277     2A    -20.599189     3A    -20.541623
       4A    -11.389895     5A    -11.324907     6A    -11.271581
       7A    -11.268252     8A    -11.256601     9A    -11.251976
      10A    -11.244319    11A     -1.452681    12A     -1.414196
      13A     -1.347463    14A     -1.165195    15A     -1.052251
      16A     -1.024892    17A     -0.896191    18A     -0.864831
      19A     -0.795274    20A     -0.745644    21A     -0.705068
      22A     -0.697253    23A     -0.672125    24A     -0.649558
      25A     -0.625085    26A     -0.621623    27A     -0.596105
      28A     -0.587679    29A     -0.573496    30A     -0.534766
      31A     -0.525837    32A     -0.494615    33A     -0.475626
      34A     -0.443789    35A     -0.355785    36A     -0.338820

  @DF-RHF Final Energy:  -493.33582297005728

   => Energetics <=

    Nuclear Repulsion Energy =            498.7257956668400425
    One-Electron Energy =               -1663.2963008976846595
    Two-Electron Energy =                 671.2346822607873946
    Total Energy =                       -493.3358229700572792
  Basis Set: (AUG-CC-PVTZ AUX)
    Blend: AUG-CC-PVTZ-RI
    Molecular point group: c1

    Geometry (in Angstrom), charge = 0, multiplicity = 1:

       Center              X                  Y                   Z               Mass
    ------------   -----------------  -----------------  -----------------  -----------------
         O           -0.061788658587     2.147298634230    -0.143000575707    15.994914619570
         O           -2.217576658587    -1.354335365770    -0.353662575707    15.994914619570
         O           -2.349907658587     0.762895634230     0.436786424293    15.994914619570
         C           -0.185072858587    -0.161589965770    -0.157239575707    12.000000000000
         C            0.584270341413     0.947571634230    -0.042687575707    12.000000000000
         C            0.474538341413    -1.468355365770     0.106836424293    12.000000000000
         C            1.981297341413     0.862740634230    -0.041578575707    12.000000000000
         C            1.864324341413    -1.545405365770     0.115986424293    12.000000000000
         C            2.618050341413    -0.372847365770     0.044478424293    12.000000000000
         C           -1.665685658587    -0.176193365770     0.069760424293    12.000000000000
         H           -0.125107658587    -2.371360365770     0.158267424293     1.007825032230
         H            2.571181341413     1.776558634230    -0.103926575707     1.007825032230
         H            2.355886341413    -2.511777365770     0.183081424293     1.007825032230
         H            3.704530341413    -0.415306365770     0.048717424293     1.007825032230
         H            0.614356341413     2.844421634230    -0.223813575707     1.007825032230
         H           -3.183149658587    -1.224533365770    -0.249807575707     1.007825032230

  Basis Set: AUG-CC-PVTZ
    Blend: AUG-CC-PVTZ
  Basis Set: (AUG-CC-PVTZ AUX)
    Blend: AUG-CC-PVTZ-JKFIT
	 Reference Energy          =    -493.3358229700572792 [Eh]
	 Singles Energy            =      -0.0000000000000000 [Eh]
	 Same-Spin Energy          =      -0.5055581645819242 [Eh]
	 Opposite-Spin Energy      =      -1.5056951867643673 [Eh]
	 Correlation Energy        =      -2.0112533513462916 [Eh]
	 Total Energy              =    -495.3470763214035628 [Eh]

	 ================> DF-SCS-MP2 Energies <==================
	-----------------------------------------------------------
	 SCS Same-Spin Scale       =       0.3333333333333333 [-]
	 SCS Opposite-Spin Scale   =       1.2000000000000000 [-]
	 SCS Same-Spin Energy      =      -0.1685193881939747 [Eh]
	 SCS Opposite-Spin Energy  =      -1.8068342241172406 [Eh]
	 SCS Correlation Energy    =      -1.9753536123112152 [Eh]
	 SCS Total Energy          =    -495.3111765823684891 [Eh]
	-----------------------------------------------------------

  Dipole Moment: [D]
     X:     2.7683      Y:    -0.5157      Z:    -0.4373     Total:     2.8497

*** Psi4 exiting successfully. Buy a developer a beer!
