                               Psi4 1.3.2 release

  ==> Input File <==

--------------------------------------------------------------------------
#psi4
#
memory 32 gb

molecule  {
0 1
  O       -0.1027990     2.1661630    -0.1573240
  O       -2.2585870    -1.3354710    -0.3679860
  O       -2.3909180     0.7817600     0.4224630
  C       -0.2229310    -0.2124960     0.0158460
  C        0.5432600     0.9664360    -0.0570110
  C        0.4335280    -1.4494910     0.0925130
  C        1.9397260     0.8925245     0.0936990
  C        1.8233140    -1.5265410     0.1016630
  C        2.5770400    -0.3539830     0.0301550
  C       -1.7066960    -0.1573290     0.0554370
  H       -0.1661180    -2.3524960     0.1439440
  H        2.5301710     1.7954230    -0.1182500
  H        2.3148760    -2.4929130     0.1687580
  H        3.6635200    -0.3964420     0.0343940
  H        0.5733460     2.8632860    -0.2381370
  H       -3.2241600    -1.2056690    -0.2641310
units angstrom
no_reorient  #important for SAPT in psi4, default
symmetry c1  #important for SAPT in psi4, default
}

set PROPERTIES_ORIGIN ["COM"]
properties('MP2/aug-cc-pvtz', properties = ['dipole'])
--------------------------------------------------------------------------

    Molecular point group: c1
  Charge       = 0
  Multiplicity = 1
  Basis Set: AUG-CC-PVTZ
    Blend: AUG-CC-PVTZ
  Basis Set: (AUG-CC-PVTZ AUX)
    Blend: AUG-CC-PVTZ-JKFIT

    Orbital Energies [Eh]
    ---------------------

    Doubly Occupied:

       1A    -20.609885     2A    -20.603201     3A    -20.542928
       4A    -11.389463     5A    -11.332612     6A    -11.267597
       7A    -11.264184     8A    -11.256441     9A    -11.251530
      10A    -11.242574    11A     -1.453713    12A     -1.415524
      13A     -1.348592    14A     -1.166868    15A     -1.054402
      16A     -1.022413    17A     -0.897274    18A     -0.861568
      19A     -0.800490    20A     -0.745357    21A     -0.708334
      22A     -0.697545    23A     -0.675693    24A     -0.644283
      25A     -0.624500    26A     -0.623071    27A     -0.596422
      28A     -0.588440    29A     -0.579702    30A     -0.536031
      31A     -0.522550    32A     -0.497153    33A     -0.476689
      34A     -0.446795    35A     -0.361659    36A     -0.332055

  @DF-RHF Final Energy:  -493.34760236478917

   => Energetics <=

    Nuclear Repulsion Energy =            498.7144651500721011
    One-Electron Energy =               -1663.2490627472491269
    Two-Electron Energy =                 671.1869952323878579
    Total Energy =                       -493.3476023647891680
  Basis Set: (AUG-CC-PVTZ AUX)
    Blend: AUG-CC-PVTZ-RI
    Molecular point group: c1

    Geometry (in Angstrom), charge = 0, multiplicity = 1:

       Center              X                  Y                   Z               Mass
    ------------   -----------------  -----------------  -----------------  -----------------
         O           -0.062013928589     2.152414928751    -0.172299064201    15.994914619570
         O           -2.217801928589    -1.349219071249    -0.382961064201    15.994914619570
         O           -2.350132928589     0.768011928751     0.407487935799    15.994914619570
         C           -0.182145928589    -0.226244071249     0.000870935799    12.000000000000
         C            0.584045071411     0.952687928751    -0.071986064201    12.000000000000
         C            0.474313071411    -1.463239071249     0.077537935799    12.000000000000
         C            1.980511071411     0.878776428751     0.078723935799    12.000000000000
         C            1.864099071411    -1.540289071249     0.086687935799    12.000000000000
         C            2.617825071411    -0.367731071249     0.015179935799    12.000000000000
         C           -1.665910928589    -0.171077071249     0.040461935799    12.000000000000
         H           -0.125332928589    -2.366244071249     0.128968935799     1.007825032230
         H            2.570956071411     1.781674928751    -0.133225064201     1.007825032230
         H            2.355661071411    -2.506661071249     0.153782935799     1.007825032230
         H            3.704305071411    -0.410190071249     0.019418935799     1.007825032230
         H            0.614131071411     2.849537928751    -0.253112064201     1.007825032230
         H           -3.183374928589    -1.219417071249    -0.279106064201     1.007825032230

  Basis Set: AUG-CC-PVTZ
    Blend: AUG-CC-PVTZ
  Basis Set: (AUG-CC-PVTZ AUX)
    Blend: AUG-CC-PVTZ-JKFIT
	 Reference Energy          =    -493.3476023647891680 [Eh]
	 Singles Energy            =      -0.0000000000000000 [Eh]
	 Same-Spin Energy          =      -0.5055908155330642 [Eh]
	 Opposite-Spin Energy      =      -1.5051797132997289 [Eh]
	 Correlation Energy        =      -2.0107705288327931 [Eh]
	 Total Energy              =    -495.3583728936219472 [Eh]

	 ================> DF-SCS-MP2 Energies <==================
	-----------------------------------------------------------
	 SCS Same-Spin Scale       =       0.3333333333333333 [-]
	 SCS Opposite-Spin Scale   =       1.2000000000000000 [-]
	 SCS Same-Spin Energy      =      -0.1685302718443547 [Eh]
	 SCS Opposite-Spin Energy  =      -1.8062156559596745 [Eh]
	 SCS Correlation Energy    =      -1.9747459278040291 [Eh]
	 SCS Total Energy          =    -495.3223482925931762 [Eh]
	-----------------------------------------------------------

  Dipole Moment: [D]
     X:     2.6131      Y:    -0.5110      Z:    -0.5558     Total:     2.7200

*** Psi4 exiting successfully. Buy a developer a beer!
