                               Psi4 1.3.2 release

  ==> Input File <==

--------------------------------------------------------------------------
#psi4
#
memory 32 gb

molecule  {
0 1
  O       -0.1027990     2.1661630    -0.1573240
  O       -2.2585870    -1.3354710    -0.3679860
  O       -2.3909180     0.7817600     0.4224630
  C       -0.2229310    -0.2124960     0.0158460
  C        0.5432600     0.9664360    -0.0570110
  C        0.4335280    -1.4494910     0.0925130
  C        1.9402870     0.8816050    -0.0559020
  C        1.8233140    -1.5265410     0.1016630
  C        2.5770400    -0.3539830     0.0301550
  C       -1.7066960    -0.1573290     0.0554370
  H       -0.1661180    -2.3524960     0.1439440
  H        2.5305692     1.8092077     0.0812740
  H        2.3148760    -2.4929130     0.1687580
  H        3.6635200    -0.3964420     0.0343940
  H        0.5733460     2.8632860    -0.2381370
  H       -3.2241600    -1.2056690    -0.2641310
units angstrom
no_reorient  #important for SAPT in psi4, default
symmetry c1  #important for SAPT in psi4, default
}

set PROPERTIES_ORIGIN ["COM"]
properties('MP2/aug-cc-pvtz', properties = ['dipole'])
--------------------------------------------------------------------------

    Molecular point group: c1
  Charge       = 0
  Multiplicity = 1
  Basis Set: AUG-CC-PVTZ
    Blend: AUG-CC-PVTZ
  Basis Set: (AUG-CC-PVTZ AUX)
    Blend: AUG-CC-PVTZ-JKFIT

    Orbital Energies [Eh]
    ---------------------

    Doubly Occupied:

       1A    -20.609945     2A    -20.602813     3A    -20.542862
       4A    -11.389447     5A    -11.331525     6A    -11.265931
       7A    -11.263305     8A    -11.256720     9A    -11.251335
      10A    -11.242683    11A     -1.453726    12A     -1.415317
      13A     -1.348586    14A     -1.167607    15A     -1.054954
      16A     -1.022806    17A     -0.897985    18A     -0.860911
      19A     -0.801238    20A     -0.745523    21A     -0.708351
      22A     -0.697866    23A     -0.676249    24A     -0.643218
      25A     -0.626165    26A     -0.621702    27A     -0.596701
      28A     -0.588423    29A     -0.579637    30A     -0.537108
      31A     -0.523182    32A     -0.498507    33A     -0.476181
      34A     -0.446642    35A     -0.361770    36A     -0.332122

  @DF-RHF Final Energy:  -493.35136441124763

   => Energetics <=

    Nuclear Repulsion Energy =            498.8964507892325742
    One-Electron Energy =               -1663.6175472635504775
    Two-Electron Energy =                 671.3697320630701597
    Total Energy =                       -493.3513644112476868
  Basis Set: (AUG-CC-PVTZ AUX)
    Blend: AUG-CC-PVTZ-RI
    Molecular point group: c1

    Geometry (in Angstrom), charge = 0, multiplicity = 1:

       Center              X                  Y                   Z               Mass
    ------------   -----------------  -----------------  -----------------  -----------------
         O           -0.062065607415     2.153263584816    -0.160750073737    15.994914619570
         O           -2.217853607415    -1.348370415184    -0.371412073737    15.994914619570
         O           -2.350184607415     0.768860584816     0.419036926263    15.994914619570
         C           -0.182197607415    -0.225395415184     0.012419926263    12.000000000000
         C            0.583993392585     0.953536584816    -0.060437073737    12.000000000000
         C            0.474261392585    -1.462390415184     0.089086926263    12.000000000000
         C            1.981020392585     0.868705584816    -0.059328073737    12.000000000000
         C            1.864047392585    -1.539440415184     0.098236926263    12.000000000000
         C            2.617773392585    -0.366882415184     0.026728926263    12.000000000000
         C           -1.665962607415    -0.170228415184     0.052010926263    12.000000000000
         H           -0.125384607415    -2.365395415184     0.140517926263     1.007825032230
         H            2.571302592585     1.796308284816     0.077847926263     1.007825032230
         H            2.355609392585    -2.505812415184     0.165331926263     1.007825032230
         H            3.704253392585    -0.409341415184     0.030967926263     1.007825032230
         H            0.614079392585     2.850386584816    -0.241563073737     1.007825032230
         H           -3.183426607415    -1.218568415184    -0.267557073737     1.007825032230

  Basis Set: AUG-CC-PVTZ
    Blend: AUG-CC-PVTZ
  Basis Set: (AUG-CC-PVTZ AUX)
    Blend: AUG-CC-PVTZ-JKFIT
	 Reference Energy          =    -493.3513644112476300 [Eh]
	 Singles Energy            =      -0.0000000000000000 [Eh]
	 Same-Spin Energy          =      -0.5054656630548013 [Eh]
	 Opposite-Spin Energy      =      -1.5047046986957067 [Eh]
	 Correlation Energy        =      -2.0101703617505082 [Eh]
	 Total Energy              =    -495.3615347729981409 [Eh]

	 ================> DF-SCS-MP2 Energies <==================
	-----------------------------------------------------------
	 SCS Same-Spin Scale       =       0.3333333333333333 [-]
	 SCS Opposite-Spin Scale   =       1.2000000000000000 [-]
	 SCS Same-Spin Energy      =      -0.1684885543516004 [Eh]
	 SCS Opposite-Spin Energy  =      -1.8056456384348478 [Eh]
	 SCS Correlation Energy    =      -1.9741341927864482 [Eh]
	 SCS Total Energy          =    -495.3254986040340668 [Eh]
	-----------------------------------------------------------

  Dipole Moment: [D]
     X:     2.6306      Y:    -0.4880      Z:    -0.3300     Total:     2.6958

*** Psi4 exiting successfully. Buy a developer a beer!
