                               Psi4 1.3.2 release

  ==> Input File <==

--------------------------------------------------------------------------
#psi4
#
memory 32 gb

molecule  {
0 1
  O       -0.1027990     2.1661630    -0.1573240
  O       -2.2585870    -1.3354710    -0.3679860
  O       -2.3909180     0.7817600     0.4224630
  C       -0.2229310    -0.2124960     0.0158460
  C        0.5432600     0.9664360    -0.0570110
  C        0.4335280    -1.4494910     0.0925130
  C        1.9402870     0.8816050    -0.0559020
  C        1.8233140    -1.5265410     0.1016630
  C        2.5770400    -0.3539830     0.0301550
  C       -1.7066960    -0.1573290     0.0554370
  H       -0.1661180    -2.3524960     0.1439440
  H        2.5301710     1.7954230    -0.1182500
  H        2.3161620    -2.5124691    -0.1306012
  H        3.6635200    -0.3964420     0.0343940
  H        0.5733460     2.8632860    -0.2381370
  H       -3.2241600    -1.2056690    -0.2641310
units angstrom
no_reorient  #important for SAPT in psi4, default
symmetry c1  #important for SAPT in psi4, default
}

set PROPERTIES_ORIGIN ["COM"]
properties('MP2/aug-cc-pvtz', properties = ['dipole'])
--------------------------------------------------------------------------

    Molecular point group: c1
  Charge       = 0
  Multiplicity = 1
  Basis Set: AUG-CC-PVTZ
    Blend: AUG-CC-PVTZ
  Basis Set: (AUG-CC-PVTZ AUX)
    Blend: AUG-CC-PVTZ-JKFIT

    Orbital Energies [Eh]
    ---------------------

    Doubly Occupied:

       1A    -20.610102     2A    -20.603373     3A    -20.543095
       4A    -11.389643     5A    -11.331838     6A    -11.266236
       7A    -11.263708     8A    -11.256920     9A    -11.250179
      10A    -11.245861    11A     -1.453910    12A     -1.415846
      13A     -1.348776    14A     -1.167720    15A     -1.055384
      16A     -1.022133    17A     -0.898166    18A     -0.861502
      19A     -0.799443    20A     -0.746411    21A     -0.706500
      22A     -0.697999    23A     -0.676389    24A     -0.642649
      25A     -0.625510    26A     -0.622340    27A     -0.597193
      28A     -0.588370    29A     -0.580464    30A     -0.535934
      31A     -0.523587    32A     -0.495942    33A     -0.475822
      34A     -0.446871    35A     -0.362226    36A     -0.331762

  @DF-RHF Final Energy:  -493.34776489579423

   => Energetics <=

    Nuclear Repulsion Energy =            498.8219245761521279
    One-Electron Energy =               -1663.4597675370507659
    Two-Electron Energy =                 671.2900780651042396
    Total Energy =                       -493.3477648957942847
  Basis Set: (AUG-CC-PVTZ AUX)
    Blend: AUG-CC-PVTZ-RI
    Molecular point group: c1

    Geometry (in Angstrom), charge = 0, multiplicity = 1:

       Center              X                  Y                   Z               Mass
    ------------   -----------------  -----------------  -----------------  -----------------
         O           -0.062072089601     2.153507019435    -0.157107526418    15.994914619570
         O           -2.217860089601    -1.348126980565    -0.367769526418    15.994914619570
         O           -2.350191089601     0.769104019435     0.422679473582    15.994914619570
         C           -0.182204089601    -0.225151980565     0.016062473582    12.000000000000
         C            0.583986910399     0.953780019435    -0.056794526418    12.000000000000
         C            0.474254910399    -1.462146980565     0.092729473582    12.000000000000
         C            1.981013910399     0.868949019435    -0.055685526418    12.000000000000
         C            1.864040910399    -1.539196980565     0.101879473582    12.000000000000
         C            2.617766910399    -0.366638980565     0.030371473582    12.000000000000
         C           -1.665969089601    -0.169984980565     0.055653473582    12.000000000000
         H           -0.125391089601    -2.365151980565     0.144160473582     1.007825032230
         H            2.570897910399     1.782767019435    -0.118033526418     1.007825032230
         H            2.356888910399    -2.525125080565    -0.130384726418     1.007825032230
         H            3.704246910399    -0.409097980565     0.034610473582     1.007825032230
         H            0.614072910399     2.850630019435    -0.237920526418     1.007825032230
         H           -3.183433089601    -1.218324980565    -0.263914526418     1.007825032230

  Basis Set: AUG-CC-PVTZ
    Blend: AUG-CC-PVTZ
  Basis Set: (AUG-CC-PVTZ AUX)
    Blend: AUG-CC-PVTZ-JKFIT
	 Reference Energy          =    -493.3477648957942279 [Eh]
	 Singles Energy            =      -0.0000000000000000 [Eh]
	 Same-Spin Energy          =      -0.5055744177329884 [Eh]
	 Opposite-Spin Energy      =      -1.5050969393336018 [Eh]
	 Correlation Energy        =      -2.0106713570665899 [Eh]
	 Total Energy              =    -495.3584362528608267 [Eh]

	 ================> DF-SCS-MP2 Energies <==================
	-----------------------------------------------------------
	 SCS Same-Spin Scale       =       0.3333333333333333 [-]
	 SCS Opposite-Spin Scale   =       1.2000000000000000 [-]
	 SCS Same-Spin Energy      =      -0.1685248059109961 [Eh]
	 SCS Opposite-Spin Energy  =      -1.8061163272003220 [Eh]
	 SCS Correlation Energy    =      -1.9746411331113181 [Eh]
	 SCS Total Energy          =    -495.3224060289055615 [Eh]
	-----------------------------------------------------------

  Dipole Moment: [D]
     X:     2.6049      Y:    -0.4173      Z:    -0.6577     Total:     2.7189

*** Psi4 exiting successfully. Buy a developer a beer!
