                               Psi4 1.3.2 release

  ==> Input File <==

--------------------------------------------------------------------------
#psi4
#
memory 32 gb

molecule  {
0 1
  O       -0.1027990     2.1661630    -0.1573240
  O       -2.2585870    -1.3354710    -0.3679860
  O       -2.3909180     0.7817600     0.4224630
  C       -0.2229310    -0.2124960     0.0158460
  C        0.5432600     0.9664360    -0.0570110
  C        0.4335280    -1.4494910     0.0925130
  C        1.9402870     0.8816050    -0.0559020
  C        1.8233140    -1.5265410     0.1016630
  C        2.5770400    -0.3539830     0.0301550
  C       -1.7066960    -0.1573290     0.0554370
  H       -0.1661180    -2.3524960     0.1439440
  H        2.5307684     1.8161001     0.1810360
  H        2.3148760    -2.4929130     0.1687580
  H        3.6635200    -0.3964420     0.0343940
  H        0.5733460     2.8632860    -0.2381370
  H       -3.2241600    -1.2056690    -0.2641310
units angstrom
no_reorient  #important for SAPT in psi4, default
symmetry c1  #important for SAPT in psi4, default
}

set PROPERTIES_ORIGIN ["COM"]
properties('MP2/aug-cc-pvtz', properties = ['dipole'])
--------------------------------------------------------------------------

    Molecular point group: c1
  Charge       = 0
  Multiplicity = 1
  Basis Set: AUG-CC-PVTZ
    Blend: AUG-CC-PVTZ
  Basis Set: (AUG-CC-PVTZ AUX)
    Blend: AUG-CC-PVTZ-JKFIT

    Orbital Energies [Eh]
    ---------------------

    Doubly Occupied:

       1A    -20.610105     2A    -20.602924     3A    -20.543008
       4A    -11.389602     5A    -11.332067     6A    -11.266344
       7A    -11.263838     8A    -11.256928     9A    -11.253133
      10A    -11.242877    11A     -1.453882    12A     -1.415404
      13A     -1.348737    14A     -1.167833    15A     -1.054876
      16A     -1.022667    17A     -0.898208    18A     -0.859993
      19A     -0.801275    20A     -0.745118    21A     -0.707618
      22A     -0.697912    23A     -0.676471    24A     -0.642681
      25A     -0.626274    26A     -0.620006    27A     -0.596981
      28A     -0.588148    29A     -0.578755    30A     -0.537228
      31A     -0.522594    32A     -0.498130    33A     -0.476003
      34A     -0.446721    35A     -0.361719    36A     -0.332271

  @DF-RHF Final Energy:  -493.34799337059741

   => Energetics <=

    Nuclear Repulsion Energy =            498.8080383550858414
    One-Electron Energy =               -1663.4354043811376869
    Two-Electron Energy =                 671.2793726554543809
    Total Energy =                       -493.3479933705973508
  Basis Set: (AUG-CC-PVTZ AUX)
    Blend: AUG-CC-PVTZ-RI
    Molecular point group: c1

    Geometry (in Angstrom), charge = 0, multiplicity = 1:

       Center              X                  Y                   Z               Mass
    ------------   -----------------  -----------------  -----------------  -----------------
         O           -0.062067061854     2.153213260625    -0.161478476308    15.994914619570
         O           -2.217855061854    -1.348420739375    -0.372140476308    15.994914619570
         O           -2.350186061854     0.768810260625     0.418308523692    15.994914619570
         C           -0.182199061854    -0.225445739375     0.011691523692    12.000000000000
         C            0.583991938146     0.953486260625    -0.061165476308    12.000000000000
         C            0.474259938146    -1.462440739375     0.088358523692    12.000000000000
         C            1.981018938146     0.868655260625    -0.060056476308    12.000000000000
         C            1.864045938146    -1.539490739375     0.097508523692    12.000000000000
         C            2.617771938146    -0.366932739375     0.026000523692    12.000000000000
         C           -1.665964061854    -0.170278739375     0.051282523692    12.000000000000
         H           -0.125386061854    -2.365445739375     0.139789523692     1.007825032230
         H            2.571500338146     1.803150360625     0.176881523692     1.007825032230
         H            2.355607938146    -2.505862739375     0.164603523692     1.007825032230
         H            3.704251938146    -0.409391739375     0.030239523692     1.007825032230
         H            0.614077938146     2.850336260625    -0.242291476308     1.007825032230
         H           -3.183428061854    -1.218618739375    -0.268285476308     1.007825032230

  Basis Set: AUG-CC-PVTZ
    Blend: AUG-CC-PVTZ
  Basis Set: (AUG-CC-PVTZ AUX)
    Blend: AUG-CC-PVTZ-JKFIT
	 Reference Energy          =    -493.3479933705974076 [Eh]
	 Singles Energy            =      -0.0000000000000000 [Eh]
	 Same-Spin Energy          =      -0.5056050217572157 [Eh]
	 Opposite-Spin Energy      =      -1.5050580385045660 [Eh]
	 Correlation Energy        =      -2.0106630602617814 [Eh]
	 Total Energy              =    -495.3586564308591846 [Eh]

	 ================> DF-SCS-MP2 Energies <==================
	-----------------------------------------------------------
	 SCS Same-Spin Scale       =       0.3333333333333333 [-]
	 SCS Opposite-Spin Scale   =       1.2000000000000000 [-]
	 SCS Same-Spin Energy      =      -0.1685350072524052 [Eh]
	 SCS Opposite-Spin Energy  =      -1.8060696462054791 [Eh]
	 SCS Correlation Energy    =      -1.9746046534578843 [Eh]
	 SCS Total Energy          =    -495.3225980240553099 [Eh]
	-----------------------------------------------------------

  Dipole Moment: [D]
     X:     2.6043      Y:    -0.5168      Z:    -0.2650     Total:     2.6683

*** Psi4 exiting successfully. Buy a developer a beer!
