                               Psi4 1.3.2 release

  ==> Input File <==

--------------------------------------------------------------------------
#psi4
#
memory 32 gb

molecule  {
0 1
  O       -0.1027990     2.1661630    -0.1573240
  O       -2.2585870    -1.3354710    -0.3679860
  O       -2.3909180     0.7817600     0.4224630
  C       -0.2229310    -0.2124960     0.0158460
  C        0.5432600     0.9664360    -0.0570110
  C        0.4335280    -1.4494910     0.0925130
  C        1.9391651     0.9034440     0.2432999
  C        1.8233140    -1.5265410     0.1016630
  C        2.5770400    -0.3539830     0.0301550
  C       -1.7066960    -0.1573290     0.0554370
  H       -0.1661180    -2.3524960     0.1439440
  H        2.5301710     1.7954230    -0.1182500
  H        2.3148760    -2.4929130     0.1687580
  H        3.6635200    -0.3964420     0.0343940
  H        0.5733460     2.8632860    -0.2381370
  H       -3.2241600    -1.2056690    -0.2641310
units angstrom
no_reorient  #important for SAPT in psi4, default
symmetry c1  #important for SAPT in psi4, default
}

set PROPERTIES_ORIGIN ["COM"]
properties('MP2/aug-cc-pvtz', properties = ['dipole'])
--------------------------------------------------------------------------

    Molecular point group: c1
  Charge       = 0
  Multiplicity = 1
  Basis Set: AUG-CC-PVTZ
    Blend: AUG-CC-PVTZ
  Basis Set: (AUG-CC-PVTZ AUX)
    Blend: AUG-CC-PVTZ-JKFIT

    Orbital Energies [Eh]
    ---------------------

    Doubly Occupied:

       1A    -20.610311     2A    -20.604991     3A    -20.543305
       4A    -11.389895     5A    -11.337868     6A    -11.272915
       7A    -11.267972     8A    -11.256461     9A    -11.256442
      10A    -11.242706    11A     -1.454166    12A     -1.416729
      13A     -1.349013    14A     -1.165507    15A     -1.052832
      16A     -1.020480    17A     -0.895960    18A     -0.861142
      19A     -0.798663    20A     -0.744356    21A     -0.706982
      22A     -0.696887    23A     -0.674613    24A     -0.644052
      25A     -0.625307    26A     -0.618928    27A     -0.598403
      28A     -0.585806    29A     -0.578057    30A     -0.533169
      31A     -0.519094    32A     -0.493759    33A     -0.476895
      34A     -0.447040    35A     -0.361658    36A     -0.332247

  @DF-RHF Final Energy:  -493.32822886875181

   => Energetics <=

    Nuclear Repulsion Energy =            497.9569931911897811
    One-Electron Energy =               -1661.7012252342840384
    Two-Electron Energy =                 670.4160031743423360
    Total Energy =                       -493.3282288687518076
  Basis Set: (AUG-CC-PVTZ AUX)
    Blend: AUG-CC-PVTZ-RI
    Molecular point group: c1

    Geometry (in Angstrom), charge = 0, multiplicity = 1:

       Center              X                  Y                   Z               Mass
    ------------   -----------------  -----------------  -----------------  -----------------
         O           -0.061965165875     2.151465625036    -0.185304851113    15.994914619570
         O           -2.217753165875    -1.350168374964    -0.395966851113    15.994914619570
         O           -2.350084165875     0.767062625036     0.394482148887    15.994914619570
         C           -0.182097165875    -0.227193374964    -0.012134851113    12.000000000000
         C            0.584093834125     0.951738625036    -0.084991851113    12.000000000000
         C            0.474361834125    -1.464188374964     0.064532148887    12.000000000000
         C            1.979998934125     0.888746625036     0.215319048887    12.000000000000
         C            1.864147834125    -1.541238374964     0.073682148887    12.000000000000
         C            2.617873834125    -0.368680374964     0.002174148887    12.000000000000
         C           -1.665862165875    -0.172026374964     0.027456148887    12.000000000000
         H           -0.125284165875    -2.367193374964     0.115963148887     1.007825032230
         H            2.571004834125     1.780725625036    -0.146230851113     1.007825032230
         H            2.355709834125    -2.507610374964     0.140777148887     1.007825032230
         H            3.704353834125    -0.411139374964     0.006413148887     1.007825032230
         H            0.614179834125     2.848588625036    -0.266117851113     1.007825032230
         H           -3.183326165875    -1.220366374964    -0.292111851113     1.007825032230

  Basis Set: AUG-CC-PVTZ
    Blend: AUG-CC-PVTZ
  Basis Set: (AUG-CC-PVTZ AUX)
    Blend: AUG-CC-PVTZ-JKFIT
	 Reference Energy          =    -493.3282288687518076 [Eh]
	 Singles Energy            =      -0.0000000000000000 [Eh]
	 Same-Spin Energy          =      -0.5062419094707238 [Eh]
	 Opposite-Spin Energy      =      -1.5076244188954515 [Eh]
	 Correlation Energy        =      -2.0138663283661753 [Eh]
	 Total Energy              =    -495.3420951971179989 [Eh]

	 ================> DF-SCS-MP2 Energies <==================
	-----------------------------------------------------------
	 SCS Same-Spin Scale       =       0.3333333333333333 [-]
	 SCS Opposite-Spin Scale   =       1.2000000000000000 [-]
	 SCS Same-Spin Energy      =      -0.1687473031569079 [Eh]
	 SCS Opposite-Spin Energy  =      -1.8091493026745418 [Eh]
	 SCS Correlation Energy    =      -1.9778966058314498 [Eh]
	 SCS Total Energy          =    -495.3061254745832684 [Eh]
	-----------------------------------------------------------

  Dipole Moment: [D]
     X:     2.4978      Y:    -0.6154      Z:    -0.6516     Total:     2.6537

*** Psi4 exiting successfully. Buy a developer a beer!
