                               Psi4 1.3.2 release

  ==> Input File <==

--------------------------------------------------------------------------
#psi4
#
memory 32 gb

molecule  {
0 1
  O       -0.1027990     2.1661630    -0.1573240
  O       -2.2585870    -1.3354710    -0.3679860
  O       -2.3909180     0.7817600     0.4224630
  C       -0.2229310    -0.2124960     0.0158460
  C        0.5432600     0.9664360    -0.0570110
  C        0.4335280    -1.4494910     0.0925130
  C        1.9402870     0.8816050    -0.0559020
  C        1.8233140    -1.5265410     0.1016630
  C        2.5766507    -0.3446995     0.1798669
  C       -1.7066960    -0.1573290     0.0554370
  H       -0.1661180    -2.3524960     0.1439440
  H        2.5301710     1.7954230    -0.1182500
  H        2.3148760    -2.4929130     0.1687580
  H        3.6635200    -0.3964420     0.0343940
  H        0.5733460     2.8632860    -0.2381370
  H       -3.2241600    -1.2056690    -0.2641310
units angstrom
no_reorient  #important for SAPT in psi4, default
symmetry c1  #important for SAPT in psi4, default
}

set PROPERTIES_ORIGIN ["COM"]
properties('MP2/aug-cc-pvtz', properties = ['dipole'])
--------------------------------------------------------------------------

    Molecular point group: c1
  Charge       = 0
  Multiplicity = 1
  Basis Set: AUG-CC-PVTZ
    Blend: AUG-CC-PVTZ
  Basis Set: (AUG-CC-PVTZ AUX)
    Blend: AUG-CC-PVTZ-JKFIT

    Orbital Energies [Eh]
    ---------------------

    Doubly Occupied:

       1A    -20.610137     2A    -20.602473     3A    -20.543279
       4A    -11.389766     5A    -11.330666     6A    -11.267799
       7A    -11.262732     8A    -11.257553     9A    -11.251697
      10A    -11.244453    11A     -1.453969    12A     -1.415099
      13A     -1.348868    14A     -1.166628    15A     -1.054035
      16A     -1.022656    17A     -0.897415    18A     -0.861063
      19A     -0.801062    20A     -0.744916    21A     -0.709202
      22A     -0.697691    23A     -0.673731    24A     -0.643925
      25A     -0.625272    26A     -0.623204    27A     -0.595585
      28A     -0.588565    29A     -0.579923    30A     -0.535557
      31A     -0.522688    32A     -0.497659    33A     -0.476375
      34A     -0.446956    35A     -0.361567    36A     -0.331399

  @DF-RHF Final Energy:  -493.34620672991684

   => Energetics <=

    Nuclear Repulsion Energy =            498.7156006883496389
    One-Electron Energy =               -1663.2524896610811993
    Two-Electron Energy =                 671.1906822428146597
    Total Energy =                       -493.3462067299168439
  Basis Set: (AUG-CC-PVTZ AUX)
    Blend: AUG-CC-PVTZ-RI
    Molecular point group: c1

    Geometry (in Angstrom), charge = 0, multiplicity = 1:

       Center              X                  Y                   Z               Mass
    ------------   -----------------  -----------------  -----------------  -----------------
         O           -0.062028855595     2.152557156956    -0.172308705465    15.994914619570
         O           -2.217816855595    -1.349076843044    -0.382970705465    15.994914619570
         O           -2.350147855595     0.768154156956     0.407478294535    15.994914619570
         C           -0.182160855595    -0.226101843044     0.000861294535    12.000000000000
         C            0.584030144405     0.952830156956    -0.071995705465    12.000000000000
         C            0.474298144405    -1.463096843044     0.077528294535    12.000000000000
         C            1.981057144405     0.867999156956    -0.070886705465    12.000000000000
         C            1.864084144405    -1.540146843044     0.086678294535    12.000000000000
         C            2.617420844405    -0.358305343044     0.164882194535    12.000000000000
         C           -1.665925855595    -0.170934843044     0.040452294535    12.000000000000
         H           -0.125347855595    -2.366101843044     0.128959294535     1.007825032230
         H            2.570941144405     1.781817156956    -0.133234705465     1.007825032230
         H            2.355646144405    -2.506518843044     0.153773294535     1.007825032230
         H            3.704290144405    -0.410047843044     0.019409294535     1.007825032230
         H            0.614116144405     2.849680156956    -0.253121705465     1.007825032230
         H           -3.183389855595    -1.219274843044    -0.279115705465     1.007825032230

  Basis Set: AUG-CC-PVTZ
    Blend: AUG-CC-PVTZ
  Basis Set: (AUG-CC-PVTZ AUX)
    Blend: AUG-CC-PVTZ-JKFIT
	 Reference Energy          =    -493.3462067299168439 [Eh]
	 Singles Energy            =      -0.0000000000000000 [Eh]
	 Same-Spin Energy          =      -0.5058170353468053 [Eh]
	 Opposite-Spin Energy      =      -1.5056578430582885 [Eh]
	 Correlation Energy        =      -2.0114748784050938 [Eh]
	 Total Energy              =    -495.3576816083219114 [Eh]

	 ================> DF-SCS-MP2 Energies <==================
	-----------------------------------------------------------
	 SCS Same-Spin Scale       =       0.3333333333333333 [-]
	 SCS Opposite-Spin Scale   =       1.2000000000000000 [-]
	 SCS Same-Spin Energy      =      -0.1686056784489351 [Eh]
	 SCS Opposite-Spin Energy  =      -1.8067894116699461 [Eh]
	 SCS Correlation Energy    =      -1.9753950901188813 [Eh]
	 SCS Total Energy          =    -495.3216018200357098 [Eh]
	-----------------------------------------------------------

  Dipole Moment: [D]
     X:     2.5913      Y:    -0.4786      Z:    -0.5600     Total:     2.6940

*** Psi4 exiting successfully. Buy a developer a beer!
