                               Psi4 1.3.2 release

  ==> Input File <==

--------------------------------------------------------------------------
#psi4
#
memory 32 gb

molecule  {
0 1
  O       -0.1027990     2.1661630    -0.1573240
  O       -2.2585870    -1.3354710    -0.3679860
  O       -2.3909180     0.7817600     0.4224630
  C       -0.2229310    -0.2124960     0.0158460
  C        0.5432600     0.9664360    -0.0570110
  C        0.4335280    -1.4494910     0.0925130
  C        1.9402870     0.8816050    -0.0559020
  C        1.8233140    -1.5265410     0.1016630
  C        2.5770400    -0.3539830     0.0301550
  C       -1.7066960    -0.1573290     0.0554370
  H       -0.1652297    -2.3674104    -0.1056091
  H        2.5301710     1.7954230    -0.1182500
  H        2.3148760    -2.4929130     0.1687580
  H        3.6635200    -0.3964420     0.0343940
  H        0.5733460     2.8632860    -0.2381370
  H       -3.2241600    -1.2056690    -0.2641310
units angstrom
no_reorient  #important for SAPT in psi4, default
symmetry c1  #important for SAPT in psi4, default
}

set PROPERTIES_ORIGIN ["COM"]
properties('MP2/aug-cc-pvtz', properties = ['dipole'])
--------------------------------------------------------------------------

    Molecular point group: c1
  Charge       = 0
  Multiplicity = 1
  Basis Set: AUG-CC-PVTZ
    Blend: AUG-CC-PVTZ
  Basis Set: (AUG-CC-PVTZ AUX)
    Blend: AUG-CC-PVTZ-JKFIT

    Orbital Energies [Eh]
    ---------------------

    Doubly Occupied:

       1A    -20.609677     2A    -20.602749     3A    -20.543040
       4A    -11.389531     5A    -11.331047     6A    -11.265715
       7A    -11.264843     8A    -11.256964     9A    -11.250275
      10A    -11.242923    11A     -1.453655    12A     -1.415294
      13A     -1.348606    14A     -1.167395    15A     -1.054906
      16A     -1.022517    17A     -0.897669    18A     -0.860521
      19A     -0.801328    20A     -0.743670    21A     -0.709186
      22A     -0.698111    23A     -0.675506    24A     -0.644025
      25A     -0.626599    26A     -0.620391    27A     -0.596567
      28A     -0.587065    29A     -0.580207    30A     -0.537090
      31A     -0.523819    32A     -0.494933    33A     -0.477121
      34A     -0.446599    35A     -0.361523    36A     -0.331928

  @DF-RHF Final Energy:  -493.34928172836823

   => Energetics <=

    Nuclear Repulsion Energy =            498.8758162302952996
    One-Electron Energy =               -1663.5842000752006697
    Two-Electron Energy =                 671.3591021165369739
    Total Energy =                       -493.3492817283682825
  Basis Set: (AUG-CC-PVTZ AUX)
    Blend: AUG-CC-PVTZ-RI
    Molecular point group: c1

    Geometry (in Angstrom), charge = 0, multiplicity = 1:

       Center              X                  Y                   Z               Mass
    ------------   -----------------  -----------------  -----------------  -----------------
         O           -0.062069185833     2.153473128512    -0.157471180829    15.994914619570
         O           -2.217857185833    -1.348160871488    -0.368133180829    15.994914619570
         O           -2.350188185833     0.769070128512     0.422315819171    15.994914619570
         C           -0.182201185833    -0.225185871488     0.015698819171    12.000000000000
         C            0.583989814167     0.953746128512    -0.057158180829    12.000000000000
         C            0.474257814167    -1.462180871488     0.092365819171    12.000000000000
         C            1.981016814167     0.868915128512    -0.056049180829    12.000000000000
         C            1.864043814167    -1.539230871488     0.101515819171    12.000000000000
         C            2.617769814167    -0.366672871488     0.030007819171    12.000000000000
         C           -1.665966185833    -0.170018871488     0.055289819171    12.000000000000
         H           -0.124499885833    -2.380100271488    -0.105756280829     1.007825032230
         H            2.570900814167     1.782733128512    -0.118397180829     1.007825032230
         H            2.355605814167    -2.505602871488     0.168610819171     1.007825032230
         H            3.704249814167    -0.409131871488     0.034246819171     1.007825032230
         H            0.614075814167     2.850596128512    -0.238284180829     1.007825032230
         H           -3.183430185833    -1.218358871488    -0.264278180829     1.007825032230

  Basis Set: AUG-CC-PVTZ
    Blend: AUG-CC-PVTZ
  Basis Set: (AUG-CC-PVTZ AUX)
    Blend: AUG-CC-PVTZ-JKFIT
	 Reference Energy          =    -493.3492817283682257 [Eh]
	 Singles Energy            =      -0.0000000000000000 [Eh]
	 Same-Spin Energy          =      -0.5056654642013942 [Eh]
	 Opposite-Spin Energy      =      -1.5050469656377428 [Eh]
	 Correlation Energy        =      -2.0107124298391370 [Eh]
	 Total Energy              =    -495.3599941582073711 [Eh]

	 ================> DF-SCS-MP2 Energies <==================
	-----------------------------------------------------------
	 SCS Same-Spin Scale       =       0.3333333333333333 [-]
	 SCS Opposite-Spin Scale   =       1.2000000000000000 [-]
	 SCS Same-Spin Energy      =      -0.1685551547337981 [Eh]
	 SCS Opposite-Spin Energy  =      -1.8060563587652911 [Eh]
	 SCS Correlation Energy    =      -1.9746115134990891 [Eh]
	 SCS Total Energy          =    -495.3238932418673244 [Eh]
	-----------------------------------------------------------

  Dipole Moment: [D]
     X:     2.6649      Y:    -0.4419      Z:    -0.6156     Total:     2.7705

*** Psi4 exiting successfully. Buy a developer a beer!
