                               Psi4 1.3.2 release

  ==> Input File <==

--------------------------------------------------------------------------
#psi4
#
memory 32 gb

molecule  {
0 1
  O       -0.1027990     2.1661630    -0.1573240
  O       -2.2585870    -1.3354710    -0.3679860
  O       -2.3909180     0.7817600     0.4224630
  C       -0.2229310    -0.2124960     0.0158460
  C        0.5432600     0.9664360    -0.0570110
  C        0.4335280    -1.4494910     0.0925130
  C        1.9402870     0.8816050    -0.0559020
  C        1.8233140    -1.5265410     0.1016630
  C        2.5770400    -0.3539830     0.0301550
  C       -1.7066960    -0.1573290     0.0554370
  H       -0.1661180    -2.3524960     0.1439440
  H        2.5302706     1.7988692    -0.0683690
  H        2.3148760    -2.4929130     0.1687580
  H        3.6635200    -0.3964420     0.0343940
  H        0.5733460     2.8632860    -0.2381370
  H       -3.2241600    -1.2056690    -0.2641310
units angstrom
no_reorient  #important for SAPT in psi4, default
symmetry c1  #important for SAPT in psi4, default
}

set PROPERTIES_ORIGIN ["COM"]
properties('MP2/aug-cc-pvtz', properties = ['dipole'])
--------------------------------------------------------------------------

    Molecular point group: c1
  Charge       = 0
  Multiplicity = 1
  Basis Set: AUG-CC-PVTZ
    Blend: AUG-CC-PVTZ
  Basis Set: (AUG-CC-PVTZ AUX)
    Blend: AUG-CC-PVTZ-JKFIT

    Orbital Energies [Eh]
    ---------------------

    Doubly Occupied:

       1A    -20.609815     2A    -20.602698     3A    -20.542739
       4A    -11.389321     5A    -11.331065     6A    -11.265664
       7A    -11.262928     8A    -11.256572     9A    -11.249957
      10A    -11.242564    11A     -1.453598    12A     -1.415224
      13A     -1.348457    14A     -1.167451    15A     -1.055050
      16A     -1.022937    17A     -0.897820    18A     -0.861701
      19A     -0.801227    20A     -0.745887    21A     -0.708948
      22A     -0.697814    23A     -0.676092    24A     -0.643979
      25A     -0.625649    26A     -0.623265    27A     -0.596340
      28A     -0.588854    29A     -0.580214    30A     -0.537057
      31A     -0.523545    32A     -0.498589    33A     -0.476424
      34A     -0.446604    35A     -0.361822    36A     -0.332024

  @DF-RHF Final Energy:  -493.35364739057121

   => Energetics <=

    Nuclear Repulsion Energy =            498.9660839299058352
    One-Electron Energy =               -1663.7596720763037865
    Two-Electron Energy =                 671.4399407558266830
    Total Energy =                       -493.3536473905712683
  Basis Set: (AUG-CC-PVTZ AUX)
    Blend: AUG-CC-PVTZ-RI
    Molecular point group: c1

    Geometry (in Angstrom), charge = 0, multiplicity = 1:

       Center              X                  Y                   Z               Mass
    ------------   -----------------  -----------------  -----------------  -----------------
         O           -0.062063427216     2.153339070371    -0.159657469880    15.994914619570
         O           -2.217851427216    -1.348294929629    -0.370319469880    15.994914619570
         O           -2.350182427216     0.768936070371     0.420129530120    15.994914619570
         C           -0.182195427216    -0.225319929629     0.013512530120    12.000000000000
         C            0.583995572784     0.953612070371    -0.059344469880    12.000000000000
         C            0.474263572784    -1.462314929629     0.090179530120    12.000000000000
         C            1.981022572784     0.868781070371    -0.058235469880    12.000000000000
         C            1.864049572784    -1.539364929629     0.099329530120    12.000000000000
         C            2.617775572784    -0.366806929629     0.027821530120    12.000000000000
         C           -1.665960427216    -0.170152929629     0.053103530120    12.000000000000
         H           -0.125382427216    -2.365319929629     0.141610530120     1.007825032230
         H            2.571006172784     1.786045270371    -0.070702469880     1.007825032230
         H            2.355611572784    -2.505736929629     0.166424530120     1.007825032230
         H            3.704255572784    -0.409265929629     0.032060530120     1.007825032230
         H            0.614081572784     2.850462070371    -0.240470469880     1.007825032230
         H           -3.183424427216    -1.218492929629    -0.266464469880     1.007825032230

  Basis Set: AUG-CC-PVTZ
    Blend: AUG-CC-PVTZ
  Basis Set: (AUG-CC-PVTZ AUX)
    Blend: AUG-CC-PVTZ-JKFIT
	 Reference Energy          =    -493.3536473905712114 [Eh]
	 Singles Energy            =      -0.0000000000000000 [Eh]
	 Same-Spin Energy          =      -0.5053568154029762 [Eh]
	 Opposite-Spin Energy      =      -1.5044545761107710 [Eh]
	 Correlation Energy        =      -2.0098113915137472 [Eh]
	 Total Energy              =    -495.3634587820849333 [Eh]

	 ================> DF-SCS-MP2 Energies <==================
	-----------------------------------------------------------
	 SCS Same-Spin Scale       =       0.3333333333333333 [-]
	 SCS Opposite-Spin Scale   =       1.2000000000000000 [-]
	 SCS Same-Spin Energy      =      -0.1684522718009920 [Eh]
	 SCS Opposite-Spin Energy  =      -1.8053454913329252 [Eh]
	 SCS Correlation Energy    =      -1.9737977631339172 [Eh]
	 SCS Total Energy          =    -495.3274451537051277 [Eh]
	-----------------------------------------------------------

  Dipole Moment: [D]
     X:     2.6522      Y:    -0.4703      Z:    -0.4294     Total:     2.7275

*** Psi4 exiting successfully. Buy a developer a beer!
