                               Psi4 1.3.2 release

  ==> Input File <==

--------------------------------------------------------------------------
#psi4
#
memory 32 gb

molecule  {
0 1
  O       -0.1027990     2.1661630    -0.1573240
  O       -2.2585870    -1.3354710    -0.3679860
  O       -2.3909180     0.7817600     0.4224630
  C       -0.2229310    -0.2124960     0.0158460
  C        0.5432600     0.9664360    -0.0570110
  C        0.4335280    -1.4494910     0.0925130
  C        1.9402870     0.8816050    -0.0559020
  C        1.8233140    -1.5265410     0.1016630
  C        2.5763912    -0.3385105     0.2796749
  C       -1.7066960    -0.1573290     0.0554370
  H       -0.1661180    -2.3524960     0.1439440
  H        2.5301710     1.7954230    -0.1182500
  H        2.3148760    -2.4929130     0.1687580
  H        3.6635200    -0.3964420     0.0343940
  H        0.5733460     2.8632860    -0.2381370
  H       -3.2241600    -1.2056690    -0.2641310
units angstrom
no_reorient  #important for SAPT in psi4, default
symmetry c1  #important for SAPT in psi4, default
}

set PROPERTIES_ORIGIN ["COM"]
properties('MP2/aug-cc-pvtz', properties = ['dipole'])
--------------------------------------------------------------------------

    Molecular point group: c1
  Charge       = 0
  Multiplicity = 1
  Basis Set: AUG-CC-PVTZ
    Blend: AUG-CC-PVTZ
  Basis Set: (AUG-CC-PVTZ AUX)
    Blend: AUG-CC-PVTZ-JKFIT

    Orbital Energies [Eh]
    ---------------------

    Doubly Occupied:

       1A    -20.610795     2A    -20.602243     3A    -20.544284
       4A    -11.390622     5A    -11.330228     6A    -11.271299
       7A    -11.262461     8A    -11.259346     9A    -11.254774
      10A    -11.247716    11A     -1.454700    12A     -1.415016
      13A     -1.349664    14A     -1.165329    15A     -1.052288
      16A     -1.022225    17A     -0.896779    18A     -0.859992
      19A     -0.800864    20A     -0.743425    21A     -0.709764
      22A     -0.697689    23A     -0.670171    24A     -0.642998
      25A     -0.625474    26A     -0.622471    27A     -0.595487
      28A     -0.587486    29A     -0.579484    30A     -0.532675
      31A     -0.521243    32A     -0.495750    33A     -0.476314
      34A     -0.447632    35A     -0.361328    36A     -0.330314

  @DF-RHF Final Energy:  -493.33274717565541

   => Energetics <=

    Nuclear Repulsion Energy =            498.2816378265783896
    One-Electron Energy =               -1662.3681092759270541
    Two-Electron Energy =                 670.7537242736932512
    Total Energy =                       -493.3327471756554132
  Basis Set: (AUG-CC-PVTZ AUX)
    Blend: AUG-CC-PVTZ-RI
    Molecular point group: c1

    Geometry (in Angstrom), charge = 0, multiplicity = 1:

       Center              X                  Y                   Z               Mass
    ------------   -----------------  -----------------  -----------------  -----------------
         O           -0.062006295559     2.152019106615    -0.180985669174    15.994914619570
         O           -2.217794295559    -1.349614893385    -0.391647669174    15.994914619570
         O           -2.350125295559     0.767616106615     0.398801330826    15.994914619570
         C           -0.182138295559    -0.226639893385    -0.007815669174    12.000000000000
         C            0.584052704441     0.952292106615    -0.080672669174    12.000000000000
         C            0.474320704441    -1.463634893385     0.068851330826    12.000000000000
         C            1.981079704441     0.867461106615    -0.079563669174    12.000000000000
         C            1.864106704441    -1.540684893385     0.078001330826    12.000000000000
         C            2.617183904441    -0.352654393385     0.256013230826    12.000000000000
         C           -1.665903295559    -0.171472893385     0.031775330826    12.000000000000
         H           -0.125325295559    -2.366639893385     0.120282330826     1.007825032230
         H            2.570963704441     1.781279106615    -0.141911669174     1.007825032230
         H            2.355668704441    -2.507056893385     0.145096330826     1.007825032230
         H            3.704312704441    -0.410585893385     0.010732330826     1.007825032230
         H            0.614138704441     2.849142106615    -0.261798669174     1.007825032230
         H           -3.183367295559    -1.219812893385    -0.287792669174     1.007825032230

  Basis Set: AUG-CC-PVTZ
    Blend: AUG-CC-PVTZ
  Basis Set: (AUG-CC-PVTZ AUX)
    Blend: AUG-CC-PVTZ-JKFIT
	 Reference Energy          =    -493.3327471756554132 [Eh]
	 Singles Energy            =      -0.0000000000000000 [Eh]
	 Same-Spin Energy          =      -0.5066212596048181 [Eh]
	 Opposite-Spin Energy      =      -1.5079446916789245 [Eh]
	 Correlation Energy        =      -2.0145659512837426 [Eh]
	 Total Energy              =    -495.3473131269391843 [Eh]

	 ================> DF-SCS-MP2 Energies <==================
	-----------------------------------------------------------
	 SCS Same-Spin Scale       =       0.3333333333333333 [-]
	 SCS Opposite-Spin Scale   =       1.2000000000000000 [-]
	 SCS Same-Spin Energy      =      -0.1688737532016060 [Eh]
	 SCS Opposite-Spin Energy  =      -1.8095336300147093 [Eh]
	 SCS Correlation Energy    =      -1.9784073832163154 [Eh]
	 SCS Total Energy          =    -495.3111545588717490 [Eh]
	-----------------------------------------------------------

  Dipole Moment: [D]
     X:     2.4822      Y:    -0.4828      Z:    -0.6329     Total:     2.6067

*** Psi4 exiting successfully. Buy a developer a beer!
