                               Psi4 1.3.2 release

  ==> Input File <==

--------------------------------------------------------------------------
#psi4
#
memory 32 gb

molecule  {
0 1
  O       -0.1027990     2.1661630    -0.1573240
  O       -2.2585870    -1.3354710    -0.3679860
  O       -2.3909180     0.7817600     0.4224630
  C       -0.2229310    -0.2124960     0.0158460
  C        0.5432600     0.9664360    -0.0570110
  C        0.4335280    -1.4494910     0.0925130
  C        1.9402870     0.8816050    -0.0559020
  C        1.8233140    -1.5265410     0.1016630
  C        2.5765210    -0.3416050     0.2297709
  C       -1.7066960    -0.1573290     0.0554370
  H       -0.1661180    -2.3524960     0.1439440
  H        2.5301710     1.7954230    -0.1182500
  H        2.3148760    -2.4929130     0.1687580
  H        3.6635200    -0.3964420     0.0343940
  H        0.5733460     2.8632860    -0.2381370
  H       -3.2241600    -1.2056690    -0.2641310
units angstrom
no_reorient  #important for SAPT in psi4, default
symmetry c1  #important for SAPT in psi4, default
}

set PROPERTIES_ORIGIN ["COM"]
properties('MP2/aug-cc-pvtz', properties = ['dipole'])
--------------------------------------------------------------------------

    Molecular point group: c1
  Charge       = 0
  Multiplicity = 1
  Basis Set: AUG-CC-PVTZ
    Blend: AUG-CC-PVTZ
  Basis Set: (AUG-CC-PVTZ AUX)
    Blend: AUG-CC-PVTZ-JKFIT

    Orbital Energies [Eh]
    ---------------------

    Doubly Occupied:

       1A    -20.610419     2A    -20.602364     3A    -20.543715
       4A    -11.390135     5A    -11.330463     6A    -11.269366
       7A    -11.262600     8A    -11.258335     9A    -11.253062
      10A    -11.245896    11A     -1.454284    12A     -1.415055
      13A     -1.349212    14A     -1.166043    15A     -1.053271
      16A     -1.022457    17A     -0.897133    18A     -0.860575
      19A     -0.800967    20A     -0.744232    21A     -0.709436
      22A     -0.697668    23A     -0.672101    24A     -0.643521
      25A     -0.625339    26A     -0.622897    27A     -0.595492
      28A     -0.588114    29A     -0.579713    30A     -0.534330
      31A     -0.522072    32A     -0.496819    33A     -0.476354
      34A     -0.447249    35A     -0.361441    36A     -0.330917

  @DF-RHF Final Energy:  -493.34033562276397

   => Energetics <=

    Nuclear Repulsion Energy =            498.5238884934922226
    One-Electron Energy =               -1662.8623514233231617
    Two-Electron Energy =                 670.9981273070669658
    Total Energy =                       -493.3403356227639733
  Basis Set: (AUG-CC-PVTZ AUX)
    Blend: AUG-CC-PVTZ-RI
    Molecular point group: c1

    Geometry (in Angstrom), charge = 0, multiplicity = 1:

       Center              X                  Y                   Z               Mass
    ------------   -----------------  -----------------  -----------------  -----------------
         O           -0.062017579924     2.152288131785    -0.176647187319    15.994914619570
         O           -2.217805579924    -1.349345868215    -0.387309187319    15.994914619570
         O           -2.350136579924     0.767885131785     0.403139812681    15.994914619570
         C           -0.182149579924    -0.226370868215    -0.003477187319    12.000000000000
         C            0.584041420076     0.952561131785    -0.076334187319    12.000000000000
         C            0.474309420076    -1.463365868215     0.073189812681    12.000000000000
         C            1.981068420076     0.867730131785    -0.075225187319    12.000000000000
         C            1.864095420076    -1.540415868215     0.082339812681    12.000000000000
         C            2.617302420076    -0.355479868215     0.210447712681    12.000000000000
         C           -1.665914579924    -0.171203868215     0.036113812681    12.000000000000
         H           -0.125336579924    -2.366370868215     0.124620812681     1.007825032230
         H            2.570952420076     1.781548131785    -0.137573187319     1.007825032230
         H            2.355657420076    -2.506787868215     0.149434812681     1.007825032230
         H            3.704301420076    -0.410316868215     0.015070812681     1.007825032230
         H            0.614127420076     2.849411131785    -0.257460187319     1.007825032230
         H           -3.183378579924    -1.219543868215    -0.283454187319     1.007825032230

  Basis Set: AUG-CC-PVTZ
    Blend: AUG-CC-PVTZ
  Basis Set: (AUG-CC-PVTZ AUX)
    Blend: AUG-CC-PVTZ-JKFIT
	 Reference Energy          =    -493.3403356227639733 [Eh]
	 Singles Energy            =      -0.0000000000000000 [Eh]
	 Same-Spin Energy          =      -0.5061719869604898 [Eh]
	 Opposite-Spin Energy      =      -1.5066647063041234 [Eh]
	 Correlation Energy        =      -2.0128366932646133 [Eh]
	 Total Energy              =    -495.3531723160285765 [Eh]

	 ================> DF-SCS-MP2 Energies <==================
	-----------------------------------------------------------
	 SCS Same-Spin Scale       =       0.3333333333333333 [-]
	 SCS Opposite-Spin Scale   =       1.2000000000000000 [-]
	 SCS Same-Spin Energy      =      -0.1687239956534966 [Eh]
	 SCS Opposite-Spin Energy  =      -1.8079976475649480 [Eh]
	 SCS Correlation Energy    =      -1.9767216432184447 [Eh]
	 SCS Total Energy          =    -495.3170572659824415 [Eh]
	-----------------------------------------------------------

  Dipole Moment: [D]
     X:     2.5434      Y:    -0.4807      Z:    -0.5954     Total:     2.6560

*** Psi4 exiting successfully. Buy a developer a beer!
