                               Psi4 1.3.2 release

  ==> Input File <==

--------------------------------------------------------------------------
#psi4
#
memory 32 gb

molecule  {
0 1
  O       -0.1027990     2.1661630    -0.1573240
  O       -2.2585870    -1.3354710    -0.3679860
  O       -2.3909180     0.7817600     0.4224630
  C       -0.2229310    -0.2124960     0.0158460
  C        0.5432600     0.9664360    -0.0570110
  C        0.4335280    -1.4494910     0.0925130
  C        1.9402870     0.8816050    -0.0559020
  C        1.8233140    -1.5265410     0.1016630
  C        2.5770400    -0.3539830     0.0301550
  C       -1.7066960    -0.1573290     0.0554370
  H       -0.1655850    -2.3614446    -0.0057879
  H        2.5301710     1.7954230    -0.1182500
  H        2.3148760    -2.4929130     0.1687580
  H        3.6635200    -0.3964420     0.0343940
  H        0.5733460     2.8632860    -0.2381370
  H       -3.2241600    -1.2056690    -0.2641310
units angstrom
no_reorient  #important for SAPT in psi4, default
symmetry c1  #important for SAPT in psi4, default
}

set PROPERTIES_ORIGIN ["COM"]
properties('MP2/aug-cc-pvtz', properties = ['dipole'])
--------------------------------------------------------------------------

    Molecular point group: c1
  Charge       = 0
  Multiplicity = 1
  Basis Set: AUG-CC-PVTZ
    Blend: AUG-CC-PVTZ
  Basis Set: (AUG-CC-PVTZ AUX)
    Blend: AUG-CC-PVTZ-JKFIT

    Orbital Energies [Eh]
    ---------------------

    Doubly Occupied:

       1A    -20.609789     2A    -20.602700     3A    -20.542920
       4A    -11.389459     5A    -11.330999     6A    -11.265662
       7A    -11.263513     8A    -11.256724     9A    -11.249999
      10A    -11.242667    11A     -1.453671    12A     -1.415235
      13A     -1.348568    14A     -1.167401    15A     -1.054991
      16A     -1.022757    17A     -0.897758    18A     -0.861283
      19A     -0.801272    20A     -0.745069    21A     -0.709088
      22A     -0.698013    23A     -0.675770    24A     -0.644047
      25A     -0.626366    26A     -0.622051    27A     -0.596441
      28A     -0.588133    29A     -0.580253    30A     -0.537044
      31A     -0.523797    32A     -0.496875    33A     -0.476938
      34A     -0.446632    35A     -0.361728    36A     -0.331956

  @DF-RHF Final Energy:  -493.35224241727150

   => Energetics <=

    Nuclear Repulsion Energy =            498.9423397578476624
    One-Electron Energy =               -1663.7140262214929862
    Two-Electron Energy =                 671.4194440463739966
    Total Energy =                       -493.3522424172714409
  Basis Set: (AUG-CC-PVTZ AUX)
    Blend: AUG-CC-PVTZ-RI
    Molecular point group: c1

    Geometry (in Angstrom), charge = 0, multiplicity = 1:

       Center              X                  Y                   Z               Mass
    ------------   -----------------  -----------------  -----------------  -----------------
         O           -0.062066591644     2.153429569802    -0.158200015643    15.994914619570
         O           -2.217854591644    -1.348204430198    -0.368862015643    15.994914619570
         O           -2.350185591644     0.769026569802     0.421586984357    15.994914619570
         C           -0.182198591644    -0.225229430198     0.014969984357    12.000000000000
         C            0.583992408356     0.953702569802    -0.057887015643    12.000000000000
         C            0.474260408356    -1.462224430198     0.091636984357    12.000000000000
         C            1.981019408356     0.868871569802    -0.056778015643    12.000000000000
         C            1.864046408356    -1.539274430198     0.100786984357    12.000000000000
         C            2.617772408356    -0.366716430198     0.029278984357    12.000000000000
         C           -1.665963591644    -0.170062430198     0.054560984357    12.000000000000
         H           -0.124852591644    -2.374178030198    -0.006663915643     1.007825032230
         H            2.570903408356     1.782689569802    -0.119126015643     1.007825032230
         H            2.355608408356    -2.505646430198     0.167881984357     1.007825032230
         H            3.704252408356    -0.409175430198     0.033517984357     1.007825032230
         H            0.614078408356     2.850552569802    -0.239013015643     1.007825032230
         H           -3.183427591644    -1.218402430198    -0.265007015643     1.007825032230

  Basis Set: AUG-CC-PVTZ
    Blend: AUG-CC-PVTZ
  Basis Set: (AUG-CC-PVTZ AUX)
    Blend: AUG-CC-PVTZ-JKFIT
	 Reference Energy          =    -493.3522424172714977 [Eh]
	 Singles Energy            =      -0.0000000000000000 [Eh]
	 Same-Spin Energy          =      -0.5054674325507047 [Eh]
	 Opposite-Spin Energy      =      -1.5046417647418919 [Eh]
	 Correlation Energy        =      -2.0101091972925964 [Eh]
	 Total Energy              =    -495.3623516145640906 [Eh]

	 ================> DF-SCS-MP2 Energies <==================
	-----------------------------------------------------------
	 SCS Same-Spin Scale       =       0.3333333333333333 [-]
	 SCS Opposite-Spin Scale   =       1.2000000000000000 [-]
	 SCS Same-Spin Energy      =      -0.1684891441835682 [Eh]
	 SCS Opposite-Spin Energy  =      -1.8055701176902703 [Eh]
	 SCS Correlation Energy    =      -1.9740592618738386 [Eh]
	 SCS Total Energy          =    -495.3263016791453310 [Eh]
	-----------------------------------------------------------

  Dipole Moment: [D]
     X:     2.6549      Y:    -0.4612      Z:    -0.5543     Total:     2.7511

*** Psi4 exiting successfully. Buy a developer a beer!
