                               Psi4 1.3.2 release

  ==> Input File <==

--------------------------------------------------------------------------
#psi4
#
memory 32 gb

molecule  {
0 1
  O       -0.1027990     2.1661630    -0.1573240
  O       -2.2585870    -1.3354710    -0.3679860
  O       -2.3909180     0.7817600     0.4224630
  C       -0.2229310    -0.2124960     0.0158460
  C        0.5432600     0.9664360    -0.0570110
  C        0.4335280    -1.4494910     0.0925130
  C        1.9399130     0.8888847     0.0438320
  C        1.8233140    -1.5265410     0.1016630
  C        2.5770400    -0.3539830     0.0301550
  C       -1.7066960    -0.1573290     0.0554370
  H       -0.1661180    -2.3524960     0.1439440
  H        2.5301710     1.7954230    -0.1182500
  H        2.3148760    -2.4929130     0.1687580
  H        3.6635200    -0.3964420     0.0343940
  H        0.5733460     2.8632860    -0.2381370
  H       -3.2241600    -1.2056690    -0.2641310
units angstrom
no_reorient  #important for SAPT in psi4, default
symmetry c1  #important for SAPT in psi4, default
}

set PROPERTIES_ORIGIN ["COM"]
properties('MP2/aug-cc-pvtz', properties = ['dipole'])
--------------------------------------------------------------------------

    Molecular point group: c1
  Charge       = 0
  Multiplicity = 1
  Basis Set: AUG-CC-PVTZ
    Blend: AUG-CC-PVTZ
  Basis Set: (AUG-CC-PVTZ AUX)
    Blend: AUG-CC-PVTZ-JKFIT

    Orbital Energies [Eh]
    ---------------------

    Doubly Occupied:

       1A    -20.609823     2A    -20.602886     3A    -20.542845
       4A    -11.389385     5A    -11.331646     6A    -11.266547
       7A    -11.263485     8A    -11.256477     9A    -11.250588
      10A    -11.242568    11A     -1.453638    12A     -1.415319
      13A     -1.348516    14A     -1.167165    15A     -1.054737
      16A     -1.022729    17A     -0.897565    18A     -0.861661
      19A     -0.800887    20A     -0.745635    21A     -0.708670
      22A     -0.697688    23A     -0.675893    24A     -0.644333
      25A     -0.624432    26A     -0.623841    27A     -0.596044
      28A     -0.588986    29A     -0.580003    30A     -0.536557
      31A     -0.523112    32A     -0.497814    33A     -0.476626
      34A     -0.446728    35A     -0.361716    36A     -0.332036

  @DF-RHF Final Energy:  -493.35109423237435

   => Energetics <=

    Nuclear Repulsion Energy =            498.8576667155562632
    One-Electron Energy =               -1663.5403530701369164
    Two-Electron Energy =                 671.3315921222063025
    Total Energy =                       -493.3510942323744075
  Basis Set: (AUG-CC-PVTZ AUX)
    Blend: AUG-CC-PVTZ-RI
    Molecular point group: c1

    Geometry (in Angstrom), charge = 0, multiplicity = 1:

       Center              X                  Y                   Z               Mass
    ------------   -----------------  -----------------  -----------------  -----------------
         O           -0.062030185725     2.152731360425    -0.167963798999    15.994914619570
         O           -2.217818185725    -1.348902639575    -0.378625798999    15.994914619570
         O           -2.350149185725     0.768328360425     0.411823201001    15.994914619570
         C           -0.182162185725    -0.225927639575     0.005206201001    12.000000000000
         C            0.584028814275     0.953004360425    -0.067650798999    12.000000000000
         C            0.474296814275    -1.462922639575     0.081873201001    12.000000000000
         C            1.980681814275     0.875453060425     0.033192201001    12.000000000000
         C            1.864082814275    -1.539972639575     0.091023201001    12.000000000000
         C            2.617808814275    -0.367414639575     0.019515201001    12.000000000000
         C           -1.665927185725    -0.170760639575     0.044797201001    12.000000000000
         H           -0.125349185725    -2.365927639575     0.133304201001     1.007825032230
         H            2.570939814275     1.781991360425    -0.128889798999     1.007825032230
         H            2.355644814275    -2.506344639575     0.158118201001     1.007825032230
         H            3.704288814275    -0.409873639575     0.023754201001     1.007825032230
         H            0.614114814275     2.849854360425    -0.248776798999     1.007825032230
         H           -3.183391185725    -1.219100639575    -0.274770798999     1.007825032230

  Basis Set: AUG-CC-PVTZ
    Blend: AUG-CC-PVTZ
  Basis Set: (AUG-CC-PVTZ AUX)
    Blend: AUG-CC-PVTZ-JKFIT
	 Reference Energy          =    -493.3510942323743507 [Eh]
	 Singles Energy            =      -0.0000000000000000 [Eh]
	 Same-Spin Energy          =      -0.5054606439487279 [Eh]
	 Opposite-Spin Energy      =      -1.5047457969787223 [Eh]
	 Correlation Energy        =      -2.0102064409274503 [Eh]
	 Total Energy              =    -495.3613006733017983 [Eh]

	 ================> DF-SCS-MP2 Energies <==================
	-----------------------------------------------------------
	 SCS Same-Spin Scale       =       0.3333333333333333 [-]
	 SCS Opposite-Spin Scale   =       1.2000000000000000 [-]
	 SCS Same-Spin Energy      =      -0.1684868813162426 [Eh]
	 SCS Opposite-Spin Energy  =      -1.8056949563744666 [Eh]
	 SCS Correlation Energy    =      -1.9741818376907092 [Eh]
	 SCS Total Energy          =    -495.3252760700650583 [Eh]
	-----------------------------------------------------------

  Dipole Moment: [D]
     X:     2.6352      Y:    -0.4904      Z:    -0.5247     Total:     2.7313

*** Psi4 exiting successfully. Buy a developer a beer!
