                               Psi4 1.3.2 release

  ==> Input File <==

--------------------------------------------------------------------------
#psi4
#
memory 32 gb

molecule  {
0 1
  O       -0.1027990     2.1661630    -0.1573240
  O       -2.2585870    -1.3354710    -0.3679860
  O       -2.3909180     0.7817600     0.4224630
  C       -0.2276594    -0.1078403    -0.2652676
  C        0.5432600     0.9664360    -0.0570110
  C        0.4335280    -1.4494910     0.0925130
  C        1.9402870     0.8816050    -0.0559020
  C        1.8233140    -1.5265410     0.1016630
  C        2.5770400    -0.3539830     0.0301550
  C       -1.7066960    -0.1573290     0.0554370
  H       -0.1661180    -2.3524960     0.1439440
  H        2.5301710     1.7954230    -0.1182500
  H        2.3148760    -2.4929130     0.1687580
  H        3.6635200    -0.3964420     0.0343940
  H        0.5733460     2.8632860    -0.2381370
  H       -3.2241600    -1.2056690    -0.2641310
units angstrom
no_reorient  #important for SAPT in psi4, default
symmetry c1  #important for SAPT in psi4, default
}

set PROPERTIES_ORIGIN ["COM"]
properties('MP2/aug-cc-pvtz', properties = ['dipole'])
--------------------------------------------------------------------------

    Molecular point group: c1
  Charge       = 0
  Multiplicity = 1
  Basis Set: AUG-CC-PVTZ
    Blend: AUG-CC-PVTZ
  Basis Set: (AUG-CC-PVTZ AUX)
    Blend: AUG-CC-PVTZ-JKFIT

    Orbital Energies [Eh]
    ---------------------

    Doubly Occupied:

       1A    -20.608869     2A    -20.598141     3A    -20.541252
       4A    -11.390797     5A    -11.323775     6A    -11.275819
       7A    -11.270330     8A    -11.257943     9A    -11.252820
      10A    -11.244959    11A     -1.451989    12A     -1.414351
      13A     -1.346935    14A     -1.163676    15A     -1.051113
      16A     -1.024236    17A     -0.893808    18A     -0.865216
      19A     -0.791974    20A     -0.745507    21A     -0.702706
      22A     -0.696840    23A     -0.671010    24A     -0.651386
      25A     -0.624949    26A     -0.618752    27A     -0.596929
      28A     -0.585330    29A     -0.569455    30A     -0.534678
      31A     -0.522652    32A     -0.492200    33A     -0.475070
      34A     -0.440663    35A     -0.355104    36A     -0.340178

  @DF-RHF Final Energy:  -493.31475614319413

   => Energetics <=

    Nuclear Repulsion Energy =            498.2660774356575644
    One-Electron Energy =               -1662.3788428908096648
    Two-Electron Energy =                 670.7980093119580260
    Total Energy =                       -493.3147561431941313
  Basis Set: (AUG-CC-PVTZ AUX)
    Blend: AUG-CC-PVTZ-RI
    Molecular point group: c1

    Geometry (in Angstrom), charge = 0, multiplicity = 1:

       Center              X                  Y                   Z               Mass
    ------------   -----------------  -----------------  -----------------  -----------------
         O           -0.061651629188     2.144265826418    -0.134854220569    15.994914619570
         O           -2.217439629188    -1.357368173582    -0.345516220569    15.994914619570
         O           -2.349770629188     0.759862826418     0.444932779431    15.994914619570
         C           -0.186512029188    -0.129737473582    -0.242797820569    12.000000000000
         C            0.584407370812     0.944538826418    -0.034541220569    12.000000000000
         C            0.474675370812    -1.471388173582     0.114982779431    12.000000000000
         C            1.981434370812     0.859707826418    -0.033432220569    12.000000000000
         C            1.864461370812    -1.548438173582     0.124132779431    12.000000000000
         C            2.618187370812    -0.375880173582     0.052624779431    12.000000000000
         C           -1.665548629188    -0.179226173582     0.077906779431    12.000000000000
         H           -0.124970629188    -2.374393173582     0.166413779431     1.007825032230
         H            2.571318370812     1.773525826418    -0.095780220569     1.007825032230
         H            2.356023370812    -2.514810173582     0.191227779431     1.007825032230
         H            3.704667370812    -0.418339173582     0.056863779431     1.007825032230
         H            0.614493370812     2.841388826418    -0.215667220569     1.007825032230
         H           -3.183012629188    -1.227566173582    -0.241661220569     1.007825032230

  Basis Set: AUG-CC-PVTZ
    Blend: AUG-CC-PVTZ
  Basis Set: (AUG-CC-PVTZ AUX)
    Blend: AUG-CC-PVTZ-JKFIT
	 Reference Energy          =    -493.3147561431941313 [Eh]
	 Singles Energy            =      -0.0000000000000000 [Eh]
	 Same-Spin Energy          =      -0.5058950845637904 [Eh]
	 Opposite-Spin Energy      =      -1.5075660621226659 [Eh]
	 Correlation Energy        =      -2.0134611466864563 [Eh]
	 Total Energy              =    -495.3282172898805698 [Eh]

	 ================> DF-SCS-MP2 Energies <==================
	-----------------------------------------------------------
	 SCS Same-Spin Scale       =       0.3333333333333333 [-]
	 SCS Opposite-Spin Scale   =       1.2000000000000000 [-]
	 SCS Same-Spin Energy      =      -0.1686316948545968 [Eh]
	 SCS Opposite-Spin Energy  =      -1.8090792745471989 [Eh]
	 SCS Correlation Energy    =      -1.9777109694017956 [Eh]
	 SCS Total Energy          =    -495.2924671125959435 [Eh]
	-----------------------------------------------------------

  Dipole Moment: [D]
     X:     2.8341      Y:    -0.5219      Z:    -0.4169     Total:     2.9118

*** Psi4 exiting successfully. Buy a developer a beer!
