                               Psi4 1.4a3.dev225

  ==> Input File <==

--------------------------------------------------------------------------
#psi4
#
memory 32 gb

molecule  {
0 1
  F       -0.0963580     2.2498010    -0.0002150
  O        1.7683730     0.3991100    -0.0000070
  C        0.4770520    -0.0443510     0.0000100
  C       -0.4352950     0.8879409    -0.0000959
  C        0.0593170    -1.3782210     0.0001240
  C       -1.8569270     0.6655340    -0.0001050
  C       -1.3077240    -1.6845900     0.0001240
  C       -2.2644630    -0.6734790     0.0000110
  C        2.7793550    -0.6059020     0.0001420
  H        0.7856920    -2.1838160     0.0002110
  H       -2.5691860     1.4853780    -0.0001950
  H       -1.6154480    -2.7269510     0.0002140
  H       -3.3233590    -0.9156310     0.0000120
  H        2.7155550    -1.2340820    -0.8948950
  H        2.7154750    -1.2338950     0.8953060
  H        3.7232780    -0.0625150     0.0001270
units angstrom
no_reorient  #important for SAPT in psi4, default
symmetry c1  #important for SAPT in psi4, default
}

set PROPERTIES_ORIGIN ["COM"]
properties('MP2/aug-cc-pvtz', properties = ['dipole'])
--------------------------------------------------------------------------

    Molecular point group: c1
  Charge       = 0
  Multiplicity = 1
  Basis Set: AUG-CC-PVTZ
    Blend: AUG-CC-PVTZ
  Basis Set: (AUG-CC-PVTZ AUX)
    Blend: AUG-CC-PVTZ-JKFIT

    Orbital Energies [Eh]
    ---------------------

    Doubly Occupied:

       1A    -26.287888     2A    -20.592251     3A    -11.317228
       4A    -11.301970     5A    -11.290810     6A    -11.258153
       7A    -11.252402     8A    -11.250129     9A    -11.245373
      10A     -1.587274    11A     -1.415722    12A     -1.166717
      13A     -1.044988    14A     -1.021047    15A     -0.950042
      16A     -0.857046    17A     -0.825068    18A     -0.739615
      19A     -0.704556    20A     -0.694458    21A     -0.677146
      22A     -0.650489    23A     -0.648310    24A     -0.620862
      25A     -0.617549    26A     -0.582948    27A     -0.548077
      28A     -0.535982    29A     -0.523408    30A     -0.504862
      31A     -0.477909    32A     -0.342143    33A     -0.336982

  @DF-RHF Final Energy:  -443.57431039650419

   => Energetics <=

    Nuclear Repulsion Energy =            431.5798213461205250
    One-Electron Energy =               -1462.5694531137676222
    Two-Electron Energy =                 587.4153213711429089
    Total Energy =                       -443.5743103965041882
  Basis Set: (AUG-CC-PVTZ AUX)
    Blend: AUG-CC-PVTZ-RI
    Molecular point group: c1

    Geometry (in Angstrom), charge = 0, multiplicity = 1:

       Center              X                  Y                   Z               Mass
    ------------   -----------------  -----------------  -----------------  -----------------
         F           -0.083038834210     2.184712686412    -0.000207944617    18.998403162730
         O            1.781692165790     0.334021686412     0.000000055383    15.994914619570
         C            0.490371165790    -0.109439313588     0.000017055383    12.000000000000
         C           -0.421975834210     0.822852586412    -0.000088844617    12.000000000000
         C            0.072636165790    -1.443309313588     0.000131055383    12.000000000000
         C           -1.843607834210     0.600445686412    -0.000097944617    12.000000000000
         C           -1.294404834210    -1.749678313588     0.000131055383    12.000000000000
         C           -2.251143834210    -0.738567313588     0.000018055383    12.000000000000
         C            2.792674165790    -0.670990313588     0.000149055383    12.000000000000
         H            0.799011165790    -2.248904313588     0.000218055383     1.007825032230
         H           -2.555866834210     1.420289686412    -0.000187944617     1.007825032230
         H           -1.602128834210    -2.792039313588     0.000221055383     1.007825032230
         H           -3.310039834210    -0.980719313588     0.000019055383     1.007825032230
         H            2.728874165790    -1.299170313588    -0.894887944617     1.007825032230
         H            2.728794165790    -1.298983313588     0.895313055383     1.007825032230
         H            3.736597165790    -0.127603313588     0.000134055383     1.007825032230

  Basis Set: AUG-CC-PVTZ
    Blend: AUG-CC-PVTZ
  Basis Set: (AUG-CC-PVTZ AUX)
    Blend: AUG-CC-PVTZ-JKFIT
	 Reference Energy          =    -443.5743103965041882 [Eh]
	 Singles Energy            =      -0.0000000000000000 [Eh]
	 Same-Spin Energy          =      -0.4388896406825153 [Eh]
	 Opposite-Spin Energy      =      -1.3508760739182379 [Eh]
	 Correlation Energy        =      -1.7897657146007533 [Eh]
	 Total Energy              =    -445.3640761111049642 [Eh]

	 ================> DF-SCS-MP2 Energies <==================
	-----------------------------------------------------------
	 SCS Same-Spin Scale       =       0.3333333333333333 [-]
	 SCS Opposite-Spin Scale   =       1.2000000000000000 [-]
	 SCS Same-Spin Energy      =      -0.1462965468941718 [Eh]
	 SCS Opposite-Spin Energy  =      -1.6210512887018855 [Eh]
	 SCS Correlation Energy    =      -1.7673478355960572 [Eh]
	 SCS Total Energy          =    -445.3416582321002579 [Eh]
	-----------------------------------------------------------

  Dipole Moment: [D]
     X:     0.3453      Y:    -2.8599      Z:     0.0003     Total:     2.8807

*** Psi4 exiting successfully. Buy a developer a beer!
