                               Psi4 1.4a3.dev225

  ==> Input File <==

--------------------------------------------------------------------------
#psi4
#
memory 32 gb

molecule  {
0 1
  F       -0.0963580     2.2498010    -0.0002150
  O        1.7683730     0.3991100    -0.0000070
  C        0.4770520    -0.0443510     0.0000100
  C       -0.5052370     0.9594120    -0.0001040
  C        0.0593170    -1.3782210     0.0001240
  C       -1.8373836     0.6697830    -0.0001050
  C       -1.3077240    -1.6845900     0.0001240
  C       -2.2644630    -0.6734790     0.0000110
  C        2.7793550    -0.6059020     0.0001420
  H        0.7856920    -2.1838160     0.0002110
  H       -2.5691860     1.4853780    -0.0001950
  H       -1.6154480    -2.7269510     0.0002140
  H       -3.3233590    -0.9156310     0.0000120
  H        2.7155550    -1.2340820    -0.8948950
  H        2.7154750    -1.2338950     0.8953060
  H        3.7232780    -0.0625150     0.0001270
units angstrom
no_reorient  #important for SAPT in psi4, default
symmetry c1  #important for SAPT in psi4, default
}

set PROPERTIES_ORIGIN ["COM"]
properties('MP2/aug-cc-pvtz', properties = ['dipole'])
--------------------------------------------------------------------------

    Molecular point group: c1
  Charge       = 0
  Multiplicity = 1
  Basis Set: AUG-CC-PVTZ
    Blend: AUG-CC-PVTZ
  Basis Set: (AUG-CC-PVTZ AUX)
    Blend: AUG-CC-PVTZ-JKFIT

    Orbital Energies [Eh]
    ---------------------

    Doubly Occupied:

       1A    -26.301649     2A    -20.595100     3A    -11.321350
       4A    -11.313691     5A    -11.291091     6A    -11.247773
       7A    -11.247330     8A    -11.246112     9A    -11.242990
      10A     -1.615926    11A     -1.415668    12A     -1.159391
      13A     -1.029178    14A     -1.027697    15A     -0.951063
      16A     -0.847576    17A     -0.832133    18A     -0.745987
      19A     -0.709450    20A     -0.704653    21A     -0.689453
      22A     -0.656388    23A     -0.641202    24A     -0.628903
      25A     -0.620563    26A     -0.580904    27A     -0.546558
      28A     -0.530727    29A     -0.521101    30A     -0.501609
      31A     -0.477776    32A     -0.349753    33A     -0.320581

  @DF-RHF Final Energy:  -443.58852752017776

   => Energetics <=

    Nuclear Repulsion Energy =            431.1564946446704880
    One-Electron Energy =               -1461.6673884016113334
    Two-Electron Energy =                 586.9223662367629686
    Total Energy =                       -443.5885275201777631
  Basis Set: (AUG-CC-PVTZ AUX)
    Blend: AUG-CC-PVTZ-RI
    Molecular point group: c1

    Geometry (in Angstrom), charge = 0, multiplicity = 1:

       Center              X                  Y                   Z               Mass
    ------------   -----------------  -----------------  -----------------  -----------------
         F           -0.078240798908     2.177503999804    -0.000207173483    18.998403162730
         O            1.786490201092     0.326812999804     0.000000826517    15.994914619570
         C            0.495169201092    -0.116648000196     0.000017826517    12.000000000000
         C           -0.487119798908     0.887114999804    -0.000096173483    12.000000000000
         C            0.077434201092    -1.450518000196     0.000131826517    12.000000000000
         C           -1.819266398908     0.597485999804    -0.000097173483    12.000000000000
         C           -1.289606798908    -1.756887000196     0.000131826517    12.000000000000
         C           -2.246345798908    -0.745776000196     0.000018826517    12.000000000000
         C            2.797472201092    -0.678199000196     0.000149826517    12.000000000000
         H            0.803809201092    -2.256113000196     0.000218826517     1.007825032230
         H           -2.551068798908     1.413080999804    -0.000187173483     1.007825032230
         H           -1.597330798908    -2.799248000196     0.000221826517     1.007825032230
         H           -3.305241798908    -0.987928000196     0.000019826517     1.007825032230
         H            2.733672201092    -1.306379000196    -0.894887173483     1.007825032230
         H            2.733592201092    -1.306192000196     0.895313826517     1.007825032230
         H            3.741395201092    -0.134812000196     0.000134826517     1.007825032230

  Basis Set: AUG-CC-PVTZ
    Blend: AUG-CC-PVTZ
  Basis Set: (AUG-CC-PVTZ AUX)
    Blend: AUG-CC-PVTZ-JKFIT
	 Reference Energy          =    -443.5885275201777631 [Eh]
	 Singles Energy            =      -0.0000000000000000 [Eh]
	 Same-Spin Energy          =      -0.4389483922453744 [Eh]
	 Opposite-Spin Energy      =      -1.3497216310823230 [Eh]
	 Correlation Energy        =      -1.7886700233276973 [Eh]
	 Total Energy              =    -445.3771975435054742 [Eh]

	 ================> DF-SCS-MP2 Energies <==================
	-----------------------------------------------------------
	 SCS Same-Spin Scale       =       0.3333333333333333 [-]
	 SCS Opposite-Spin Scale   =       1.2000000000000000 [-]
	 SCS Same-Spin Energy      =      -0.1463161307484581 [Eh]
	 SCS Opposite-Spin Energy  =      -1.6196659572987875 [Eh]
	 SCS Correlation Energy    =      -1.7659820880472457 [Eh]
	 SCS Total Energy          =    -445.3545096082249870 [Eh]
	-----------------------------------------------------------

  Dipole Moment: [D]
     X:     0.4818      Y:    -2.5069      Z:     0.0003     Total:     2.5527

*** Psi4 exiting successfully. Buy a developer a beer!
