                               Psi4 1.4a3.dev225

  ==> Input File <==

--------------------------------------------------------------------------
#psi4
#
memory 32 gb

molecule  {
0 1
  F       -0.0963580     2.2498010    -0.0002150
  O        1.7683730     0.3991100    -0.0000070
  C        0.4770520    -0.0443510     0.0000100
  C       -0.5052370     0.9594120    -0.0001040
  C        0.0593170    -1.3782210     0.0001240
  C       -1.8569270     0.6655340    -0.0001050
  C       -1.3272399    -1.6889637     0.0001240
  C       -2.2644630    -0.6734790     0.0000110
  C        2.7793550    -0.6059020     0.0001420
  H        0.7856920    -2.1838160     0.0002110
  H       -2.5691860     1.4853780    -0.0001950
  H       -1.6154480    -2.7269510     0.0002140
  H       -3.3233590    -0.9156310     0.0000120
  H        2.7155550    -1.2340820    -0.8948950
  H        2.7154750    -1.2338950     0.8953060
  H        3.7232780    -0.0625150     0.0001270
units angstrom
no_reorient  #important for SAPT in psi4, default
symmetry c1  #important for SAPT in psi4, default
}

set PROPERTIES_ORIGIN ["COM"]
properties('MP2/aug-cc-pvtz', properties = ['dipole'])
--------------------------------------------------------------------------

    Molecular point group: c1
  Charge       = 0
  Multiplicity = 1
  Basis Set: AUG-CC-PVTZ
    Blend: AUG-CC-PVTZ
  Basis Set: (AUG-CC-PVTZ AUX)
    Blend: AUG-CC-PVTZ-JKFIT

    Orbital Energies [Eh]
    ---------------------

    Doubly Occupied:

       1A    -26.302566     2A    -20.594639     3A    -11.324111
       4A    -11.313228     5A    -11.290907     6A    -11.248821
       7A    -11.248550     8A    -11.246842     9A    -11.241570
      10A     -1.616521    11A     -1.415312    12A     -1.157368
      13A     -1.029875    14A     -1.024897    15A     -0.951000
      16A     -0.850168    17A     -0.829859    18A     -0.745304
      19A     -0.709397    20A     -0.706035    21A     -0.689512
      22A     -0.656251    23A     -0.643055    24A     -0.628306
      25A     -0.620565    26A     -0.581520    27A     -0.548702
      28A     -0.529908    29A     -0.517322    30A     -0.504009
      31A     -0.477502    32A     -0.345694    33A     -0.322753

  @DF-RHF Final Energy:  -443.58823949942183

   => Energetics <=

    Nuclear Repulsion Energy =            430.6303125959802856
    One-Electron Energy =               -1460.6129588485860040
    Two-Electron Energy =                 586.3944067531838300
    Total Energy =                       -443.5882394994218885
  Basis Set: (AUG-CC-PVTZ AUX)
    Blend: AUG-CC-PVTZ-RI
    Molecular point group: c1

    Geometry (in Angstrom), charge = 0, multiplicity = 1:

       Center              X                  Y                   Z               Mass
    ------------   -----------------  -----------------  -----------------  -----------------
         F           -0.074522284897     2.178324896000    -0.000207173483    18.998403162730
         O            1.790208715103     0.327633896000     0.000000826517    15.994914619570
         C            0.498887715103    -0.115827104000     0.000017826517    12.000000000000
         C           -0.483401284897     0.887935896000    -0.000096173483    12.000000000000
         C            0.081152715103    -1.449697104000     0.000131826517    12.000000000000
         C           -1.835091284897     0.594057896000    -0.000097173483    12.000000000000
         C           -1.305404184897    -1.760439804000     0.000131826517    12.000000000000
         C           -2.242627284897    -0.744955104000     0.000018826517    12.000000000000
         C            2.801190715103    -0.677378104000     0.000149826517    12.000000000000
         H            0.807527715103    -2.255292104000     0.000218826517     1.007825032230
         H           -2.547350284897     1.413901896000    -0.000187173483     1.007825032230
         H           -1.593612284897    -2.798427104000     0.000221826517     1.007825032230
         H           -3.301523284897    -0.987107104000     0.000019826517     1.007825032230
         H            2.737390715103    -1.305558104000    -0.894887173483     1.007825032230
         H            2.737310715103    -1.305371104000     0.895313826517     1.007825032230
         H            3.745113715103    -0.133991104000     0.000134826517     1.007825032230

  Basis Set: AUG-CC-PVTZ
    Blend: AUG-CC-PVTZ
  Basis Set: (AUG-CC-PVTZ AUX)
    Blend: AUG-CC-PVTZ-JKFIT
	 Reference Energy          =    -443.5882394994218316 [Eh]
	 Singles Energy            =      -0.0000000000000000 [Eh]
	 Same-Spin Energy          =      -0.4389536579725015 [Eh]
	 Opposite-Spin Energy      =      -1.3499042706456419 [Eh]
	 Correlation Energy        =      -1.7888579286181434 [Eh]
	 Total Energy              =    -445.3770974280399741 [Eh]

	 ================> DF-SCS-MP2 Energies <==================
	-----------------------------------------------------------
	 SCS Same-Spin Scale       =       0.3333333333333333 [-]
	 SCS Opposite-Spin Scale   =       1.2000000000000000 [-]
	 SCS Same-Spin Energy      =      -0.1463178859908338 [Eh]
	 SCS Opposite-Spin Energy  =      -1.6198851247747703 [Eh]
	 SCS Correlation Energy    =      -1.7662030107656042 [Eh]
	 SCS Total Energy          =    -445.3544425101874253 [Eh]
	-----------------------------------------------------------

  Dipole Moment: [D]
     X:     0.4799      Y:    -2.4913      Z:     0.0003     Total:     2.5371

*** Psi4 exiting successfully. Buy a developer a beer!
