                               Psi4 1.4a3.dev225

  ==> Input File <==

--------------------------------------------------------------------------
#psi4
#
memory 32 gb

molecule  {
0 1
  F       -0.0963580     2.2498010    -0.0002150
  O        1.7149447     0.5316605    -0.0000206
  C        0.4770520    -0.0443510     0.0000100
  C       -0.5052370     0.9594120    -0.0001040
  C        0.0593170    -1.3782210     0.0001240
  C       -1.8569270     0.6655340    -0.0001050
  C       -1.3077240    -1.6845900     0.0001240
  C       -2.2644630    -0.6734790     0.0000110
  C        2.7793550    -0.6059020     0.0001420
  H        0.7856920    -2.1838160     0.0002110
  H       -2.5691860     1.4853780    -0.0001950
  H       -1.6154480    -2.7269510     0.0002140
  H       -3.3233590    -0.9156310     0.0000120
  H        2.7155550    -1.2340820    -0.8948950
  H        2.7154750    -1.2338950     0.8953060
  H        3.7232780    -0.0625150     0.0001270
units angstrom
no_reorient  #important for SAPT in psi4, default
symmetry c1  #important for SAPT in psi4, default
}

set PROPERTIES_ORIGIN ["COM"]
properties('MP2/aug-cc-pvtz', properties = ['dipole'])
--------------------------------------------------------------------------

    Molecular point group: c1
  Charge       = 0
  Multiplicity = 1
  Basis Set: AUG-CC-PVTZ
    Blend: AUG-CC-PVTZ
  Basis Set: (AUG-CC-PVTZ AUX)
    Blend: AUG-CC-PVTZ-JKFIT

    Orbital Energies [Eh]
    ---------------------

    Doubly Occupied:

       1A    -26.298687     2A    -20.599953     3A    -11.317012
       4A    -11.308985     5A    -11.304080     6A    -11.247308
       7A    -11.245402     8A    -11.244799     9A    -11.239578
      10A     -1.612923    11A     -1.390234    12A     -1.153376
      13A     -1.025487    14A     -1.016654    15A     -0.954698
      16A     -0.845568    17A     -0.829236    18A     -0.738911
      19A     -0.705655    20A     -0.696106    21A     -0.685169
      22A     -0.641066    23A     -0.635852    24A     -0.620050
      25A     -0.613404    26A     -0.565588    27A     -0.555202
      28A     -0.539952    29A     -0.522085    30A     -0.500206
      31A     -0.481241    32A     -0.346293    33A     -0.317194

  @DF-RHF Final Energy:  -443.56858902421959

   => Energetics <=

    Nuclear Repulsion Energy =            429.9494681188878076
    One-Electron Energy =               -1459.4402078087330210
    Two-Electron Energy =                 585.9221506656256224
    Total Energy =                       -443.5685890242195910
  Basis Set: (AUG-CC-PVTZ AUX)
    Blend: AUG-CC-PVTZ-RI
    Molecular point group: c1

    Geometry (in Angstrom), charge = 0, multiplicity = 1:

       Center              X                  Y                   Z               Mass
    ------------   -----------------  -----------------  -----------------  -----------------
         F           -0.069600431008     2.161088472358    -0.000205447706    18.998403162730
         O            1.741702268992     0.442947972358    -0.000011047706    15.994914619570
         C            0.503809568992    -0.133063527642     0.000019552294    12.000000000000
         C           -0.478479431008     0.870699472358    -0.000094447706    12.000000000000
         C            0.086074568992    -1.466933527642     0.000133552294    12.000000000000
         C           -1.830169431008     0.576821472358    -0.000095447706    12.000000000000
         C           -1.280966431008    -1.773302527642     0.000133552294    12.000000000000
         C           -2.237705431008    -0.762191527642     0.000020552294    12.000000000000
         C            2.806112568992    -0.694614527642     0.000151552294    12.000000000000
         H            0.812449568992    -2.272528527642     0.000220552294     1.007825032230
         H           -2.542428431008     1.396665472358    -0.000185447706     1.007825032230
         H           -1.588690431008    -2.815663527642     0.000223552294     1.007825032230
         H           -3.296601431008    -1.004343527642     0.000021552294     1.007825032230
         H            2.742312568992    -1.322794527642    -0.894885447706     1.007825032230
         H            2.742232568992    -1.322607527642     0.895315552294     1.007825032230
         H            3.750035568992    -0.151227527642     0.000136552294     1.007825032230

  Basis Set: AUG-CC-PVTZ
    Blend: AUG-CC-PVTZ
  Basis Set: (AUG-CC-PVTZ AUX)
    Blend: AUG-CC-PVTZ-JKFIT
	 Reference Energy          =    -443.5685890242195910 [Eh]
	 Singles Energy            =      -0.0000000000000000 [Eh]
	 Same-Spin Energy          =      -0.4406290359047989 [Eh]
	 Opposite-Spin Energy      =      -1.3551000526310650 [Eh]
	 Correlation Energy        =      -1.7957290885358639 [Eh]
	 Total Energy              =    -445.3643181127554271 [Eh]

	 ================> DF-SCS-MP2 Energies <==================
	-----------------------------------------------------------
	 SCS Same-Spin Scale       =       0.3333333333333333 [-]
	 SCS Opposite-Spin Scale   =       1.2000000000000000 [-]
	 SCS Same-Spin Energy      =      -0.1468763453015996 [Eh]
	 SCS Opposite-Spin Energy  =      -1.6261200631572781 [Eh]
	 SCS Correlation Energy    =      -1.7729964084588776 [Eh]
	 SCS Total Energy          =    -445.3415854326784711 [Eh]
	-----------------------------------------------------------

  Dipole Moment: [D]
     X:     0.8330      Y:    -2.7349      Z:     0.0003     Total:     2.8589

*** Psi4 exiting successfully. Buy a developer a beer!
