                               Psi4 1.4a3.dev225

  ==> Input File <==

--------------------------------------------------------------------------
#psi4
#
memory 32 gb

molecule  {
0 1
  F       -0.0963580     2.2498010    -0.0002150
  O        1.7683730     0.3991100    -0.0000070
  C        0.4770520    -0.0443510     0.0000100
  C       -0.5052370     0.9594120    -0.0001040
  C        0.1190894    -1.1873617     0.0001077
  C       -1.8569270     0.6655340    -0.0001050
  C       -1.3077240    -1.6845900     0.0001240
  C       -2.2644630    -0.6734790     0.0000110
  C        2.7793550    -0.6059020     0.0001420
  H        0.7856920    -2.1838160     0.0002110
  H       -2.5691860     1.4853780    -0.0001950
  H       -1.6154480    -2.7269510     0.0002140
  H       -3.3233590    -0.9156310     0.0000120
  H        2.7155550    -1.2340820    -0.8948950
  H        2.7154750    -1.2338950     0.8953060
  H        3.7232780    -0.0625150     0.0001270
units angstrom
no_reorient  #important for SAPT in psi4, default
symmetry c1  #important for SAPT in psi4, default
}

set PROPERTIES_ORIGIN ["COM"]
properties('MP2/aug-cc-pvtz', properties = ['dipole'])
--------------------------------------------------------------------------

    Molecular point group: c1
  Charge       = 0
  Multiplicity = 1
  Basis Set: AUG-CC-PVTZ
    Blend: AUG-CC-PVTZ
  Basis Set: (AUG-CC-PVTZ AUX)
    Blend: AUG-CC-PVTZ-JKFIT

    Orbital Energies [Eh]
    ---------------------

    Doubly Occupied:

       1A    -26.305291     2A    -20.586514     3A    -11.329923
       4A    -11.286271     5A    -11.285484     6A    -11.255715
       7A    -11.245922     8A    -11.244621     9A    -11.238216
      10A     -1.618982    11A     -1.412967    12A     -1.174038
      13A     -1.055173    14A     -1.011692    15A     -0.951765
      16A     -0.862790    17A     -0.819282    18A     -0.748066
      19A     -0.711357    20A     -0.702835    21A     -0.692044
      22A     -0.655644    23A     -0.650332    24A     -0.628148
      25A     -0.604690    26A     -0.572250    27A     -0.552805
      28A     -0.540409    29A     -0.510859    30A     -0.480438
      31A     -0.473364    32A     -0.363499    33A     -0.324310

  @DF-RHF Final Energy:  -443.52740235351655

   => Energetics <=

    Nuclear Repulsion Energy =            434.1258900298941512
    One-Electron Energy =               -1467.5151933731913232
    Two-Electron Energy =                 589.8619009897805654
    Total Energy =                       -443.5274023535165497
  Basis Set: (AUG-CC-PVTZ AUX)
    Blend: AUG-CC-PVTZ-RI
    Molecular point group: c1

    Geometry (in Angstrom), charge = 0, multiplicity = 1:

       Center              X                  Y                   Z               Mass
    ------------   -----------------  -----------------  -----------------  -----------------
         F           -0.082070670416     2.159738371253    -0.000205621694    18.998403162730
         O            1.782660329584     0.309047371253     0.000002378306    15.994914619570
         C            0.491339329584    -0.134413628747     0.000019378306    12.000000000000
         C           -0.490949670416     0.869349371253    -0.000094621694    12.000000000000
         C            0.133376729584    -1.277424328747     0.000117078306    12.000000000000
         C           -1.842639670416     0.575471371253    -0.000095621694    12.000000000000
         C           -1.293436670416    -1.774652628747     0.000133378306    12.000000000000
         C           -2.250175670416    -0.763541628747     0.000020378306    12.000000000000
         C            2.793642329584    -0.695964628747     0.000151378306    12.000000000000
         H            0.799979329584    -2.273878628747     0.000220378306     1.007825032230
         H           -2.554898670416     1.395315371253    -0.000185621694     1.007825032230
         H           -1.601160670416    -2.817013628747     0.000223378306     1.007825032230
         H           -3.309071670416    -1.005693628747     0.000021378306     1.007825032230
         H            2.729842329584    -1.324144628747    -0.894885621694     1.007825032230
         H            2.729762329584    -1.323957628747     0.895315378306     1.007825032230
         H            3.737565329584    -0.152577628747     0.000136378306     1.007825032230

  Basis Set: AUG-CC-PVTZ
    Blend: AUG-CC-PVTZ
  Basis Set: (AUG-CC-PVTZ AUX)
    Blend: AUG-CC-PVTZ-JKFIT
	 Reference Energy          =    -443.5274023535165497 [Eh]
	 Singles Energy            =      -0.0000000000000000 [Eh]
	 Same-Spin Energy          =      -0.4382537790428050 [Eh]
	 Opposite-Spin Energy      =      -1.3510709681745103 [Eh]
	 Correlation Energy        =      -1.7893247472173153 [Eh]
	 Total Energy              =    -445.3167271007338854 [Eh]

	 ================> DF-SCS-MP2 Energies <==================
	-----------------------------------------------------------
	 SCS Same-Spin Scale       =       0.3333333333333333 [-]
	 SCS Opposite-Spin Scale   =       1.2000000000000000 [-]
	 SCS Same-Spin Energy      =      -0.1460845930142683 [Eh]
	 SCS Opposite-Spin Energy  =      -1.6212851618094124 [Eh]
	 SCS Correlation Energy    =      -1.7673697548236806 [Eh]
	 SCS Total Energy          =    -445.2947721083402257 [Eh]
	-----------------------------------------------------------

  Dipole Moment: [D]
     X:     0.1686      Y:    -2.5547      Z:     0.0003     Total:     2.5602

*** Psi4 exiting successfully. Buy a developer a beer!
