                               Psi4 1.4a3.dev225

  ==> Input File <==

--------------------------------------------------------------------------
#psi4
#
memory 32 gb

molecule  {
0 1
  F       -0.0963580     2.2498010    -0.0002150
  O        1.7683730     0.3991100    -0.0000070
  C        0.4770520    -0.0443510     0.0000100
  C       -0.5052370     0.9594120    -0.0001040
  C        0.0644557    -1.4021258     0.0001263
  C       -1.8569270     0.6655340    -0.0001050
  C       -1.3077240    -1.6845900     0.0001240
  C       -2.2644630    -0.6734790     0.0000110
  C        2.7793550    -0.6059020     0.0001420
  H        0.7856920    -2.1838160     0.0002110
  H       -2.5691860     1.4853780    -0.0001950
  H       -1.6154480    -2.7269510     0.0002140
  H       -3.3233590    -0.9156310     0.0000120
  H        2.7155550    -1.2340820    -0.8948950
  H        2.7154750    -1.2338950     0.8953060
  H        3.7232780    -0.0625150     0.0001270
units angstrom
no_reorient  #important for SAPT in psi4, default
symmetry c1  #important for SAPT in psi4, default
}

set PROPERTIES_ORIGIN ["COM"]
properties('MP2/aug-cc-pvtz', properties = ['dipole'])
--------------------------------------------------------------------------

    Molecular point group: c1
  Charge       = 0
  Multiplicity = 1
  Basis Set: AUG-CC-PVTZ
    Blend: AUG-CC-PVTZ
  Basis Set: (AUG-CC-PVTZ AUX)
    Blend: AUG-CC-PVTZ-JKFIT

    Orbital Energies [Eh]
    ---------------------

    Doubly Occupied:

       1A    -26.301991     2A    -20.594914     3A    -11.322826
       4A    -11.315540     5A    -11.291333     6A    -11.249303
       7A    -11.248233     8A    -11.246937     9A    -11.242180
      10A     -1.615952    11A     -1.415397    12A     -1.156293
      13A     -1.027748    14A     -1.027041    15A     -0.950273
      16A     -0.848946    17A     -0.830600    18A     -0.745850
      19A     -0.710201    20A     -0.704226    21A     -0.689124
      22A     -0.656271    23A     -0.641175    24A     -0.628334
      25A     -0.625405    26A     -0.581731    27A     -0.547211
      28A     -0.529308    29A     -0.521763    30A     -0.501207
      31A     -0.477544    32A     -0.347835    33A     -0.319456

  @DF-RHF Final Energy:  -443.58765987628101

   => Energetics <=

    Nuclear Repulsion Energy =            430.4314967250518293
    One-Electron Energy =               -1460.2140180549879460
    Two-Electron Energy =                 586.1948614536551077
    Total Energy =                       -443.5876598762810090
  Basis Set: (AUG-CC-PVTZ AUX)
    Blend: AUG-CC-PVTZ-RI
    Molecular point group: c1

    Geometry (in Angstrom), charge = 0, multiplicity = 1:

       Center              X                  Y                   Z               Mass
    ------------   -----------------  -----------------  -----------------  -----------------
         F           -0.076869446150     2.180184291048    -0.000207392447    18.998403162730
         O            1.787861553850     0.329493291048     0.000000607553    15.994914619570
         C            0.496540553850    -0.113967708952     0.000017607553    12.000000000000
         C           -0.485748446150     0.889795291048    -0.000096392447    12.000000000000
         C            0.083944253850    -1.471742508952     0.000133907553    12.000000000000
         C           -1.837438446150     0.595917291048    -0.000097392447    12.000000000000
         C           -1.288235446150    -1.754206708952     0.000131607553    12.000000000000
         C           -2.244974446150    -0.743095708952     0.000018607553    12.000000000000
         C            2.798843553850    -0.675518708952     0.000149607553    12.000000000000
         H            0.805180553850    -2.253432708952     0.000218607553     1.007825032230
         H           -2.549697446150     1.415761291048    -0.000187392447     1.007825032230
         H           -1.595959446150    -2.796567708952     0.000221607553     1.007825032230
         H           -3.303870446150    -0.985247708952     0.000019607553     1.007825032230
         H            2.735043553850    -1.303698708952    -0.894887392447     1.007825032230
         H            2.734963553850    -1.303511708952     0.895313607553     1.007825032230
         H            3.742766553850    -0.132131708952     0.000134607553     1.007825032230

  Basis Set: AUG-CC-PVTZ
    Blend: AUG-CC-PVTZ
  Basis Set: (AUG-CC-PVTZ AUX)
    Blend: AUG-CC-PVTZ-JKFIT
	 Reference Energy          =    -443.5876598762810090 [Eh]
	 Singles Energy            =      -0.0000000000000000 [Eh]
	 Same-Spin Energy          =      -0.4390470652306709 [Eh]
	 Opposite-Spin Energy      =      -1.3500197024290714 [Eh]
	 Correlation Energy        =      -1.7890667676597423 [Eh]
	 Total Energy              =    -445.3767266439407422 [Eh]

	 ================> DF-SCS-MP2 Energies <==================
	-----------------------------------------------------------
	 SCS Same-Spin Scale       =       0.3333333333333333 [-]
	 SCS Opposite-Spin Scale   =       1.2000000000000000 [-]
	 SCS Same-Spin Energy      =      -0.1463490217435570 [Eh]
	 SCS Opposite-Spin Energy  =      -1.6200236429148858 [Eh]
	 SCS Correlation Energy    =      -1.7663726646584428 [Eh]
	 SCS Total Energy          =    -445.3540325409394427 [Eh]
	-----------------------------------------------------------

  Dipole Moment: [D]
     X:     0.5009      Y:    -2.4885      Z:     0.0003     Total:     2.5384

*** Psi4 exiting successfully. Buy a developer a beer!
