                               Psi4 1.4a3.dev225

  ==> Input File <==

--------------------------------------------------------------------------
#psi4
#
memory 32 gb

molecule  {
0 1
  F       -0.0963580     2.2498010    -0.0002150
  O        1.7683730     0.3991100    -0.0000070
  C        0.4770520    -0.0443510     0.0000100
  C       -0.5052370     0.9594120    -0.0001040
  C        0.0593170    -1.3782210     0.0001240
  C       -1.8569270     0.6655340    -0.0001050
  C       -1.3565138    -1.6955243     0.0001240
  C       -2.2644630    -0.6734790     0.0000110
  C        2.7793550    -0.6059020     0.0001420
  H        0.7856920    -2.1838160     0.0002110
  H       -2.5691860     1.4853780    -0.0001950
  H       -1.6154480    -2.7269510     0.0002140
  H       -3.3233590    -0.9156310     0.0000120
  H        2.7155550    -1.2340820    -0.8948950
  H        2.7154750    -1.2338950     0.8953060
  H        3.7232780    -0.0625150     0.0001270
units angstrom
no_reorient  #important for SAPT in psi4, default
symmetry c1  #important for SAPT in psi4, default
}

set PROPERTIES_ORIGIN ["COM"]
properties('MP2/aug-cc-pvtz', properties = ['dipole'])
--------------------------------------------------------------------------

    Molecular point group: c1
  Charge       = 0
  Multiplicity = 1
  Basis Set: AUG-CC-PVTZ
    Blend: AUG-CC-PVTZ
  Basis Set: (AUG-CC-PVTZ AUX)
    Blend: AUG-CC-PVTZ-JKFIT

    Orbital Energies [Eh]
    ---------------------

    Doubly Occupied:

       1A    -26.303210     2A    -20.594616     3A    -11.325319
       4A    -11.313334     5A    -11.290759     6A    -11.250750
       7A    -11.248514     8A    -11.246956     9A    -11.240437
      10A     -1.617137    11A     -1.415268    12A     -1.156236
      13A     -1.031780    14A     -1.021643    15A     -0.951737
      16A     -0.852000    17A     -0.828272    18A     -0.745026
      19A     -0.709581    20A     -0.707122    21A     -0.689889
      22A     -0.656224    23A     -0.644562    24A     -0.628208
      25A     -0.619273    26A     -0.582904    27A     -0.549376
      28A     -0.529307    29A     -0.513698    30A     -0.505689
      31A     -0.477345    32A     -0.342326    33A     -0.325665

  @DF-RHF Final Energy:  -443.58579499696845

   => Energetics <=

    Nuclear Repulsion Energy =            430.2998465883732706
    One-Electron Energy =               -1459.9429601470233138
    Two-Electron Energy =                 586.0573185616814271
    Total Energy =                       -443.5857949969685023
  Basis Set: (AUG-CC-PVTZ AUX)
    Blend: AUG-CC-PVTZ-RI
    Molecular point group: c1

    Geometry (in Angstrom), charge = 0, multiplicity = 1:

       Center              X                  Y                   Z               Mass
    ------------   -----------------  -----------------  -----------------  -----------------
         F           -0.071735358164     2.178949476651    -0.000207173483    18.998403162730
         O            1.792995641836     0.328258476651     0.000000826517    15.994914619570
         C            0.501674641836    -0.115202523349     0.000017826517    12.000000000000
         C           -0.480614358164     0.888560476651    -0.000096173483    12.000000000000
         C            0.083939641836    -1.449072523349     0.000131826517    12.000000000000
         C           -1.832304358164     0.594682476651    -0.000097173483    12.000000000000
         C           -1.331891158164    -1.766375823349     0.000131826517    12.000000000000
         C           -2.239840358164    -0.744330523349     0.000018826517    12.000000000000
         C            2.803977641836    -0.676753523349     0.000149826517    12.000000000000
         H            0.810314641836    -2.254667523349     0.000218826517     1.007825032230
         H           -2.544563358164     1.414526476651    -0.000187173483     1.007825032230
         H           -1.590825358164    -2.797802523349     0.000221826517     1.007825032230
         H           -3.298736358164    -0.986482523349     0.000019826517     1.007825032230
         H            2.740177641836    -1.304933523349    -0.894887173483     1.007825032230
         H            2.740097641836    -1.304746523349     0.895313826517     1.007825032230
         H            3.747900641836    -0.133366523349     0.000134826517     1.007825032230

  Basis Set: AUG-CC-PVTZ
    Blend: AUG-CC-PVTZ
  Basis Set: (AUG-CC-PVTZ AUX)
    Blend: AUG-CC-PVTZ-JKFIT
	 Reference Energy          =    -443.5857949969684455 [Eh]
	 Singles Energy            =      -0.0000000000000000 [Eh]
	 Same-Spin Energy          =      -0.4388202510615846 [Eh]
	 Opposite-Spin Energy      =      -1.3500600501054447 [Eh]
	 Correlation Energy        =      -1.7888803011670293 [Eh]
	 Total Energy              =    -445.3746752981354575 [Eh]

	 ================> DF-SCS-MP2 Energies <==================
	-----------------------------------------------------------
	 SCS Same-Spin Scale       =       0.3333333333333333 [-]
	 SCS Opposite-Spin Scale   =       1.2000000000000000 [-]
	 SCS Same-Spin Energy      =      -0.1462734170205282 [Eh]
	 SCS Opposite-Spin Energy  =      -1.6200720601265337 [Eh]
	 SCS Correlation Energy    =      -1.7663454771470619 [Eh]
	 SCS Total Energy          =    -445.3521404741155152 [Eh]
	-----------------------------------------------------------

  Dipole Moment: [D]
     X:     0.4752      Y:    -2.4847      Z:     0.0003     Total:     2.5297

*** Psi4 exiting successfully. Buy a developer a beer!
