                               Psi4 1.4a3.dev225

  ==> Input File <==

--------------------------------------------------------------------------
#psi4
#
memory 32 gb

molecule  {
0 1
  F       -0.0963580     2.2498010    -0.0002150
  O        1.7683730     0.3991100    -0.0000070
  C        0.4770520    -0.0443510     0.0000100
  C       -0.5052370     0.9594120    -0.0001040
  C        0.0593170    -1.3782210     0.0001240
  C       -1.8569270     0.6655340    -0.0001050
  C       -1.3077240    -1.6845900     0.0001240
  C       -2.2644630    -0.6734790     0.0000110
  C        2.7793550    -0.6059020     0.0001420
  H        0.7856920    -2.1838160     0.0002110
  H       -2.5691860     1.4853780    -0.0001950
  H       -1.6154480    -2.7269510     0.0002140
  H       -3.3233590    -0.9156310     0.0000120
  H        2.7155550    -1.2340820    -0.8948950
  H        2.7271389    -1.1192289     0.7318568
  H        3.7232780    -0.0625150     0.0001270
units angstrom
no_reorient  #important for SAPT in psi4, default
symmetry c1  #important for SAPT in psi4, default
}

set PROPERTIES_ORIGIN ["COM"]
properties('MP2/aug-cc-pvtz', properties = ['dipole'])
--------------------------------------------------------------------------

    Molecular point group: c1
  Charge       = 0
  Multiplicity = 1
  Basis Set: AUG-CC-PVTZ
    Blend: AUG-CC-PVTZ
  Basis Set: (AUG-CC-PVTZ AUX)
    Blend: AUG-CC-PVTZ-JKFIT

    Orbital Energies [Eh]
    ---------------------

    Doubly Occupied:

       1A    -26.301634     2A    -20.591730     3A    -11.322730
       4A    -11.312876     5A    -11.266708     6A    -11.248447
       7A    -11.247623     8A    -11.246457     9A    -11.241966
      10A     -1.615592    11A     -1.414172    12A     -1.158176
      13A     -1.033673    14A     -1.027348    15A     -0.970601
      16A     -0.850684    17A     -0.834717    18A     -0.747212
      19A     -0.714379    20A     -0.707948    21A     -0.690101
      22A     -0.669653    23A     -0.642467    24A     -0.627504
      25A     -0.621263    26A     -0.580980    27A     -0.553320
      28A     -0.538436    29A     -0.518947    30A     -0.503546
      31A     -0.479856    32A     -0.347981    33A     -0.320261

  @DF-RHF Final Energy:  -443.55553682624918

   => Energetics <=

    Nuclear Repulsion Energy =            431.8268667877557618
    One-Electron Energy =               -1462.8668296623218339
    Two-Electron Energy =                 587.4844260483168910
    Total Energy =                       -443.5555368262491811
  Basis Set: (AUG-CC-PVTZ AUX)
    Blend: AUG-CC-PVTZ-RI
    Molecular point group: c1

    Geometry (in Angstrom), charge = 0, multiplicity = 1:

       Center              X                  Y                   Z               Mass
    ------------   -----------------  -----------------  -----------------  -----------------
         F           -0.076473492285     2.176991692443     0.001099694327    18.998403162730
         O            1.788257507715     0.326300692443     0.001307694327    15.994914619570
         C            0.496936507715    -0.117160307557     0.001324694327    12.000000000000
         C           -0.485352492285     0.886602692443     0.001210694327    12.000000000000
         C            0.079201507715    -1.451030307557     0.001438694327    12.000000000000
         C           -1.837042492285     0.592724692443     0.001209694327    12.000000000000
         C           -1.287839492285    -1.757399307557     0.001438694327    12.000000000000
         C           -2.244578492285    -0.746288307557     0.001325694327    12.000000000000
         C            2.799239507715    -0.678711307557     0.001456694327    12.000000000000
         H            0.805576507715    -2.256625307557     0.001525694327     1.007825032230
         H           -2.549301492285     1.412568692443     0.001119694327     1.007825032230
         H           -1.595563492285    -2.799760307557     0.001528694327     1.007825032230
         H           -3.303474492285    -0.988440307557     0.001326694327     1.007825032230
         H            2.735439507715    -1.306891307557    -0.893580305673     1.007825032230
         H            2.747023407715    -1.192038207557     0.733171494327     1.007825032230
         H            3.743162507715    -0.135324307557     0.001441694327     1.007825032230

  Basis Set: AUG-CC-PVTZ
    Blend: AUG-CC-PVTZ
  Basis Set: (AUG-CC-PVTZ AUX)
    Blend: AUG-CC-PVTZ-JKFIT
	 Reference Energy          =    -443.5555368262491811 [Eh]
	 Singles Energy            =      -0.0000000000000000 [Eh]
	 Same-Spin Energy          =      -0.4389323789144316 [Eh]
	 Opposite-Spin Energy      =      -1.3490763077391343 [Eh]
	 Correlation Energy        =      -1.7880086866535660 [Eh]
	 Total Energy              =    -445.3435455129027218 [Eh]

	 ================> DF-SCS-MP2 Energies <==================
	-----------------------------------------------------------
	 SCS Same-Spin Scale       =       0.3333333333333333 [-]
	 SCS Opposite-Spin Scale   =       1.2000000000000000 [-]
	 SCS Same-Spin Energy      =      -0.1463107929714772 [Eh]
	 SCS Opposite-Spin Energy  =      -1.6188915692869612 [Eh]
	 SCS Correlation Energy    =      -1.7652023622584383 [Eh]
	 SCS Total Energy          =    -445.3207391885076163 [Eh]
	-----------------------------------------------------------

  Dipole Moment: [D]
     X:     0.5380      Y:    -2.5538      Z:     0.0620     Total:     2.6106

*** Psi4 exiting successfully. Buy a developer a beer!
