                               Psi4 1.4a3.dev225

  ==> Input File <==

--------------------------------------------------------------------------
#psi4
#
memory 32 gb

molecule  {
0 1
  F       -0.0963580     2.2498010    -0.0002150
  O        1.7683730     0.3991100    -0.0000070
  C        0.4770520    -0.0443510     0.0000100
  C       -0.5052370     0.9594120    -0.0001040
  C        0.0593170    -1.3782210     0.0001240
  C       -1.8764704     0.6612850    -0.0001050
  C       -1.3077240    -1.6845900     0.0001240
  C       -2.2644630    -0.6734790     0.0000110
  C        2.7793550    -0.6059020     0.0001420
  H        0.7856920    -2.1838160     0.0002110
  H       -2.5691860     1.4853780    -0.0001950
  H       -1.6154480    -2.7269510     0.0002140
  H       -3.3233590    -0.9156310     0.0000120
  H        2.7155550    -1.2340820    -0.8948950
  H        2.7154750    -1.2338950     0.8953060
  H        3.7232780    -0.0625150     0.0001270
units angstrom
no_reorient  #important for SAPT in psi4, default
symmetry c1  #important for SAPT in psi4, default
}

set PROPERTIES_ORIGIN ["COM"]
properties('MP2/aug-cc-pvtz', properties = ['dipole'])
--------------------------------------------------------------------------

    Molecular point group: c1
  Charge       = 0
  Multiplicity = 1
  Basis Set: AUG-CC-PVTZ
    Blend: AUG-CC-PVTZ
  Basis Set: (AUG-CC-PVTZ AUX)
    Blend: AUG-CC-PVTZ-JKFIT

    Orbital Energies [Eh]
    ---------------------

    Doubly Occupied:

       1A    -26.302588     2A    -20.594203     3A    -11.325121
       4A    -11.312587     5A    -11.290916     6A    -11.249331
       7A    -11.248124     8A    -11.246693     9A    -11.241709
      10A     -1.616268    11A     -1.415004    12A     -1.157257
      13A     -1.030410    14A     -1.024646    15A     -0.949783
      16A     -0.850204    17A     -0.829889    18A     -0.744983
      19A     -0.709302    20A     -0.706036    21A     -0.689074
      22A     -0.656138    23A     -0.643143    24A     -0.628405
      25A     -0.621550    26A     -0.581252    27A     -0.549771
      28A     -0.529996    29A     -0.517246    30A     -0.502828
      31A     -0.477633    32A     -0.346833    33A     -0.320852

  @DF-RHF Final Energy:  -443.58789710873930

   => Energetics <=

    Nuclear Repulsion Energy =            430.5638041382829897
    One-Electron Energy =               -1460.4838555906098918
    Two-Electron Energy =                 586.3321543435874901
    Total Energy =                       -443.5878971087392983
  Basis Set: (AUG-CC-PVTZ AUX)
    Blend: AUG-CC-PVTZ-RI
    Molecular point group: c1

    Geometry (in Angstrom), charge = 0, multiplicity = 1:

       Center              X                  Y                   Z               Mass
    ------------   -----------------  -----------------  -----------------  -----------------
         F           -0.074519666848     2.178313024341    -0.000207173483    18.998403162730
         O            1.790211333152     0.327622024341     0.000000826517    15.994914619570
         C            0.498890333152    -0.115838975659     0.000017826517    12.000000000000
         C           -0.483398666848     0.887924024341    -0.000096173483    12.000000000000
         C            0.081155333152    -1.449708975659     0.000131826517    12.000000000000
         C           -1.854632066848     0.589797024341    -0.000097173483    12.000000000000
         C           -1.285885666848    -1.756077975659     0.000131826517    12.000000000000
         C           -2.242624666848    -0.744966975659     0.000018826517    12.000000000000
         C            2.801193333152    -0.677389975659     0.000149826517    12.000000000000
         H            0.807530333152    -2.255303975659     0.000218826517     1.007825032230
         H           -2.547347666848     1.413890024341    -0.000187173483     1.007825032230
         H           -1.593609666848    -2.798438975659     0.000221826517     1.007825032230
         H           -3.301520666848    -0.987118975659     0.000019826517     1.007825032230
         H            2.737393333152    -1.305569975659    -0.894887173483     1.007825032230
         H            2.737313333152    -1.305382975659     0.895313826517     1.007825032230
         H            3.745116333152    -0.134002975659     0.000134826517     1.007825032230

  Basis Set: AUG-CC-PVTZ
    Blend: AUG-CC-PVTZ
  Basis Set: (AUG-CC-PVTZ AUX)
    Blend: AUG-CC-PVTZ-JKFIT
	 Reference Energy          =    -443.5878971087392983 [Eh]
	 Singles Energy            =      -0.0000000000000000 [Eh]
	 Same-Spin Energy          =      -0.4391026731817208 [Eh]
	 Opposite-Spin Energy      =      -1.3500440166401704 [Eh]
	 Correlation Energy        =      -1.7891466898218913 [Eh]
	 Total Energy              =    -445.3770437985612034 [Eh]

	 ================> DF-SCS-MP2 Energies <==================
	-----------------------------------------------------------
	 SCS Same-Spin Scale       =       0.3333333333333333 [-]
	 SCS Opposite-Spin Scale   =       1.2000000000000000 [-]
	 SCS Same-Spin Energy      =      -0.1463675577272402 [Eh]
	 SCS Opposite-Spin Energy  =      -1.6200528199682045 [Eh]
	 SCS Correlation Energy    =      -1.7664203776954448 [Eh]
	 SCS Total Energy          =    -445.3543174864347520 [Eh]
	-----------------------------------------------------------

  Dipole Moment: [D]
     X:     0.4824      Y:    -2.4857      Z:     0.0003     Total:     2.5321

*** Psi4 exiting successfully. Buy a developer a beer!
