                               Psi4 1.4a3.dev225

  ==> Input File <==

--------------------------------------------------------------------------
#psi4
#
memory 32 gb

molecule  {
0 1
  F       -0.1873670     2.2751796    -0.0002193
  O        1.7683730     0.3991100    -0.0000070
  C        0.4770520    -0.0443510     0.0000100
  C       -0.5052370     0.9594120    -0.0001040
  C        0.0593170    -1.3782210     0.0001240
  C       -1.8569270     0.6655340    -0.0001050
  C       -1.3077240    -1.6845900     0.0001240
  C       -2.2644630    -0.6734790     0.0000110
  C        2.7793550    -0.6059020     0.0001420
  H        0.7856920    -2.1838160     0.0002110
  H       -2.5691860     1.4853780    -0.0001950
  H       -1.6154480    -2.7269510     0.0002140
  H       -3.3233590    -0.9156310     0.0000120
  H        2.7155550    -1.2340820    -0.8948950
  H        2.7154750    -1.2338950     0.8953060
  H        3.7232780    -0.0625150     0.0001270
units angstrom
no_reorient  #important for SAPT in psi4, default
symmetry c1  #important for SAPT in psi4, default
}

set PROPERTIES_ORIGIN ["COM"]
properties('MP2/aug-cc-pvtz', properties = ['dipole'])
--------------------------------------------------------------------------

    Molecular point group: c1
  Charge       = 0
  Multiplicity = 1
  Basis Set: AUG-CC-PVTZ
    Blend: AUG-CC-PVTZ
  Basis Set: (AUG-CC-PVTZ AUX)
    Blend: AUG-CC-PVTZ-JKFIT

    Orbital Energies [Eh]
    ---------------------

    Doubly Occupied:

       1A    -26.302306     2A    -20.595242     3A    -11.323054
       4A    -11.315128     5A    -11.291506     6A    -11.248203
       7A    -11.246687     8A    -11.246516     9A    -11.241570
      10A     -1.616329    11A     -1.416186    12A     -1.158149
      13A     -1.029236    14A     -1.026749    15A     -0.950784
      16A     -0.847945    17A     -0.832520    18A     -0.745749
      19A     -0.708884    20A     -0.704997    21A     -0.689261
      22A     -0.657378    23A     -0.643057    24A     -0.629948
      25A     -0.620891    26A     -0.579797    27A     -0.547389
      28A     -0.531125    29A     -0.519431    30A     -0.503494
      31A     -0.477488    32A     -0.347319    33A     -0.321408

  @DF-RHF Final Energy:  -443.58784309176815

   => Energetics <=

    Nuclear Repulsion Energy =            430.3003040644556449
    One-Electron Energy =               -1459.9448465355555982
    Two-Electron Energy =                 586.0566993793319170
    Total Energy =                       -443.5878430917681499
  Basis Set: (AUG-CC-PVTZ AUX)
    Blend: AUG-CC-PVTZ-RI
    Molecular point group: c1

    Geometry (in Angstrom), charge = 0, multiplicity = 1:

       Center              X                  Y                   Z               Mass
    ------------   -----------------  -----------------  -----------------  -----------------
         F           -0.153672042620     2.199461961981    -0.000210825372    18.998403162730
         O            1.802067957380     0.323392361981     0.000001474628    15.994914619570
         C            0.510746957380    -0.120068638019     0.000018474628    12.000000000000
         C           -0.471542042620     0.883694361981    -0.000095525372    12.000000000000
         C            0.093011957380    -1.453938638019     0.000132474628    12.000000000000
         C           -1.823232042620     0.589816361981    -0.000096525372    12.000000000000
         C           -1.274029042620    -1.760307638019     0.000132474628    12.000000000000
         C           -2.230768042620    -0.749196638019     0.000019474628    12.000000000000
         C            2.813049957380    -0.681619638019     0.000150474628    12.000000000000
         H            0.819386957380    -2.259533638019     0.000219474628     1.007825032230
         H           -2.535491042620     1.409660361981    -0.000186525372     1.007825032230
         H           -1.581753042620    -2.802668638019     0.000222474628     1.007825032230
         H           -3.289664042620    -0.991348638019     0.000020474628     1.007825032230
         H            2.749249957380    -1.309799638019    -0.894886525372     1.007825032230
         H            2.749169957380    -1.309612638019     0.895314474628     1.007825032230
         H            3.756972957380    -0.138232638019     0.000135474628     1.007825032230

  Basis Set: AUG-CC-PVTZ
    Blend: AUG-CC-PVTZ
  Basis Set: (AUG-CC-PVTZ AUX)
    Blend: AUG-CC-PVTZ-JKFIT
	 Reference Energy          =    -443.5878430917681499 [Eh]
	 Singles Energy            =      -0.0000000000000000 [Eh]
	 Same-Spin Energy          =      -0.4389736134817964 [Eh]
	 Opposite-Spin Energy      =      -1.3498209611327674 [Eh]
	 Correlation Energy        =      -1.7887945746145637 [Eh]
	 Total Energy              =    -445.3766376663826918 [Eh]

	 ================> DF-SCS-MP2 Energies <==================
	-----------------------------------------------------------
	 SCS Same-Spin Scale       =       0.3333333333333333 [-]
	 SCS Opposite-Spin Scale   =       1.2000000000000000 [-]
	 SCS Same-Spin Energy      =      -0.1463245378272655 [Eh]
	 SCS Opposite-Spin Energy  =      -1.6197851533593208 [Eh]
	 SCS Correlation Energy    =      -1.7661096911865863 [Eh]
	 SCS Total Energy          =    -445.3539527829547637 [Eh]
	-----------------------------------------------------------

  Dipole Moment: [D]
     X:     0.5594      Y:    -2.5289      Z:     0.0003     Total:     2.5901

*** Psi4 exiting successfully. Buy a developer a beer!
