                               Psi4 1.4a3.dev225

  ==> Input File <==

--------------------------------------------------------------------------
#psi4
#
memory 32 gb

molecule  {
0 1
  F       -0.0963580     2.2498010    -0.0002150
  O        1.7830629     0.3537734    -0.0000024
  C        0.4770520    -0.0443510     0.0000100
  C       -0.5052370     0.9594120    -0.0001040
  C        0.0593170    -1.3782210     0.0001240
  C       -1.8569270     0.6655340    -0.0001050
  C       -1.3077240    -1.6845900     0.0001240
  C       -2.2644630    -0.6734790     0.0000110
  C        2.7793550    -0.6059020     0.0001420
  H        0.7856920    -2.1838160     0.0002110
  H       -2.5691860     1.4853780    -0.0001950
  H       -1.6154480    -2.7269510     0.0002140
  H       -3.3233590    -0.9156310     0.0000120
  H        2.7155550    -1.2340820    -0.8948950
  H        2.7154750    -1.2338950     0.8953060
  H        3.7232780    -0.0625150     0.0001270
units angstrom
no_reorient  #important for SAPT in psi4, default
symmetry c1  #important for SAPT in psi4, default
}

set PROPERTIES_ORIGIN ["COM"]
properties('MP2/aug-cc-pvtz', properties = ['dipole'])
--------------------------------------------------------------------------

    Molecular point group: c1
  Charge       = 0
  Multiplicity = 1
  Basis Set: AUG-CC-PVTZ
    Blend: AUG-CC-PVTZ
  Basis Set: (AUG-CC-PVTZ AUX)
    Blend: AUG-CC-PVTZ-JKFIT

    Orbital Energies [Eh]
    ---------------------

    Doubly Occupied:

       1A    -26.303355     2A    -20.592188     3A    -11.325574
       4A    -11.315041     5A    -11.286864     6A    -11.249869
       7A    -11.247921     8A    -11.246749     9A    -11.243338
      10A     -1.617313    11A     -1.425854    12A     -1.160124
      13A     -1.033505    14A     -1.027669    15A     -0.949543
      16A     -0.850500    17A     -0.831195    18A     -0.748199
      19A     -0.711682    20A     -0.707807    21A     -0.691092
      22A     -0.662449    23A     -0.644101    24A     -0.635223
      25A     -0.621828    26A     -0.585092    27A     -0.546956
      28A     -0.527737    29A     -0.520252    30A     -0.497460
      31A     -0.475143    32A     -0.348730    33A     -0.321972

  @DF-RHF Final Energy:  -443.58931108436957

   => Energetics <=

    Nuclear Repulsion Energy =            431.2594619413538339
    One-Electron Energy =               -1461.7928966071895047
    Two-Electron Energy =                 586.9441235814659876
    Total Energy =                       -443.5893110843695695
  Basis Set: (AUG-CC-PVTZ AUX)
    Blend: AUG-CC-PVTZ-RI
    Molecular point group: c1

    Geometry (in Angstrom), charge = 0, multiplicity = 1:

       Center              X                  Y                   Z               Mass
    ------------   -----------------  -----------------  -----------------  -----------------
         F           -0.078244312617     2.183661514985    -0.000207757201    18.998403162730
         O            1.801176587383     0.287633914985     0.000004842799    15.994914619570
         C            0.495165687383    -0.110490485015     0.000017242799    12.000000000000
         C           -0.487123312617     0.893272514985    -0.000096757201    12.000000000000
         C            0.077430687383    -1.444360485015     0.000131242799    12.000000000000
         C           -1.838813312617     0.599394514985    -0.000097757201    12.000000000000
         C           -1.289610312617    -1.750729485015     0.000131242799    12.000000000000
         C           -2.246349312617    -0.739618485015     0.000018242799    12.000000000000
         C            2.797468687383    -0.672041485015     0.000149242799    12.000000000000
         H            0.803805687383    -2.249955485015     0.000218242799     1.007825032230
         H           -2.551072312617     1.419238514985    -0.000187757201     1.007825032230
         H           -1.597334312617    -2.793090485015     0.000221242799     1.007825032230
         H           -3.305245312617    -0.981770485015     0.000019242799     1.007825032230
         H            2.733668687383    -1.300221485015    -0.894887757201     1.007825032230
         H            2.733588687383    -1.300034485015     0.895313242799     1.007825032230
         H            3.741391687383    -0.128654485015     0.000134242799     1.007825032230

  Basis Set: AUG-CC-PVTZ
    Blend: AUG-CC-PVTZ
  Basis Set: (AUG-CC-PVTZ AUX)
    Blend: AUG-CC-PVTZ-JKFIT
	 Reference Energy          =    -443.5893110843695695 [Eh]
	 Singles Energy            =      -0.0000000000000000 [Eh]
	 Same-Spin Energy          =      -0.4387269590776215 [Eh]
	 Opposite-Spin Energy      =      -1.3485721820444343 [Eh]
	 Correlation Energy        =      -1.7872991411220558 [Eh]
	 Total Energy              =    -445.3766102254916177 [Eh]

	 ================> DF-SCS-MP2 Energies <==================
	-----------------------------------------------------------
	 SCS Same-Spin Scale       =       0.3333333333333333 [-]
	 SCS Opposite-Spin Scale   =       1.2000000000000000 [-]
	 SCS Same-Spin Energy      =      -0.1462423196925405 [Eh]
	 SCS Opposite-Spin Energy  =      -1.6182866184533211 [Eh]
	 SCS Correlation Energy    =      -1.7645289381458615 [Eh]
	 SCS Total Energy          =    -445.3538400225154419 [Eh]
	-----------------------------------------------------------

  Dipole Moment: [D]
     X:     0.3495      Y:    -2.3966      Z:     0.0003     Total:     2.4219

*** Psi4 exiting successfully. Buy a developer a beer!
