                               Psi4 1.4a3.dev225

  ==> Input File <==

--------------------------------------------------------------------------
#psi4
#
memory 32 gb

molecule  {
0 1
  F       -0.0963580     2.2498010    -0.0002150
  O        1.7683730     0.3991100    -0.0000070
  C        0.4770520    -0.0443510     0.0000100
  C       -0.5052370     0.9594120    -0.0001040
  C        0.0593170    -1.3782210     0.0001240
  C       -1.8569270     0.6655340    -0.0001050
  C       -1.3077240    -1.6845900     0.0001240
  C       -2.2644630    -0.6734790     0.0000110
  C        2.7793550    -0.6059020     0.0001420
  H        0.7856920    -2.1838160     0.0002110
  H       -2.5691860     1.4853780    -0.0001950
  H       -1.6154480    -2.7269510     0.0002140
  H       -3.3233590    -0.9156310     0.0000120
  H        2.7155550    -1.2340820    -0.8948950
  H        2.7143086    -1.2453616     0.9116509
  H        3.7232780    -0.0625150     0.0001270
units angstrom
no_reorient  #important for SAPT in psi4, default
symmetry c1  #important for SAPT in psi4, default
}

set PROPERTIES_ORIGIN ["COM"]
properties('MP2/aug-cc-pvtz', properties = ['dipole'])
--------------------------------------------------------------------------

    Molecular point group: c1
  Charge       = 0
  Multiplicity = 1
  Basis Set: AUG-CC-PVTZ
    Blend: AUG-CC-PVTZ
  Basis Set: (AUG-CC-PVTZ AUX)
    Blend: AUG-CC-PVTZ-JKFIT

    Orbital Energies [Eh]
    ---------------------

    Doubly Occupied:

       1A    -26.302210     2A    -20.595048     3A    -11.323385
       4A    -11.313192     5A    -11.293382     6A    -11.248599
       7A    -11.247664     8A    -11.246480     9A    -11.242395
      10A     -1.616184    11A     -1.415552    12A     -1.158295
      13A     -1.029058    14A     -1.026642    15A     -0.949072
      16A     -0.848814    17A     -0.830710    18A     -0.745423
      19A     -0.709374    20A     -0.705012    21A     -0.689219
      22A     -0.654938    23A     -0.641911    24A     -0.628622
      25A     -0.621332    26A     -0.581132    27A     -0.547934
      28A     -0.529179    29A     -0.519399    30A     -0.502095
      31A     -0.477288    32A     -0.348099    33A     -0.320927

  @DF-RHF Final Energy:  -443.58815684797895

   => Energetics <=

    Nuclear Repulsion Energy =            430.7731594681844172
    One-Electron Energy =               -1460.9054997032972096
    Two-Electron Energy =                 586.5441833871336712
    Total Energy =                       -443.5881568479790076
  Basis Set: (AUG-CC-PVTZ AUX)
    Blend: AUG-CC-PVTZ-RI
    Molecular point group: c1

    Geometry (in Angstrom), charge = 0, multiplicity = 1:

       Center              X                  Y                   Z               Mass
    ------------   -----------------  -----------------  -----------------  -----------------
         F           -0.076370906858     2.178000193955    -0.000337860104    18.998403162730
         O            1.788360093142     0.327309193955    -0.000129860104    15.994914619570
         C            0.497039093142    -0.116151806045    -0.000112860104    12.000000000000
         C           -0.485249906858     0.887611193955    -0.000226860104    12.000000000000
         C            0.079304093142    -1.450021806045     0.000001139896    12.000000000000
         C           -1.836939906858     0.593733193955    -0.000227860104    12.000000000000
         C           -1.287736906858    -1.756390806045     0.000001139896    12.000000000000
         C           -2.244475906858    -0.745279806045    -0.000111860104    12.000000000000
         C            2.799342093142    -0.677702806045     0.000019139896    12.000000000000
         H            0.805679093142    -2.255616806045     0.000088139896     1.007825032230
         H           -2.549198906858     1.413577193955    -0.000317860104     1.007825032230
         H           -1.595460906858    -2.798751806045     0.000091139896     1.007825032230
         H           -3.303371906858    -0.987431806045    -0.000110860104     1.007825032230
         H            2.735542093142    -1.305882806045    -0.895017860104     1.007825032230
         H            2.734295693142    -1.317162406045     0.911528039896     1.007825032230
         H            3.743265093142    -0.134315806045     0.000004139896     1.007825032230

  Basis Set: AUG-CC-PVTZ
    Blend: AUG-CC-PVTZ
  Basis Set: (AUG-CC-PVTZ AUX)
    Blend: AUG-CC-PVTZ-JKFIT
	 Reference Energy          =    -443.5881568479789507 [Eh]
	 Singles Energy            =      -0.0000000000000000 [Eh]
	 Same-Spin Energy          =      -0.4390580888652568 [Eh]
	 Opposite-Spin Energy      =      -1.3500130606524188 [Eh]
	 Correlation Energy        =      -1.7890711495176754 [Eh]
	 Total Energy              =    -445.3772279974966182 [Eh]

	 ================> DF-SCS-MP2 Energies <==================
	-----------------------------------------------------------
	 SCS Same-Spin Scale       =       0.3333333333333333 [-]
	 SCS Opposite-Spin Scale   =       1.2000000000000000 [-]
	 SCS Same-Spin Energy      =      -0.1463526962884189 [Eh]
	 SCS Opposite-Spin Energy  =      -1.6200156727829025 [Eh]
	 SCS Correlation Energy    =      -1.7663683690713214 [Eh]
	 SCS Total Energy          =    -445.3545252170502522 [Eh]
	-----------------------------------------------------------

  Dipole Moment: [D]
     X:     0.4752      Y:    -2.4877      Z:    -0.0091     Total:     2.5327

*** Psi4 exiting successfully. Buy a developer a beer!
