                               Psi4 1.4a3.dev225

  ==> Input File <==

--------------------------------------------------------------------------
#psi4
#
memory 32 gb

molecule  {
0 1
  F       -0.0963580     2.2498010    -0.0002150
  O        1.7683730     0.3991100    -0.0000070
  C        0.4770520    -0.0443510     0.0000100
  C       -0.5052370     0.9594120    -0.0001040
  C        0.0593170    -1.3782210     0.0001240
  C       -1.8569270     0.6655340    -0.0001050
  C       -1.4053035    -1.7064586     0.0001240
  C       -2.2644630    -0.6734790     0.0000110
  C        2.7793550    -0.6059020     0.0001420
  H        0.7856920    -2.1838160     0.0002110
  H       -2.5691860     1.4853780    -0.0001950
  H       -1.6154480    -2.7269510     0.0002140
  H       -3.3233590    -0.9156310     0.0000120
  H        2.7155550    -1.2340820    -0.8948950
  H        2.7154750    -1.2338950     0.8953060
  H        3.7232780    -0.0625150     0.0001270
units angstrom
no_reorient  #important for SAPT in psi4, default
symmetry c1  #important for SAPT in psi4, default
}

set PROPERTIES_ORIGIN ["COM"]
properties('MP2/aug-cc-pvtz', properties = ['dipole'])
--------------------------------------------------------------------------

    Molecular point group: c1
  Charge       = 0
  Multiplicity = 1
  Basis Set: AUG-CC-PVTZ
    Blend: AUG-CC-PVTZ
  Basis Set: (AUG-CC-PVTZ AUX)
    Blend: AUG-CC-PVTZ-JKFIT

    Orbital Energies [Eh]
    ---------------------

    Doubly Occupied:

       1A    -26.304293     2A    -20.594542     3A    -11.327325
       4A    -11.313436     5A    -11.290496     6A    -11.253486
       7A    -11.248453     8A    -11.246996     9A    -11.238682
      10A     -1.618166    11A     -1.415162    12A     -1.154818
      13A     -1.035256    14A     -1.016733    15A     -0.952693
      16A     -0.854822    17A     -0.826056    18A     -0.744566
      19A     -0.711022    20A     -0.708390    21A     -0.690521
      22A     -0.656153    23A     -0.646966    24A     -0.628199
      25A     -0.616997    26A     -0.586876    27A     -0.549971
      28A     -0.528435    29A     -0.510307    30A     -0.502355
      31A     -0.477354    32A     -0.337288    33A     -0.330582

  @DF-RHF Final Energy:  -443.57758353796123

   => Energetics <=

    Nuclear Repulsion Energy =            429.7711628208265893
    One-Electron Energy =               -1458.8626981182296731
    Two-Electron Energy =                 585.5139517594417384
    Total Energy =                       -443.5775835379612317
  Basis Set: (AUG-CC-PVTZ AUX)
    Blend: AUG-CC-PVTZ-RI
    Molecular point group: c1

    Geometry (in Angstrom), charge = 0, multiplicity = 1:

       Center              X                  Y                   Z               Mass
    ------------   -----------------  -----------------  -----------------  -----------------
         F           -0.067090492970     2.179990441229    -0.000207173483    18.998403162730
         O            1.797640507030     0.329299441229     0.000000826517    15.994914619570
         C            0.506319507030    -0.114161558771     0.000017826517    12.000000000000
         C           -0.475969492970     0.889601441229    -0.000096173483    12.000000000000
         C            0.088584507030    -1.448031558771     0.000131826517    12.000000000000
         C           -1.827659492970     0.595723441229    -0.000097173483    12.000000000000
         C           -1.376035992970    -1.776269158771     0.000131826517    12.000000000000
         C           -2.235195492970    -0.743289558771     0.000018826517    12.000000000000
         C            2.808622507030    -0.675712558771     0.000149826517    12.000000000000
         H            0.814959507030    -2.253626558771     0.000218826517     1.007825032230
         H           -2.539918492970     1.415567441229    -0.000187173483     1.007825032230
         H           -1.586180492970    -2.796761558771     0.000221826517     1.007825032230
         H           -3.294091492970    -0.985441558771     0.000019826517     1.007825032230
         H            2.744822507030    -1.303892558771    -0.894887173483     1.007825032230
         H            2.744742507030    -1.303705558771     0.895313826517     1.007825032230
         H            3.752545507030    -0.132325558771     0.000134826517     1.007825032230

  Basis Set: AUG-CC-PVTZ
    Blend: AUG-CC-PVTZ
  Basis Set: (AUG-CC-PVTZ AUX)
    Blend: AUG-CC-PVTZ-JKFIT
	 Reference Energy          =    -443.5775835379612317 [Eh]
	 Singles Energy            =      -0.0000000000000000 [Eh]
	 Same-Spin Energy          =      -0.4385766080171092 [Eh]
	 Opposite-Spin Energy      =      -1.3505540089506385 [Eh]
	 Correlation Energy        =      -1.7891306169677477 [Eh]
	 Total Energy              =    -445.3667141549289568 [Eh]

	 ================> DF-SCS-MP2 Energies <==================
	-----------------------------------------------------------
	 SCS Same-Spin Scale       =       0.3333333333333333 [-]
	 SCS Opposite-Spin Scale   =       1.2000000000000000 [-]
	 SCS Same-Spin Energy      =      -0.1461922026723697 [Eh]
	 SCS Opposite-Spin Energy  =      -1.6206648107407662 [Eh]
	 SCS Correlation Energy    =      -1.7668570134131358 [Eh]
	 SCS Total Energy          =    -445.3444405513743618 [Eh]
	-----------------------------------------------------------

  Dipole Moment: [D]
     X:     0.4650      Y:    -2.4744      Z:     0.0003     Total:     2.5177

*** Psi4 exiting successfully. Buy a developer a beer!
