                               Psi4 1.4a3.dev225

  ==> Input File <==

--------------------------------------------------------------------------
#psi4
#
memory 32 gb

molecule  {
0 1
  F       -0.0963580     2.2498010    -0.0002150
  O        1.7683730     0.3991100    -0.0000070
  C        0.4770520    -0.0443510     0.0000100
  C       -0.5052370     0.9594120    -0.0001040
  C        0.0593170    -1.3782210     0.0001240
  C       -1.8080684     0.6761566    -0.0001050
  C       -1.3077240    -1.6845900     0.0001240
  C       -2.2644630    -0.6734790     0.0000110
  C        2.7793550    -0.6059020     0.0001420
  H        0.7856920    -2.1838160     0.0002110
  H       -2.5691860     1.4853780    -0.0001950
  H       -1.6154480    -2.7269510     0.0002140
  H       -3.3233590    -0.9156310     0.0000120
  H        2.7155550    -1.2340820    -0.8948950
  H        2.7154750    -1.2338950     0.8953060
  H        3.7232780    -0.0625150     0.0001270
units angstrom
no_reorient  #important for SAPT in psi4, default
symmetry c1  #important for SAPT in psi4, default
}

set PROPERTIES_ORIGIN ["COM"]
properties('MP2/aug-cc-pvtz', properties = ['dipole'])
--------------------------------------------------------------------------

    Molecular point group: c1
  Charge       = 0
  Multiplicity = 1
  Basis Set: AUG-CC-PVTZ
    Blend: AUG-CC-PVTZ
  Basis Set: (AUG-CC-PVTZ AUX)
    Blend: AUG-CC-PVTZ-JKFIT

    Orbital Energies [Eh]
    ---------------------

    Doubly Occupied:

       1A    -26.300833     2A    -20.595777     3A    -11.318176
       4A    -11.314467     5A    -11.291219     6A    -11.247140
       7A    -11.246448     8A    -11.245372     9A    -11.243949
      10A     -1.615592    11A     -1.416162    12A     -1.161345
      13A     -1.032766    14A     -1.025946    15A     -0.951893
      16A     -0.845700    17A     -0.833687    18A     -0.746723
      19A     -0.709589    20A     -0.703607    21A     -0.689735
      22A     -0.656563    23A     -0.640355    24A     -0.629902
      25A     -0.618765    26A     -0.580684    27A     -0.544396
      28A     -0.531335    29A     -0.522932    30A     -0.500189
      31A     -0.478013    32A     -0.352952    33A     -0.319803

  @DF-RHF Final Energy:  -443.58614871187115

   => Energetics <=

    Nuclear Repulsion Energy =            431.6187460481565950
    One-Electron Energy =               -1462.5857597432993771
    Two-Electron Energy =                 587.3808649832715219
    Total Energy =                       -443.5861487118711466
  Basis Set: (AUG-CC-PVTZ AUX)
    Blend: AUG-CC-PVTZ-RI
    Molecular point group: c1

    Geometry (in Angstrom), charge = 0, multiplicity = 1:

       Center              X                  Y                   Z               Mass
    ------------   -----------------  -----------------  -----------------  -----------------
         F           -0.081031657474     2.176897221882    -0.000207173483    18.998403162730
         O            1.783699342526     0.326206221882     0.000000826517    15.994914619570
         C            0.492378342526    -0.117254778118     0.000017826517    12.000000000000
         C           -0.489910657474     0.886508221882    -0.000096173483    12.000000000000
         C            0.074643342526    -1.451124778118     0.000131826517    12.000000000000
         C           -1.792742057474     0.603252821882    -0.000097173483    12.000000000000
         C           -1.292397657474    -1.757493778118     0.000131826517    12.000000000000
         C           -2.249136657474    -0.746382778118     0.000018826517    12.000000000000
         C            2.794681342526    -0.678805778118     0.000149826517    12.000000000000
         H            0.801018342526    -2.256719778118     0.000218826517     1.007825032230
         H           -2.553859657474     1.412474221882    -0.000187173483     1.007825032230
         H           -1.600121657474    -2.799854778118     0.000221826517     1.007825032230
         H           -3.308032657474    -0.988534778118     0.000019826517     1.007825032230
         H            2.730881342526    -1.306985778118    -0.894887173483     1.007825032230
         H            2.730801342526    -1.306798778118     0.895313826517     1.007825032230
         H            3.738604342526    -0.135418778118     0.000134826517     1.007825032230

  Basis Set: AUG-CC-PVTZ
    Blend: AUG-CC-PVTZ
  Basis Set: (AUG-CC-PVTZ AUX)
    Blend: AUG-CC-PVTZ-JKFIT
	 Reference Energy          =    -443.5861487118711466 [Eh]
	 Singles Energy            =      -0.0000000000000000 [Eh]
	 Same-Spin Energy          =      -0.4388025071667399 [Eh]
	 Opposite-Spin Energy      =      -1.3495943692172334 [Eh]
	 Correlation Energy        =      -1.7883968763839733 [Eh]
	 Total Energy              =    -445.3745455882551028 [Eh]

	 ================> DF-SCS-MP2 Energies <==================
	-----------------------------------------------------------
	 SCS Same-Spin Scale       =       0.3333333333333333 [-]
	 SCS Opposite-Spin Scale   =       1.2000000000000000 [-]
	 SCS Same-Spin Energy      =      -0.1462675023889133 [Eh]
	 SCS Opposite-Spin Energy  =      -1.6195132430606800 [Eh]
	 SCS Correlation Energy    =      -1.7657807454495933 [Eh]
	 SCS Total Energy          =    -445.3519294573207503 [Eh]
	-----------------------------------------------------------

  Dipole Moment: [D]
     X:     0.4785      Y:    -2.5250      Z:     0.0003     Total:     2.5699

*** Psi4 exiting successfully. Buy a developer a beer!
