                               Psi4 1.4a3.dev225

  ==> Input File <==

--------------------------------------------------------------------------
#psi4
#
memory 32 gb

molecule  {
0 1
  F       -0.0963580     2.2498010    -0.0002150
  O        1.7683730     0.3991100    -0.0000070
  C        0.4770520    -0.0443510     0.0000100
  C       -0.5052370     0.9594120    -0.0001040
  C        0.0593170    -1.3782210     0.0001240
  C       -1.8569270     0.6655340    -0.0001050
  C       -1.3077240    -1.6845900     0.0001240
  C       -2.2644630    -0.6734790     0.0000110
  C        2.7793550    -0.6059020     0.0001420
  H        0.7856920    -2.1838160     0.0002110
  H       -2.5691860     1.4853780    -0.0001950
  H       -1.6154480    -2.7269510     0.0002140
  H       -3.3233590    -0.9156310     0.0000120
  H        2.7155550    -1.2340820    -0.8948950
  H        2.7038111    -1.3485611     1.0587552
  H        3.7232780    -0.0625150     0.0001270
units angstrom
no_reorient  #important for SAPT in psi4, default
symmetry c1  #important for SAPT in psi4, default
}

set PROPERTIES_ORIGIN ["COM"]
properties('MP2/aug-cc-pvtz', properties = ['dipole'])
--------------------------------------------------------------------------

    Molecular point group: c1
  Charge       = 0
  Multiplicity = 1
  Basis Set: AUG-CC-PVTZ
    Blend: AUG-CC-PVTZ
  Basis Set: (AUG-CC-PVTZ AUX)
    Blend: AUG-CC-PVTZ-JKFIT

    Orbital Energies [Eh]
    ---------------------

    Doubly Occupied:

       1A    -26.303005     2A    -20.599465     3A    -11.324286
       4A    -11.313830     5A    -11.313429     6A    -11.248915
       7A    -11.247917     8A    -11.246675     9A    -11.243018
      10A     -1.616999    11A     -1.418262    12A     -1.158783
      13A     -1.029104    14A     -1.026402    15A     -0.941049
      16A     -0.848738    17A     -0.828859    18A     -0.745433
      19A     -0.710046    20A     -0.703970    21A     -0.689224
      22A     -0.648277    23A     -0.637553    24A     -0.630458
      25A     -0.621464    26A     -0.582076    27A     -0.547642
      28A     -0.521901    29A     -0.517668    30A     -0.498918
      31A     -0.470027    32A     -0.348356    33A     -0.321844

  @DF-RHF Final Energy:  -443.56837307223861

   => Energetics <=

    Nuclear Repulsion Energy =            430.0953633967363317
    One-Electron Energy =               -1459.5202891804922274
    Two-Electron Energy =                 585.8565527115173381
    Total Energy =                       -443.5683730722386144
  Basis Set: (AUG-CC-PVTZ AUX)
    Blend: AUG-CC-PVTZ-RI
    Molecular point group: c1

    Geometry (in Angstrom), charge = 0, multiplicity = 1:

       Center              X                  Y                   Z               Mass
    ------------   -----------------  -----------------  -----------------  -----------------
         F           -0.076286973471     2.178825331702    -0.001514041293    18.998403162730
         O            1.788444026529     0.328134331702    -0.001306041293    15.994914619570
         C            0.497123026529    -0.115326668298    -0.001289041293    12.000000000000
         C           -0.485165973471     0.888436331702    -0.001403041293    12.000000000000
         C            0.079388026529    -1.449196668298    -0.001175041293    12.000000000000
         C           -1.836855973471     0.594558331702    -0.001404041293    12.000000000000
         C           -1.287652973471    -1.755565668298    -0.001175041293    12.000000000000
         C           -2.244391973471    -0.744454668298    -0.001288041293    12.000000000000
         C            2.799426026529    -0.676877668298    -0.001157041293    12.000000000000
         H            0.805763026529    -2.254791668298    -0.001088041293     1.007825032230
         H           -2.549114973471     1.414402331702    -0.001494041293     1.007825032230
         H           -1.595376973471    -2.797926668298    -0.001085041293     1.007825032230
         H           -3.303287973471    -0.986606668298    -0.001287041293     1.007825032230
         H            2.735626026529    -1.305057668298    -0.896194041293     1.007825032230
         H            2.723882126529    -1.419536768298     1.057456158707     1.007825032230
         H            3.743349026529    -0.133490668298    -0.001172041293     1.007825032230

  Basis Set: AUG-CC-PVTZ
    Blend: AUG-CC-PVTZ
  Basis Set: (AUG-CC-PVTZ AUX)
    Blend: AUG-CC-PVTZ-JKFIT
	 Reference Energy          =    -443.5683730722386144 [Eh]
	 Singles Energy            =      -0.0000000000000000 [Eh]
	 Same-Spin Energy          =      -0.4393547018480071 [Eh]
	 Opposite-Spin Energy      =      -1.3517779996166042 [Eh]
	 Correlation Energy        =      -1.7911327014646112 [Eh]
	 Total Energy              =    -445.3595057737032334 [Eh]

	 ================> DF-SCS-MP2 Energies <==================
	-----------------------------------------------------------
	 SCS Same-Spin Scale       =       0.3333333333333333 [-]
	 SCS Opposite-Spin Scale   =       1.2000000000000000 [-]
	 SCS Same-Spin Energy      =      -0.1464515672826690 [Eh]
	 SCS Opposite-Spin Energy  =      -1.6221335995399249 [Eh]
	 SCS Correlation Energy    =      -1.7685851668225938 [Eh]
	 SCS Total Energy          =    -445.3369582390612322 [Eh]
	-----------------------------------------------------------

  Dipole Moment: [D]
     X:     0.3900      Y:    -2.3953      Z:    -0.1188     Total:     2.4297

*** Psi4 exiting successfully. Buy a developer a beer!
