                               Psi4 1.4a3.dev225

  ==> Input File <==

--------------------------------------------------------------------------
#psi4
#
memory 32 gb

molecule  {
0 1
  F       -0.0963580     2.2498010    -0.0002150
  O        1.7769562     0.4074330    -0.0218259
  C        0.4770520    -0.0443510     0.0000100
  C       -0.5052370     0.9594120    -0.0001040
  C        0.0593170    -1.3782210     0.0001240
  C       -1.8569270     0.6655340    -0.0001050
  C       -1.3077240    -1.6845900     0.0001240
  C       -2.2644630    -0.6734790     0.0000110
  C        2.7793550    -0.6059020     0.0001420
  H        0.7856920    -2.1838160     0.0002110
  H       -2.5691860     1.4853780    -0.0001950
  H       -1.6154480    -2.7269510     0.0002140
  H       -3.3233590    -0.9156310     0.0000120
  H        2.7155550    -1.2340820    -0.8948950
  H        2.7154750    -1.2338950     0.8953060
  H        3.7232780    -0.0625150     0.0001270
units angstrom
no_reorient  #important for SAPT in psi4, default
symmetry c1  #important for SAPT in psi4, default
}

set PROPERTIES_ORIGIN ["COM"]
properties('MP2/aug-cc-pvtz', properties = ['dipole'])
--------------------------------------------------------------------------

    Molecular point group: c1
  Charge       = 0
  Multiplicity = 1
  Basis Set: AUG-CC-PVTZ
    Blend: AUG-CC-PVTZ
  Basis Set: (AUG-CC-PVTZ AUX)
    Blend: AUG-CC-PVTZ-JKFIT

    Orbital Energies [Eh]
    ---------------------

    Doubly Occupied:

       1A    -26.302474     2A    -20.594600     3A    -11.324150
       4A    -11.313559     5A    -11.289987     6A    -11.248947
       7A    -11.248559     8A    -11.247134     9A    -11.243211
      10A     -1.616414    11A     -1.411239    12A     -1.158887
      13A     -1.029256    14A     -1.026781    15A     -0.949213
      16A     -0.848857    17A     -0.831556    18A     -0.745332
      19A     -0.709003    20A     -0.704407    21A     -0.689185
      22A     -0.654920    23A     -0.642177    24A     -0.627230
      25A     -0.621761    26A     -0.581127    27A     -0.548117
      28A     -0.529385    29A     -0.518821    30A     -0.503351
      31A     -0.477519    32A     -0.348591    33A     -0.322129

  @DF-RHF Final Energy:  -443.58790235099571

   => Energetics <=

    Nuclear Repulsion Energy =            430.5640193428892530
    One-Electron Energy =               -1460.4880834511766352
    Two-Electron Energy =                 586.3361617572917339
    Total Energy =                       -443.5879023509957051
  Basis Set: (AUG-CC-PVTZ AUX)
    Blend: AUG-CC-PVTZ-RI
    Molecular point group: c1

    Geometry (in Angstrom), charge = 0, multiplicity = 1:

       Center              X                  Y                   Z               Mass
    ------------   -----------------  -----------------  -----------------  -----------------
         F           -0.077469400893     2.176852362224     0.002561543078    18.998403162730
         O            1.795844799107     0.334484362224    -0.019049356922    15.994914619570
         C            0.495940599107    -0.117299637776     0.002786543078    12.000000000000
         C           -0.486348400893     0.886463362224     0.002672543078    12.000000000000
         C            0.078205599107    -1.451169637776     0.002900543078    12.000000000000
         C           -1.838038400893     0.592585362224     0.002671543078    12.000000000000
         C           -1.288835400893    -1.757538637776     0.002900543078    12.000000000000
         C           -2.245574400893    -0.746427637776     0.002787543078    12.000000000000
         C            2.798243599107    -0.678850637776     0.002918543078    12.000000000000
         H            0.804580599107    -2.256764637776     0.002987543078     1.007825032230
         H           -2.550297400893     1.412429362224     0.002581543078     1.007825032230
         H           -1.596559400893    -2.799899637776     0.002990543078     1.007825032230
         H           -3.304470400893    -0.988579637776     0.002788543078     1.007825032230
         H            2.734443599107    -1.307030637776    -0.892118456922     1.007825032230
         H            2.734363599107    -1.306843637776     0.898082543078     1.007825032230
         H            3.742166599107    -0.135463637776     0.002903543078     1.007825032230

  Basis Set: AUG-CC-PVTZ
    Blend: AUG-CC-PVTZ
  Basis Set: (AUG-CC-PVTZ AUX)
    Blend: AUG-CC-PVTZ-JKFIT
	 Reference Energy          =    -443.5879023509957051 [Eh]
	 Singles Energy            =      -0.0000000000000000 [Eh]
	 Same-Spin Energy          =      -0.4391011532109954 [Eh]
	 Opposite-Spin Energy      =      -1.3502002995799656 [Eh]
	 Correlation Energy        =      -1.7893014527909610 [Eh]
	 Total Energy              =    -445.3772038037866423 [Eh]

	 ================> DF-SCS-MP2 Energies <==================
	-----------------------------------------------------------
	 SCS Same-Spin Scale       =       0.3333333333333333 [-]
	 SCS Opposite-Spin Scale   =       1.2000000000000000 [-]
	 SCS Same-Spin Energy      =      -0.1463670510703318 [Eh]
	 SCS Opposite-Spin Energy  =      -1.6202403594959587 [Eh]
	 SCS Correlation Energy    =      -1.7666074105662906 [Eh]
	 SCS Total Energy          =    -445.3545097615619852 [Eh]
	-----------------------------------------------------------

  Dipole Moment: [D]
     X:     0.4051      Y:    -2.5132      Z:     0.0257     Total:     2.5458

*** Psi4 exiting successfully. Buy a developer a beer!
