                               Psi4 1.4a3.dev225

  ==> Input File <==

--------------------------------------------------------------------------
#psi4
#
memory 32 gb

molecule  {
0 1
  F       -0.0963580     2.2498010    -0.0002150
  O        1.7683730     0.3991100    -0.0000070
  C        0.4770520    -0.0443510     0.0000100
  C       -0.5052370     0.9594120    -0.0001040
  C        0.0593170    -1.3782210     0.0001240
  C       -1.6614927     0.7080244    -0.0001049
  C       -1.3077240    -1.6845900     0.0001240
  C       -2.2644630    -0.6734790     0.0000110
  C        2.7793550    -0.6059020     0.0001420
  H        0.7856920    -2.1838160     0.0002110
  H       -2.5691860     1.4853780    -0.0001950
  H       -1.6154480    -2.7269510     0.0002140
  H       -3.3233590    -0.9156310     0.0000120
  H        2.7155550    -1.2340820    -0.8948950
  H        2.7154750    -1.2338950     0.8953060
  H        3.7232780    -0.0625150     0.0001270
units angstrom
no_reorient  #important for SAPT in psi4, default
symmetry c1  #important for SAPT in psi4, default
}

set PROPERTIES_ORIGIN ["COM"]
properties('MP2/aug-cc-pvtz', properties = ['dipole'])
--------------------------------------------------------------------------

    Molecular point group: c1
  Charge       = 0
  Multiplicity = 1
  Basis Set: AUG-CC-PVTZ
    Blend: AUG-CC-PVTZ
  Basis Set: (AUG-CC-PVTZ AUX)
    Blend: AUG-CC-PVTZ-JKFIT

    Orbital Energies [Eh]
    ---------------------

    Doubly Occupied:

       1A    -26.295370     2A    -20.599077     3A    -11.318458
       4A    -11.297507     5A    -11.291822     6A    -11.250138
       7A    -11.246948     8A    -11.241341     9A    -11.237006
      10A     -1.613002    11A     -1.418517    12A     -1.177080
      13A     -1.054549    14A     -1.018036    15A     -0.953883
      16A     -0.846844    17A     -0.829502    18A     -0.750499
      19A     -0.710222    20A     -0.697024    21A     -0.691595
      22A     -0.657262    23A     -0.643290    24A     -0.631706
      25A     -0.607523    26A     -0.579978    27A     -0.542936
      28A     -0.535640    29A     -0.520271    30A     -0.481941
      31A     -0.481413    32A     -0.376381    33A     -0.313546

  @DF-RHF Final Energy:  -443.52557641934749

   => Energetics <=

    Nuclear Repulsion Energy =            434.2150136081348819
    One-Electron Energy =               -1467.6605598502460452
    Two-Electron Energy =                 589.9199698227636190
    Total Energy =                       -443.5255764193474306
  Basis Set: (AUG-CC-PVTZ AUX)
    Blend: AUG-CC-PVTZ-RI
    Molecular point group: c1

    Geometry (in Angstrom), charge = 0, multiplicity = 1:

       Center              X                  Y                   Z               Mass
    ------------   -----------------  -----------------  -----------------  -----------------
         F           -0.094985921739     2.173863351310    -0.000207183003    18.998403162730
         O            1.769745078261     0.323172351310     0.000000816997    15.994914619570
         C            0.478424078261    -0.120288648690     0.000017816997    12.000000000000
         C           -0.503864921739     0.883474351310    -0.000096183003    12.000000000000
         C            0.060689078261    -1.454158648690     0.000131816997    12.000000000000
         C           -1.660120621739     0.632086751310    -0.000097083003    12.000000000000
         C           -1.306351921739    -1.760527648690     0.000131816997    12.000000000000
         C           -2.263090921739    -0.749416648690     0.000018816997    12.000000000000
         C            2.780727078261    -0.681839648690     0.000149816997    12.000000000000
         H            0.787064078261    -2.259753648690     0.000218816997     1.007825032230
         H           -2.567813921739     1.409440351310    -0.000187183003     1.007825032230
         H           -1.614075921739    -2.802888648690     0.000221816997     1.007825032230
         H           -3.321986921739    -0.991568648690     0.000019816997     1.007825032230
         H            2.716927078261    -1.310019648690    -0.894887183003     1.007825032230
         H            2.716847078261    -1.309832648690     0.895313816997     1.007825032230
         H            3.724650078261    -0.138452648690     0.000134816997     1.007825032230

  Basis Set: AUG-CC-PVTZ
    Blend: AUG-CC-PVTZ
  Basis Set: (AUG-CC-PVTZ AUX)
    Blend: AUG-CC-PVTZ-JKFIT
	 Reference Energy          =    -443.5255764193474874 [Eh]
	 Singles Energy            =      -0.0000000000000000 [Eh]
	 Same-Spin Energy          =      -0.4379831268450075 [Eh]
	 Opposite-Spin Energy      =      -1.3503808353671298 [Eh]
	 Correlation Energy        =      -1.7883639622121374 [Eh]
	 Total Energy              =    -445.3139403815596324 [Eh]

	 ================> DF-SCS-MP2 Energies <==================
	-----------------------------------------------------------
	 SCS Same-Spin Scale       =       0.3333333333333333 [-]
	 SCS Opposite-Spin Scale   =       1.2000000000000000 [-]
	 SCS Same-Spin Energy      =      -0.1459943756150025 [Eh]
	 SCS Opposite-Spin Energy  =      -1.6204570024405558 [Eh]
	 SCS Correlation Energy    =      -1.7664513780555582 [Eh]
	 SCS Total Energy          =    -445.2920277974030228 [Eh]
	-----------------------------------------------------------

  Dipole Moment: [D]
     X:     0.4280      Y:    -2.6436      Z:     0.0003     Total:     2.6781

*** Psi4 exiting successfully. Buy a developer a beer!
