                               Psi4 1.4a3.dev225

  ==> Input File <==

--------------------------------------------------------------------------
#psi4
#
memory 32 gb

molecule  {
0 1
  F       -0.0963580     2.2498010    -0.0002150
  O        1.7604369     0.4215791    -0.0000093
  C        0.4770520    -0.0443510     0.0000100
  C       -0.5052370     0.9594120    -0.0001040
  C        0.0593170    -1.3782210     0.0001240
  C       -1.8569270     0.6655340    -0.0001050
  C       -1.3077240    -1.6845900     0.0001240
  C       -2.2644630    -0.6734790     0.0000110
  C        2.7793550    -0.6059020     0.0001420
  H        0.7856920    -2.1838160     0.0002110
  H       -2.5691860     1.4853780    -0.0001950
  H       -1.6154480    -2.7269510     0.0002140
  H       -3.3233590    -0.9156310     0.0000120
  H        2.7155550    -1.2340820    -0.8948950
  H        2.7154750    -1.2338950     0.8953060
  H        3.7232780    -0.0625150     0.0001270
units angstrom
no_reorient  #important for SAPT in psi4, default
symmetry c1  #important for SAPT in psi4, default
}

set PROPERTIES_ORIGIN ["COM"]
properties('MP2/aug-cc-pvtz', properties = ['dipole'])
--------------------------------------------------------------------------

    Molecular point group: c1
  Charge       = 0
  Multiplicity = 1
  Basis Set: AUG-CC-PVTZ
    Blend: AUG-CC-PVTZ
  Basis Set: (AUG-CC-PVTZ AUX)
    Blend: AUG-CC-PVTZ-JKFIT

    Orbital Energies [Eh]
    ---------------------

    Doubly Occupied:

       1A    -26.301549     2A    -20.595763     3A    -11.322206
       4A    -11.312304     5A    -11.293129     6A    -11.247939
       7A    -11.247551     8A    -11.246317     9A    -11.241861
      10A     -1.615540    11A     -1.410495    12A     -1.157380
      13A     -1.027629    14A     -1.025739    15A     -0.951001
      16A     -0.848189    17A     -0.830843    18A     -0.744234
      19A     -0.708483    20A     -0.703907    21A     -0.688466
      22A     -0.653359    23A     -0.641037    24A     -0.625379
      25A     -0.621071    26A     -0.578816    27A     -0.548972
      28A     -0.531819    29A     -0.519347    30A     -0.503650
      31A     -0.478662    32A     -0.347769    33A     -0.320264

  @DF-RHF Final Energy:  -443.58714693037336

   => Energetics <=

    Nuclear Repulsion Energy =            430.6738348817496558
    One-Electron Energy =               -1460.7406260380005278
    Two-Electron Energy =                 586.4796442258775642
    Total Energy =                       -443.5871469303733647
  Basis Set: (AUG-CC-PVTZ AUX)
    Blend: AUG-CC-PVTZ-RI
    Molecular point group: c1

    Geometry (in Angstrom), charge = 0, multiplicity = 1:

       Center              X                  Y                   Z               Mass
    ------------   -----------------  -----------------  -----------------  -----------------
         F           -0.075373178833     2.175057288167    -0.000206881624    18.998403162730
         O            1.781421721167     0.346835388167    -0.000001181624    15.994914619570
         C            0.498036821167    -0.119094711833     0.000018118376    12.000000000000
         C           -0.484252178833     0.884668288167    -0.000095881624    12.000000000000
         C            0.080301821167    -1.452964711833     0.000132118376    12.000000000000
         C           -1.835942178833     0.590790288167    -0.000096881624    12.000000000000
         C           -1.286739178833    -1.759333711833     0.000132118376    12.000000000000
         C           -2.243478178833    -0.748222711833     0.000019118376    12.000000000000
         C            2.800339821167    -0.680645711833     0.000150118376    12.000000000000
         H            0.806676821167    -2.258559711833     0.000219118376     1.007825032230
         H           -2.548201178833     1.410634288167    -0.000186881624     1.007825032230
         H           -1.594463178833    -2.801694711833     0.000222118376     1.007825032230
         H           -3.302374178833    -0.990374711833     0.000020118376     1.007825032230
         H            2.736539821167    -1.308825711833    -0.894886881624     1.007825032230
         H            2.736459821167    -1.308638711833     0.895314118376     1.007825032230
         H            3.744262821167    -0.137258711833     0.000135118376     1.007825032230

  Basis Set: AUG-CC-PVTZ
    Blend: AUG-CC-PVTZ
  Basis Set: (AUG-CC-PVTZ AUX)
    Blend: AUG-CC-PVTZ-JKFIT
	 Reference Energy          =    -443.5871469303733647 [Eh]
	 Singles Energy            =      -0.0000000000000000 [Eh]
	 Same-Spin Energy          =      -0.4392284628996459 [Eh]
	 Opposite-Spin Energy      =      -1.3505958888378284 [Eh]
	 Correlation Energy        =      -1.7898243517374743 [Eh]
	 Total Energy              =    -445.3769712821108442 [Eh]

	 ================> DF-SCS-MP2 Energies <==================
	-----------------------------------------------------------
	 SCS Same-Spin Scale       =       0.3333333333333333 [-]
	 SCS Opposite-Spin Scale   =       1.2000000000000000 [-]
	 SCS Same-Spin Energy      =      -0.1464094876332153 [Eh]
	 SCS Opposite-Spin Energy  =      -1.6207150666053940 [Eh]
	 SCS Correlation Energy    =      -1.7671245542386094 [Eh]
	 SCS Total Energy          =    -445.3542714846119566 [Eh]
	-----------------------------------------------------------

  Dipole Moment: [D]
     X:     0.5459      Y:    -2.5417      Z:     0.0003     Total:     2.5997

*** Psi4 exiting successfully. Buy a developer a beer!
