                               Psi4 1.4a3.dev225

  ==> Input File <==

--------------------------------------------------------------------------
#psi4
#
memory 32 gb

molecule  {
0 1
  F       -0.0963580     2.2498010    -0.0002150
  O        1.7683730     0.3991100    -0.0000070
  C        0.4770520    -0.0443510     0.0000100
  C       -0.5052370     0.9594120    -0.0001040
  C        0.0477921    -1.3306986     0.0001194
  C       -1.8569270     0.6655340    -0.0001050
  C       -1.3077240    -1.6845900     0.0001240
  C       -2.2644630    -0.6734790     0.0000110
  C        2.7793550    -0.6059020     0.0001420
  H        0.7856920    -2.1838160     0.0002110
  H       -2.5691860     1.4853780    -0.0001950
  H       -1.6154480    -2.7269510     0.0002140
  H       -3.3233590    -0.9156310     0.0000120
  H        2.7155550    -1.2340820    -0.8948950
  H        2.7154750    -1.2338950     0.8953060
  H        3.7232780    -0.0625150     0.0001270
units angstrom
no_reorient  #important for SAPT in psi4, default
symmetry c1  #important for SAPT in psi4, default
}

set PROPERTIES_ORIGIN ["COM"]
properties('MP2/aug-cc-pvtz', properties = ['dipole'])
--------------------------------------------------------------------------

    Molecular point group: c1
  Charge       = 0
  Multiplicity = 1
  Basis Set: AUG-CC-PVTZ
    Blend: AUG-CC-PVTZ
  Basis Set: (AUG-CC-PVTZ AUX)
    Blend: AUG-CC-PVTZ-JKFIT

    Orbital Energies [Eh]
    ---------------------

    Doubly Occupied:

       1A    -26.302453     2A    -20.594176     3A    -11.324332
       4A    -11.308162     5A    -11.290305     6A    -11.247218
       7A    -11.246844     8A    -11.245532     9A    -11.242754
      10A     -1.616453    11A     -1.415219    12A     -1.162723
      13A     -1.033227    14A     -1.025333    15A     -0.950909
      16A     -0.850032    17A     -0.830941    18A     -0.745166
      19A     -0.708073    20A     -0.707232    21A     -0.689589
      22A     -0.656262    23A     -0.644670    24A     -0.628972
      25A     -0.613027    26A     -0.579314    27A     -0.550126
      28A     -0.532709    29A     -0.515732    30A     -0.501295
      31A     -0.478010    32A     -0.349210    33A     -0.323373

  @DF-RHF Final Energy:  -443.58604355368510

   => Energetics <=

    Nuclear Repulsion Energy =            431.7239355575783861
    One-Electron Energy =               -1462.8012124146493989
    Two-Electron Energy =                 587.4912333033857976
    Total Energy =                       -443.5860435536851583
  Basis Set: (AUG-CC-PVTZ AUX)
    Blend: AUG-CC-PVTZ-RI
    Molecular point group: c1

    Geometry (in Angstrom), charge = 0, multiplicity = 1:

       Center              X                  Y                   Z               Mass
    ------------   -----------------  -----------------  -----------------  -----------------
         F           -0.075283042142     2.173384296066    -0.000206735555    18.998403162730
         O            1.789447957858     0.322693296066     0.000001264445    15.994914619570
         C            0.498126957858    -0.120767703934     0.000018264445    12.000000000000
         C           -0.484162042142     0.882995296066    -0.000095735555    12.000000000000
         C            0.068867057858    -1.407115303934     0.000127664445    12.000000000000
         C           -1.835852042142     0.589117296066    -0.000096735555    12.000000000000
         C           -1.286649042142    -1.761006703934     0.000132264445    12.000000000000
         C           -2.243388042142    -0.749895703934     0.000019264445    12.000000000000
         C            2.800429957858    -0.682318703934     0.000150264445    12.000000000000
         H            0.806766957858    -2.260232703934     0.000219264445     1.007825032230
         H           -2.548111042142     1.408961296066    -0.000186735555     1.007825032230
         H           -1.594373042142    -2.803367703934     0.000222264445     1.007825032230
         H           -3.302284042142    -0.992047703934     0.000020264445     1.007825032230
         H            2.736629957858    -1.310498703934    -0.894886735555     1.007825032230
         H            2.736549957858    -1.310311703934     0.895314264445     1.007825032230
         H            3.744352957858    -0.138931703934     0.000135264445     1.007825032230

  Basis Set: AUG-CC-PVTZ
    Blend: AUG-CC-PVTZ
  Basis Set: (AUG-CC-PVTZ AUX)
    Blend: AUG-CC-PVTZ-JKFIT
	 Reference Energy          =    -443.5860435536851014 [Eh]
	 Singles Energy            =      -0.0000000000000000 [Eh]
	 Same-Spin Energy          =      -0.4390523284827559 [Eh]
	 Opposite-Spin Energy      =      -1.3497971098899408 [Eh]
	 Correlation Energy        =      -1.7888494383726967 [Eh]
	 Total Energy              =    -445.3748929920578234 [Eh]

	 ================> DF-SCS-MP2 Energies <==================
	-----------------------------------------------------------
	 SCS Same-Spin Scale       =       0.3333333333333333 [-]
	 SCS Opposite-Spin Scale   =       1.2000000000000000 [-]
	 SCS Same-Spin Energy      =      -0.1463507761609186 [Eh]
	 SCS Opposite-Spin Energy  =      -1.6197565318679290 [Eh]
	 SCS Correlation Energy    =      -1.7661073080288476 [Eh]
	 SCS Total Energy          =    -445.3521508617139375 [Eh]
	-----------------------------------------------------------

  Dipole Moment: [D]
     X:     0.4402      Y:    -2.5085      Z:     0.0003     Total:     2.5468

*** Psi4 exiting successfully. Buy a developer a beer!
