                               Psi4 1.4a3.dev225

  ==> Input File <==

--------------------------------------------------------------------------
#psi4
#
memory 32 gb

molecule  {
0 1
  F       -0.0963580     2.2498010    -0.0002150
  O        1.7683730     0.3991100    -0.0000070
  C        0.4770520    -0.0443510     0.0000100
  C       -0.5052370     0.9594120    -0.0001040
  C        0.0593170    -1.3782210     0.0001240
  C       -1.8569270     0.6655340    -0.0001050
  C       -1.3077240    -1.6845900     0.0001240
  C       -2.2644630    -0.6734790     0.0000110
  C        2.7793550    -0.6059020     0.0001420
  H        0.7856920    -2.1838160     0.0002110
  H       -2.5691860     1.4853780    -0.0001950
  H       -1.6154480    -2.7269510     0.0002140
  H       -3.3233590    -0.9156310     0.0000120
  H        2.7155550    -1.2340820    -0.8948950
  H        2.7096430    -1.2912280     0.9770306
  H        3.7232780    -0.0625150     0.0001270
units angstrom
no_reorient  #important for SAPT in psi4, default
symmetry c1  #important for SAPT in psi4, default
}

set PROPERTIES_ORIGIN ["COM"]
properties('MP2/aug-cc-pvtz', properties = ['dipole'])
--------------------------------------------------------------------------

    Molecular point group: c1
  Charge       = 0
  Multiplicity = 1
  Basis Set: AUG-CC-PVTZ
    Blend: AUG-CC-PVTZ
  Basis Set: (AUG-CC-PVTZ AUX)
    Blend: AUG-CC-PVTZ-JKFIT

    Orbital Energies [Eh]
    ---------------------

    Doubly Occupied:

       1A    -26.302525     2A    -20.596825     3A    -11.323742
       4A    -11.313429     5A    -11.302608     6A    -11.248714
       7A    -11.247745     8A    -11.246543     9A    -11.242638
      10A     -1.616507    11A     -1.416588    12A     -1.158469
      13A     -1.028933    14A     -1.026414    15A     -0.944620
      16A     -0.848660    17A     -0.829684    18A     -0.745304
      19A     -0.709570    20A     -0.704154    21A     -0.689129
      22A     -0.650622    23A     -0.640707    24A     -0.629335
      25A     -0.621384    26A     -0.581466    27A     -0.547488
      28A     -0.524628    29A     -0.519389    30A     -0.500976
      31A     -0.475062    32A     -0.348191    33A     -0.321293

  @DF-RHF Final Energy:  -443.58200811366714

   => Energetics <=

    Nuclear Repulsion Energy =            430.4562722523754701
    One-Electron Energy =               -1460.2698724528647745
    Two-Electron Energy =                 586.2315920868222747
    Total Energy =                       -443.5820081136671433
  Basis Set: (AUG-CC-PVTZ AUX)
    Blend: AUG-CC-PVTZ-RI
    Molecular point group: c1

    Geometry (in Angstrom), charge = 0, multiplicity = 1:

       Center              X                  Y                   Z               Mass
    ------------   -----------------  -----------------  -----------------  -----------------
         F           -0.076333602775     2.178366921487    -0.000860607388    18.998403162730
         O            1.788397397225     0.327675921487    -0.000652607388    15.994914619570
         C            0.497076397225    -0.115785078513    -0.000635607388    12.000000000000
         C           -0.485212602775     0.887977921487    -0.000749607388    12.000000000000
         C            0.079341397225    -1.449655078513    -0.000521607388    12.000000000000
         C           -1.836902602775     0.594099921487    -0.000750607388    12.000000000000
         C           -1.287699602775    -1.756024078513    -0.000521607388    12.000000000000
         C           -2.244438602775    -0.744913078513    -0.000634607388    12.000000000000
         C            2.799379397225    -0.677336078513    -0.000503607388    12.000000000000
         H            0.805716397225    -2.255250078513    -0.000434607388     1.007825032230
         H           -2.549161602775     1.413943921487    -0.000840607388     1.007825032230
         H           -1.595423602775    -2.798385078513    -0.000431607388     1.007825032230
         H           -3.303334602775    -0.987065078513    -0.000633607388     1.007825032230
         H            2.735579397225    -1.305516078513    -0.895540607388     1.007825032230
         H            2.729667397225    -1.362662078513     0.976384992612     1.007825032230
         H            3.743302397225    -0.133949078513    -0.000518607388     1.007825032230

  Basis Set: AUG-CC-PVTZ
    Blend: AUG-CC-PVTZ
  Basis Set: (AUG-CC-PVTZ AUX)
    Blend: AUG-CC-PVTZ-JKFIT
	 Reference Energy          =    -443.5820081136671433 [Eh]
	 Singles Energy            =      -0.0000000000000000 [Eh]
	 Same-Spin Energy          =      -0.4391802622923466 [Eh]
	 Opposite-Spin Energy      =      -1.3507166984133809 [Eh]
	 Correlation Energy        =      -1.7898969607057276 [Eh]
	 Total Energy              =    -445.3719050743728758 [Eh]

	 ================> DF-SCS-MP2 Energies <==================
	-----------------------------------------------------------
	 SCS Same-Spin Scale       =       0.3333333333333333 [-]
	 SCS Opposite-Spin Scale   =       1.2000000000000000 [-]
	 SCS Same-Spin Energy      =      -0.1463934207641155 [Eh]
	 SCS Opposite-Spin Energy  =      -1.6208600380960572 [Eh]
	 SCS Correlation Energy    =      -1.7672534588601727 [Eh]
	 SCS Total Energy          =    -445.3492615725273254 [Eh]
	-----------------------------------------------------------

  Dipole Moment: [D]
     X:     0.4413      Y:    -2.4508      Z:    -0.0524     Total:     2.4908

*** Psi4 exiting successfully. Buy a developer a beer!
