                               Psi4 1.4a3.dev225

  ==> Input File <==

--------------------------------------------------------------------------
#psi4
#
memory 32 gb

molecule  {
0 1
  F       -0.0963580     2.2498010    -0.0002150
  O        1.7683730     0.3991100    -0.0000070
  C        0.4770520    -0.0443510     0.0000100
  C       -0.5052370     0.9594120    -0.0001040
  C       -0.0004554    -1.5690803     0.0001403
  C       -1.8569270     0.6655340    -0.0001050
  C       -1.3077240    -1.6845900     0.0001240
  C       -2.2644630    -0.6734790     0.0000110
  C        2.7793550    -0.6059020     0.0001420
  H        0.7856920    -2.1838160     0.0002110
  H       -2.5691860     1.4853780    -0.0001950
  H       -1.6154480    -2.7269510     0.0002140
  H       -3.3233590    -0.9156310     0.0000120
  H        2.7155550    -1.2340820    -0.8948950
  H        2.7154750    -1.2338950     0.8953060
  H        3.7232780    -0.0625150     0.0001270
units angstrom
no_reorient  #important for SAPT in psi4, default
symmetry c1  #important for SAPT in psi4, default
}

set PROPERTIES_ORIGIN ["COM"]
properties('MP2/aug-cc-pvtz', properties = ['dipole'])
--------------------------------------------------------------------------

    Molecular point group: c1
  Charge       = 0
  Multiplicity = 1
  Basis Set: AUG-CC-PVTZ
    Blend: AUG-CC-PVTZ
  Basis Set: (AUG-CC-PVTZ AUX)
    Blend: AUG-CC-PVTZ-JKFIT

    Orbital Energies [Eh]
    ---------------------

    Doubly Occupied:

       1A    -26.298414     2A    -20.599067     3A    -11.326217
       4A    -11.316128     5A    -11.293987     6A    -11.253259
       7A    -11.252706     8A    -11.240955     9A    -11.239750
      10A     -1.612652    11A     -1.416144    12A     -1.152901
      13A     -1.043221    14A     -1.015490    15A     -0.948048
      16A     -0.849705    17A     -0.827590    18A     -0.747013
      19A     -0.712187    20A     -0.701148    21A     -0.686425
      22A     -0.656436    23A     -0.655922    24A     -0.631155
      25A     -0.620735    26A     -0.586282    27A     -0.545302
      28A     -0.532406    29A     -0.525703    30A     -0.482330
      31A     -0.473061    32A     -0.360910    33A     -0.304494

  @DF-RHF Final Energy:  -443.54664021866273

   => Energetics <=

    Nuclear Repulsion Energy =            428.1988944074994379
    One-Electron Energy =               -1455.6755827920603679
    Two-Electron Energy =                 583.9300481658982562
    Total Energy =                       -443.5466402186626738
  Basis Set: (AUG-CC-PVTZ AUX)
    Blend: AUG-CC-PVTZ-RI
    Molecular point group: c1

    Geometry (in Angstrom), charge = 0, multiplicity = 1:

       Center              X                  Y                   Z               Mass
    ------------   -----------------  -----------------  -----------------  -----------------
         F           -0.070689795341     2.196078652892    -0.000208725272    18.998403162730
         O            1.794041204659     0.345387652892    -0.000000725272    15.994914619570
         C            0.502720204659    -0.098073347108     0.000016274728    12.000000000000
         C           -0.479568795341     0.905689652892    -0.000097725272    12.000000000000
         C            0.025212804659    -1.622802647108     0.000146574728    12.000000000000
         C           -1.831258795341     0.611811652892    -0.000098725272    12.000000000000
         C           -1.282055795341    -1.738312347108     0.000130274728    12.000000000000
         C           -2.238794795341    -0.727201347108     0.000017274728    12.000000000000
         C            2.805023204659    -0.659624347108     0.000148274728    12.000000000000
         H            0.811360204659    -2.237538347108     0.000217274728     1.007825032230
         H           -2.543517795341     1.431655652892    -0.000188725272     1.007825032230
         H           -1.589779795341    -2.780673347108     0.000220274728     1.007825032230
         H           -3.297690795341    -0.969353347108     0.000018274728     1.007825032230
         H            2.741223204659    -1.287804347108    -0.894888725272     1.007825032230
         H            2.741143204659    -1.287617347108     0.895312274728     1.007825032230
         H            3.748946204659    -0.116237347108     0.000133274728     1.007825032230

  Basis Set: AUG-CC-PVTZ
    Blend: AUG-CC-PVTZ
  Basis Set: (AUG-CC-PVTZ AUX)
    Blend: AUG-CC-PVTZ-JKFIT
	 Reference Energy          =    -443.5466402186627306 [Eh]
	 Singles Energy            =      -0.0000000000000000 [Eh]
	 Same-Spin Energy          =      -0.4391001735198826 [Eh]
	 Opposite-Spin Energy      =      -1.3524310426404700 [Eh]
	 Correlation Energy        =      -1.7915312161603525 [Eh]
	 Total Energy              =    -445.3381714348230958 [Eh]

	 ================> DF-SCS-MP2 Energies <==================
	-----------------------------------------------------------
	 SCS Same-Spin Scale       =       0.3333333333333333 [-]
	 SCS Opposite-Spin Scale   =       1.2000000000000000 [-]
	 SCS Same-Spin Energy      =      -0.1463667245066275 [Eh]
	 SCS Opposite-Spin Energy  =      -1.6229172511685639 [Eh]
	 SCS Correlation Energy    =      -1.7692839756751915 [Eh]
	 SCS Total Energy          =    -445.3159241943379243 [Eh]
	-----------------------------------------------------------

  Dipole Moment: [D]
     X:     0.6293      Y:    -2.5194      Z:     0.0003     Total:     2.5968

*** Psi4 exiting successfully. Buy a developer a beer!
