                               Psi4 1.4a3.dev225

  ==> Input File <==

--------------------------------------------------------------------------
#psi4
#
memory 32 gb

molecule  {
0 1
  F       -0.0963580     2.2498010    -0.0002150
  O        1.7371446     0.3627835     0.0872026
  C        0.4770520    -0.0443510     0.0000100
  C       -0.5052370     0.9594120    -0.0001040
  C        0.0593170    -1.3782210     0.0001240
  C       -1.8569270     0.6655340    -0.0001050
  C       -1.3077240    -1.6845900     0.0001240
  C       -2.2644630    -0.6734790     0.0000110
  C        2.7793550    -0.6059020     0.0001420
  H        0.7856920    -2.1838160     0.0002110
  H       -2.5691860     1.4853780    -0.0001950
  H       -1.6154480    -2.7269510     0.0002140
  H       -3.3233590    -0.9156310     0.0000120
  H        2.7155550    -1.2340820    -0.8948950
  H        2.7154750    -1.2338950     0.8953060
  H        3.7232780    -0.0625150     0.0001270
units angstrom
no_reorient  #important for SAPT in psi4, default
symmetry c1  #important for SAPT in psi4, default
}

set PROPERTIES_ORIGIN ["COM"]
properties('MP2/aug-cc-pvtz', properties = ['dipole'])
--------------------------------------------------------------------------

    Molecular point group: c1
  Charge       = 0
  Multiplicity = 1
  Basis Set: AUG-CC-PVTZ
    Blend: AUG-CC-PVTZ
  Basis Set: (AUG-CC-PVTZ AUX)
    Blend: AUG-CC-PVTZ-JKFIT

    Orbital Energies [Eh]
    ---------------------

    Doubly Occupied:

       1A    -26.300958     2A    -20.594608     3A    -11.320320
       4A    -11.311531     5A    -11.294714     6A    -11.247264
       7A    -11.245333     8A    -11.242917     9A    -11.239245
      10A     -1.615046    11A     -1.430517    12A     -1.156000
      13A     -1.030376    14A     -1.025377    15A     -0.954426
      16A     -0.849291    17A     -0.829119    18A     -0.746456
      19A     -0.711372    20A     -0.707997    21A     -0.689829
      22A     -0.660844    23A     -0.641471    24A     -0.633028
      25A     -0.619752    26A     -0.581172    27A     -0.548501
      28A     -0.534136    29A     -0.520583    30A     -0.498139
      31A     -0.476810    32A     -0.346203    33A     -0.316254

  @DF-RHF Final Energy:  -443.58852995552826

   => Energetics <=

    Nuclear Repulsion Energy =            431.8901420746434496
    One-Electron Energy =               -1463.1181621261191594
    Two-Electron Energy =                 587.6394900959473944
    Total Energy =                       -443.5885299555282018
  Basis Set: (AUG-CC-PVTZ AUX)
    Blend: AUG-CC-PVTZ-RI
    Molecular point group: c1

    Geometry (in Angstrom), charge = 0, multiplicity = 1:

       Center              X                  Y                   Z               Mass
    ------------   -----------------  -----------------  -----------------  -----------------
         F           -0.072417494690     2.182518175353    -0.011273664635    18.998403162730
         O            1.761085105310     0.295500675353     0.076143935365    15.994914619570
         C            0.500992505310    -0.111633824647    -0.011048664635    12.000000000000
         C           -0.481296494690     0.892129175353    -0.011162664635    12.000000000000
         C            0.083257505310    -1.445503824647    -0.010934664635    12.000000000000
         C           -1.832986494690     0.598251175353    -0.011163664635    12.000000000000
         C           -1.283783494690    -1.751872824647    -0.010934664635    12.000000000000
         C           -2.240522494690    -0.740761824647    -0.011047664635    12.000000000000
         C            2.803295505310    -0.673184824647    -0.010916664635    12.000000000000
         H            0.809632505310    -2.251098824647    -0.010847664635     1.007825032230
         H           -2.545245494690     1.418095175353    -0.011253664635     1.007825032230
         H           -1.591507494690    -2.794233824647    -0.010844664635     1.007825032230
         H           -3.299418494690    -0.982913824647    -0.011046664635     1.007825032230
         H            2.739495505310    -1.301364824647    -0.905953664635     1.007825032230
         H            2.739415505310    -1.301177824647     0.884247335365     1.007825032230
         H            3.747218505310    -0.129797824647    -0.010931664635     1.007825032230

  Basis Set: AUG-CC-PVTZ
    Blend: AUG-CC-PVTZ
  Basis Set: (AUG-CC-PVTZ AUX)
    Blend: AUG-CC-PVTZ-JKFIT
	 Reference Energy          =    -443.5885299555282586 [Eh]
	 Singles Energy            =      -0.0000000000000000 [Eh]
	 Same-Spin Energy          =      -0.4388482598105972 [Eh]
	 Opposite-Spin Energy      =      -1.3487739556099958 [Eh]
	 Correlation Energy        =      -1.7876222154205930 [Eh]
	 Total Energy              =    -445.3761521709488420 [Eh]

	 ================> DF-SCS-MP2 Energies <==================
	-----------------------------------------------------------
	 SCS Same-Spin Scale       =       0.3333333333333333 [-]
	 SCS Opposite-Spin Scale   =       1.2000000000000000 [-]
	 SCS Same-Spin Energy      =      -0.1462827532701990 [Eh]
	 SCS Opposite-Spin Energy  =      -1.6185287467319949 [Eh]
	 SCS Correlation Energy    =      -1.7648115000021940 [Eh]
	 SCS Total Energy          =    -445.3533414555304262 [Eh]
	-----------------------------------------------------------

  Dipole Moment: [D]
     X:     0.7575      Y:    -2.4272      Z:    -0.0962     Total:     2.5444

*** Psi4 exiting successfully. Buy a developer a beer!
