                               Psi4 1.4a3.dev225

  ==> Input File <==

--------------------------------------------------------------------------
#psi4
#
memory 32 gb

molecule  {
0 1
  F       -0.0515732     2.2347453    -0.0002127
  O        1.7683730     0.3991100    -0.0000070
  C        0.4770520    -0.0443510     0.0000100
  C       -0.5052370     0.9594120    -0.0001040
  C        0.0593170    -1.3782210     0.0001240
  C       -1.8569270     0.6655340    -0.0001050
  C       -1.3077240    -1.6845900     0.0001240
  C       -2.2644630    -0.6734790     0.0000110
  C        2.7793550    -0.6059020     0.0001420
  H        0.7856920    -2.1838160     0.0002110
  H       -2.5691860     1.4853780    -0.0001950
  H       -1.6154480    -2.7269510     0.0002140
  H       -3.3233590    -0.9156310     0.0000120
  H        2.7155550    -1.2340820    -0.8948950
  H        2.7154750    -1.2338950     0.8953060
  H        3.7232780    -0.0625150     0.0001270
units angstrom
no_reorient  #important for SAPT in psi4, default
symmetry c1  #important for SAPT in psi4, default
}

set PROPERTIES_ORIGIN ["COM"]
properties('MP2/aug-cc-pvtz', properties = ['dipole'])
--------------------------------------------------------------------------

    Molecular point group: c1
  Charge       = 0
  Multiplicity = 1
  Basis Set: AUG-CC-PVTZ
    Blend: AUG-CC-PVTZ
  Basis Set: (AUG-CC-PVTZ AUX)
    Blend: AUG-CC-PVTZ-JKFIT

    Orbital Energies [Eh]
    ---------------------

    Doubly Occupied:

       1A    -26.301945     2A    -20.594302     3A    -11.323424
       4A    -11.312135     5A    -11.290718     6A    -11.249569
       7A    -11.247431     8A    -11.246252     9A    -11.242664
      10A     -1.616092    11A     -1.414868    12A     -1.158280
      13A     -1.029092    14A     -1.026666    15A     -0.950269
      16A     -0.849381    17A     -0.830277    18A     -0.745282
      19A     -0.709748    20A     -0.705433    21A     -0.689331
      22A     -0.655648    23A     -0.641663    24A     -0.627376
      25A     -0.621435    26A     -0.581662    27A     -0.548437
      28A     -0.529908    29A     -0.519153    30A     -0.501645
      31A     -0.477746    32A     -0.348415    33A     -0.320540

  @DF-RHF Final Energy:  -443.58826566837007

   => Energetics <=

    Nuclear Repulsion Energy =            431.1883999498105027
    One-Electron Energy =               -1461.7397584069497043
    Two-Electron Energy =                 586.9630927887692451
    Total Energy =                       -443.5882656683700134
  Basis Set: (AUG-CC-PVTZ AUX)
    Blend: AUG-CC-PVTZ-RI
    Molecular point group: c1

    Geometry (in Angstrom), charge = 0, multiplicity = 1:

       Center              X                  Y                   Z               Mass
    ------------   -----------------  -----------------  -----------------  -----------------
         F           -0.038345552342     2.165122059085    -0.000205220147    18.998403162730
         O            1.781600647658     0.329486759085     0.000000479853    15.994914619570
         C            0.490279647658    -0.113974240915     0.000017479853    12.000000000000
         C           -0.492009352342     0.889788759085    -0.000096520147    12.000000000000
         C            0.072544647658    -1.447844240915     0.000131479853    12.000000000000
         C           -1.843699352342     0.595910759085    -0.000097520147    12.000000000000
         C           -1.294496352342    -1.754213240915     0.000131479853    12.000000000000
         C           -2.251235352342    -0.743102240915     0.000018479853    12.000000000000
         C            2.792582647658    -0.675525240915     0.000149479853    12.000000000000
         H            0.798919647658    -2.253439240915     0.000218479853     1.007825032230
         H           -2.555958352342     1.415754759085    -0.000187520147     1.007825032230
         H           -1.602220352342    -2.796574240915     0.000221479853     1.007825032230
         H           -3.310131352342    -0.985254240915     0.000019479853     1.007825032230
         H            2.728782647658    -1.303705240915    -0.894887520147     1.007825032230
         H            2.728702647658    -1.303518240915     0.895313479853     1.007825032230
         H            3.736505647658    -0.132138240915     0.000134479853     1.007825032230

  Basis Set: AUG-CC-PVTZ
    Blend: AUG-CC-PVTZ
  Basis Set: (AUG-CC-PVTZ AUX)
    Blend: AUG-CC-PVTZ-JKFIT
	 Reference Energy          =    -443.5882656683700702 [Eh]
	 Singles Energy            =      -0.0000000000000000 [Eh]
	 Same-Spin Energy          =      -0.4390964852714671 [Eh]
	 Opposite-Spin Energy      =      -1.3499549196335181 [Eh]
	 Correlation Energy        =      -1.7890514049049853 [Eh]
	 Total Energy              =    -445.3773170732750373 [Eh]

	 ================> DF-SCS-MP2 Energies <==================
	-----------------------------------------------------------
	 SCS Same-Spin Scale       =       0.3333333333333333 [-]
	 SCS Opposite-Spin Scale   =       1.2000000000000000 [-]
	 SCS Same-Spin Energy      =      -0.1463654950904890 [Eh]
	 SCS Opposite-Spin Energy  =      -1.6199459035602217 [Eh]
	 SCS Correlation Energy    =      -1.7663113986507106 [Eh]
	 SCS Total Energy          =    -445.3545770670207844 [Eh]
	-----------------------------------------------------------

  Dipole Moment: [D]
     X:     0.4454      Y:    -2.4743      Z:     0.0003     Total:     2.5141

*** Psi4 exiting successfully. Buy a developer a beer!
