                               Psi4 1.4a3.dev225

  ==> Input File <==

--------------------------------------------------------------------------
#psi4
#
memory 32 gb

molecule  {
0 1
  F       -0.0963580     2.2498010    -0.0002150
  O        1.7683730     0.3991100    -0.0000070
  C        0.4770520    -0.0443510     0.0000100
  C       -0.5052370     0.9594120    -0.0001040
  C        0.0593170    -1.3782210     0.0001240
  C       -1.8569270     0.6655340    -0.0001050
  C       -1.2882081    -1.6802163     0.0001240
  C       -2.2644630    -0.6734790     0.0000110
  C        2.7793550    -0.6059020     0.0001420
  H        0.7856920    -2.1838160     0.0002110
  H       -2.5691860     1.4853780    -0.0001950
  H       -1.6154480    -2.7269510     0.0002140
  H       -3.3233590    -0.9156310     0.0000120
  H        2.7155550    -1.2340820    -0.8948950
  H        2.7154750    -1.2338950     0.8953060
  H        3.7232780    -0.0625150     0.0001270
units angstrom
no_reorient  #important for SAPT in psi4, default
symmetry c1  #important for SAPT in psi4, default
}

set PROPERTIES_ORIGIN ["COM"]
properties('MP2/aug-cc-pvtz', properties = ['dipole'])
--------------------------------------------------------------------------

    Molecular point group: c1
  Charge       = 0
  Multiplicity = 1
  Basis Set: AUG-CC-PVTZ
    Blend: AUG-CC-PVTZ
  Basis Set: (AUG-CC-PVTZ AUX)
    Blend: AUG-CC-PVTZ-JKFIT

    Orbital Energies [Eh]
    ---------------------

    Doubly Occupied:

       1A    -26.301720     2A    -20.594661     3A    -11.322506
       4A    -11.313053     5A    -11.291101     6A    -11.248601
       7A    -11.247133     8A    -11.245294     9A    -11.243117
      10A     -1.615707    11A     -1.415359    12A     -1.159281
      13A     -1.030602    14A     -1.026536    15A     -0.949841
      16A     -0.847564    17A     -0.832240    18A     -0.745673
      19A     -0.709379    20A     -0.704694    21A     -0.689021
      22A     -0.656278    23A     -0.641097    24A     -0.628767
      25A     -0.621925    26A     -0.580981    27A     -0.547576
      28A     -0.530833    29A     -0.521010    30A     -0.500180
      31A     -0.477923    32A     -0.350579    33A     -0.318974

  @DF-RHF Final Energy:  -443.58822271922344

   => Energetics <=

    Nuclear Repulsion Energy =            431.0891163352781632
    One-Electron Energy =               -1461.5362694440573250
    Two-Electron Energy =                 586.8589303895557805
    Total Energy =                       -443.5882227192234950
  Basis Set: (AUG-CC-PVTZ AUX)
    Blend: AUG-CC-PVTZ-RI
    Molecular point group: c1

    Geometry (in Angstrom), charge = 0, multiplicity = 1:

       Center              X                  Y                   Z               Mass
    ------------   -----------------  -----------------  -----------------  -----------------
         F           -0.078238180860     2.177492128145    -0.000207173483    18.998403162730
         O            1.786492819140     0.326801128145     0.000000826517    15.994914619570
         C            0.495171819140    -0.116659871855     0.000017826517    12.000000000000
         C           -0.487117180860     0.887103128145    -0.000096173483    12.000000000000
         C            0.077436819140    -1.450529871855     0.000131826517    12.000000000000
         C           -1.838807180860     0.593225128145    -0.000097173483    12.000000000000
         C           -1.270088280860    -1.752525171855     0.000131826517    12.000000000000
         C           -2.246343180860    -0.745787871855     0.000018826517    12.000000000000
         C            2.797474819140    -0.678210871855     0.000149826517    12.000000000000
         H            0.803811819140    -2.256124871855     0.000218826517     1.007825032230
         H           -2.551066180860     1.413069128145    -0.000187173483     1.007825032230
         H           -1.597328180860    -2.799259871855     0.000221826517     1.007825032230
         H           -3.305239180860    -0.987939871855     0.000019826517     1.007825032230
         H            2.733674819140    -1.306390871855    -0.894887173483     1.007825032230
         H            2.733594819140    -1.306203871855     0.895313826517     1.007825032230
         H            3.741397819140    -0.134823871855     0.000134826517     1.007825032230

  Basis Set: AUG-CC-PVTZ
    Blend: AUG-CC-PVTZ
  Basis Set: (AUG-CC-PVTZ AUX)
    Blend: AUG-CC-PVTZ-JKFIT
	 Reference Energy          =    -443.5882227192234382 [Eh]
	 Singles Energy            =      -0.0000000000000000 [Eh]
	 Same-Spin Energy          =      -0.4390981369140123 [Eh]
	 Opposite-Spin Energy      =      -1.3498672808770611 [Eh]
	 Correlation Energy        =      -1.7889654177910734 [Eh]
	 Total Energy              =    -445.3771881370145138 [Eh]

	 ================> DF-SCS-MP2 Energies <==================
	-----------------------------------------------------------
	 SCS Same-Spin Scale       =       0.3333333333333333 [-]
	 SCS Opposite-Spin Scale   =       1.2000000000000000 [-]
	 SCS Same-Spin Energy      =      -0.1463660456380041 [Eh]
	 SCS Opposite-Spin Energy  =      -1.6198407370524732 [Eh]
	 SCS Correlation Energy    =      -1.7662067826904773 [Eh]
	 SCS Total Energy          =    -445.3544295019138985 [Eh]
	-----------------------------------------------------------

  Dipole Moment: [D]
     X:     0.4852      Y:    -2.5004      Z:     0.0003     Total:     2.5471

*** Psi4 exiting successfully. Buy a developer a beer!
