                               Psi4 1.4a3.dev225

  ==> Input File <==

--------------------------------------------------------------------------
#psi4
#
memory 32 gb

molecule  {
0 1
  F       -0.0963580     2.2498010    -0.0002150
  O        1.7683730     0.3991100    -0.0000070
  C        0.4770520    -0.0443510     0.0000100
  C       -0.5052370     0.9594120    -0.0001040
  C        0.0593170    -1.3782210     0.0001240
  C       -1.8569270     0.6655340    -0.0001050
  C       -1.3077240    -1.6845900     0.0001240
  C       -2.2644630    -0.6734790     0.0000110
  C        2.7793550    -0.6059020     0.0001420
  H        0.7856920    -2.1838160     0.0002110
  H       -2.5691860     1.4853780    -0.0001950
  H       -1.6154480    -2.7269510     0.0002140
  H       -3.3233590    -0.9156310     0.0000120
  H        2.7155550    -1.2340820    -0.8948950
  H        2.7213070    -1.1765620     0.8135814
  H        3.7232780    -0.0625150     0.0001270
units angstrom
no_reorient  #important for SAPT in psi4, default
symmetry c1  #important for SAPT in psi4, default
}

set PROPERTIES_ORIGIN ["COM"]
properties('MP2/aug-cc-pvtz', properties = ['dipole'])
--------------------------------------------------------------------------

    Molecular point group: c1
  Charge       = 0
  Multiplicity = 1
  Basis Set: AUG-CC-PVTZ
    Blend: AUG-CC-PVTZ
  Basis Set: (AUG-CC-PVTZ AUX)
    Blend: AUG-CC-PVTZ-JKFIT

    Orbital Energies [Eh]
    ---------------------

    Doubly Occupied:

       1A    -26.301846     2A    -20.592952     3A    -11.322973
       4A    -11.312965     5A    -11.278822     6A    -11.248490
       7A    -11.247617     8A    -11.246446     9A    -11.242122
      10A     -1.615810    11A     -1.414527    12A     -1.158162
      13A     -1.030354    14A     -1.027123    15A     -0.959068
      16A     -0.849526    17A     -0.832768    18A     -0.746075
      19A     -0.710228    20A     -0.707268    21A     -0.689611
      22A     -0.663342    23A     -0.642388    24A     -0.627862
      25A     -0.621282    26A     -0.580904    27A     -0.550096
      28A     -0.535381    29A     -0.519126    30A     -0.503053
      31A     -0.479052    32A     -0.348015    33A     -0.320504

  @DF-RHF Final Energy:  -443.58300724943189

   => Energetics <=

    Nuclear Repulsion Energy =            431.3084770680092106
    One-Electron Energy =               -1461.9314561470309854
    Two-Electron Energy =                 587.0399718295898310
    Total Energy =                       -443.5830072494318301
  Basis Set: (AUG-CC-PVTZ AUX)
    Blend: AUG-CC-PVTZ-RI
    Molecular point group: c1

    Geometry (in Angstrom), charge = 0, multiplicity = 1:

       Center              X                  Y                   Z               Mass
    ------------   -----------------  -----------------  -----------------  -----------------
         F           -0.076426862982     2.177450102657     0.000446260422    18.998403162730
         O            1.788304137018     0.326759102657     0.000654260422    15.994914619570
         C            0.496983137018    -0.116701897343     0.000671260422    12.000000000000
         C           -0.485305862982     0.887061102657     0.000557260422    12.000000000000
         C            0.079248137018    -1.450571897343     0.000785260422    12.000000000000
         C           -1.836995862982     0.593183102657     0.000556260422    12.000000000000
         C           -1.287792862982    -1.756940897343     0.000785260422    12.000000000000
         C           -2.244531862982    -0.745829897343     0.000672260422    12.000000000000
         C            2.799286137018    -0.678252897343     0.000803260422    12.000000000000
         H            0.805623137018    -2.256166897343     0.000872260422     1.007825032230
         H           -2.549254862982     1.413027102657     0.000466260422     1.007825032230
         H           -1.595516862982    -2.799301897343     0.000875260422     1.007825032230
         H           -3.303427862982    -0.987981897343     0.000673260422     1.007825032230
         H            2.735486137018    -1.306432897343    -0.894233739578     1.007825032230
         H            2.741238137018    -1.248912897343     0.814242660422     1.007825032230
         H            3.743209137018    -0.134865897343     0.000788260422     1.007825032230

  Basis Set: AUG-CC-PVTZ
    Blend: AUG-CC-PVTZ
  Basis Set: (AUG-CC-PVTZ AUX)
    Blend: AUG-CC-PVTZ-JKFIT
	 Reference Energy          =    -443.5830072494318870 [Eh]
	 Singles Energy            =      -0.0000000000000000 [Eh]
	 Same-Spin Energy          =      -0.4389378089794164 [Eh]
	 Opposite-Spin Energy      =      -1.3492836990836627 [Eh]
	 Correlation Energy        =      -1.7882215080630792 [Eh]
	 Total Energy              =    -445.3712287574949755 [Eh]

	 ================> DF-SCS-MP2 Energies <==================
	-----------------------------------------------------------
	 SCS Same-Spin Scale       =       0.3333333333333333 [-]
	 SCS Opposite-Spin Scale   =       1.2000000000000000 [-]
	 SCS Same-Spin Energy      =      -0.1463126029931388 [Eh]
	 SCS Opposite-Spin Energy  =      -1.6191404389003952 [Eh]
	 SCS Correlation Energy    =      -1.7654530418935339 [Eh]
	 SCS Total Energy          =    -445.3484602913254093 [Eh]
	-----------------------------------------------------------

  Dipole Moment: [D]
     X:     0.5146      Y:    -2.5301      Z:     0.0385     Total:     2.5822

*** Psi4 exiting successfully. Buy a developer a beer!
