                               Psi4 1.4a3.dev225

  ==> Input File <==

--------------------------------------------------------------------------
#psi4
#
memory 32 gb

molecule  {
0 1
  F       -0.0963580     2.2498010    -0.0002150
  O        1.7683730     0.3991100    -0.0000070
  C        0.4770520    -0.0443510     0.0000100
  C       -0.5052370     0.9594120    -0.0001040
  C        0.0593170    -1.3782210     0.0001240
  C       -1.8569270     0.6655340    -0.0001050
  C       -1.2589342    -1.6736557     0.0001240
  C       -2.2644630    -0.6734790     0.0000110
  C        2.7793550    -0.6059020     0.0001420
  H        0.7856920    -2.1838160     0.0002110
  H       -2.5691860     1.4853780    -0.0001950
  H       -1.6154480    -2.7269510     0.0002140
  H       -3.3233590    -0.9156310     0.0000120
  H        2.7155550    -1.2340820    -0.8948950
  H        2.7154750    -1.2338950     0.8953060
  H        3.7232780    -0.0625150     0.0001270
units angstrom
no_reorient  #important for SAPT in psi4, default
symmetry c1  #important for SAPT in psi4, default
}

set PROPERTIES_ORIGIN ["COM"]
properties('MP2/aug-cc-pvtz', properties = ['dipole'])
--------------------------------------------------------------------------

    Molecular point group: c1
  Charge       = 0
  Multiplicity = 1
  Basis Set: AUG-CC-PVTZ
    Blend: AUG-CC-PVTZ
  Basis Set: (AUG-CC-PVTZ AUX)
    Blend: AUG-CC-PVTZ-JKFIT

    Orbital Energies [Eh]
    ---------------------

    Doubly Occupied:

       1A    -26.301100     2A    -20.594677     3A    -11.321316
       4A    -11.312907     5A    -11.291246     6A    -11.248646
       7A    -11.246820     8A    -11.244291     9A    -11.242737
      10A     -1.615108    11A     -1.415391    12A     -1.161075
      13A     -1.034475    14A     -1.024842    15A     -0.948848
      16A     -0.845494    17A     -0.834192    18A     -0.745952
      19A     -0.709439    20A     -0.703806    21A     -0.688666
      22A     -0.656296    23A     -0.639765    24A     -0.629554
      25A     -0.622416    26A     -0.581423    27A     -0.546756
      28A     -0.531643    29A     -0.522807    30A     -0.496195
      31A     -0.478415    32A     -0.354531    33A     -0.316241

  @DF-RHF Final Energy:  -443.58548236882444

   => Energetics <=

    Nuclear Repulsion Energy =            431.4486143635512576
    One-Electron Energy =               -1462.2540503940360850
    Two-Electron Energy =                 587.2199536616602700
    Total Energy =                       -443.5854823688245006
  Basis Set: (AUG-CC-PVTZ AUX)
    Blend: AUG-CC-PVTZ-RI
    Molecular point group: c1

    Geometry (in Angstrom), charge = 0, multiplicity = 1:

       Center              X                  Y                   Z               Mass
    ------------   -----------------  -----------------  -----------------  -----------------
         F           -0.081025107593     2.176867547494    -0.000207173483    18.998403162730
         O            1.783705892407     0.326176547494     0.000000826517    15.994914619570
         C            0.492384892407    -0.117284452506     0.000017826517    12.000000000000
         C           -0.489904107593     0.886478547494    -0.000096173483    12.000000000000
         C            0.074649892407    -1.451154452506     0.000131826517    12.000000000000
         C           -1.841594107593     0.592600547494    -0.000097173483    12.000000000000
         C           -1.243601307593    -1.746589152506     0.000131826517    12.000000000000
         C           -2.249130107593    -0.746412452506     0.000018826517    12.000000000000
         C            2.794687892407    -0.678835452506     0.000149826517    12.000000000000
         H            0.801024892407    -2.256749452506     0.000218826517     1.007825032230
         H           -2.553853107593     1.412444547494    -0.000187173483     1.007825032230
         H           -1.600115107593    -2.799884452506     0.000221826517     1.007825032230
         H           -3.308026107593    -0.988564452506     0.000019826517     1.007825032230
         H            2.730887892407    -1.307015452506    -0.894887173483     1.007825032230
         H            2.730807892407    -1.306828452506     0.895313826517     1.007825032230
         H            3.738610892407    -0.135448452506     0.000134826517     1.007825032230

  Basis Set: AUG-CC-PVTZ
    Blend: AUG-CC-PVTZ
  Basis Set: (AUG-CC-PVTZ AUX)
    Blend: AUG-CC-PVTZ-JKFIT
	 Reference Energy          =    -443.5854823688244437 [Eh]
	 Singles Energy            =      -0.0000000000000000 [Eh]
	 Same-Spin Energy          =      -0.4391731965462912 [Eh]
	 Opposite-Spin Energy      =      -1.3499657261138864 [Eh]
	 Correlation Energy        =      -1.7891389226601775 [Eh]
	 Total Energy              =    -445.3746212914846296 [Eh]

	 ================> DF-SCS-MP2 Energies <==================
	-----------------------------------------------------------
	 SCS Same-Spin Scale       =       0.3333333333333333 [-]
	 SCS Opposite-Spin Scale   =       1.2000000000000000 [-]
	 SCS Same-Spin Energy      =      -0.1463910655154304 [Eh]
	 SCS Opposite-Spin Energy  =      -1.6199588713366637 [Eh]
	 SCS Correlation Energy    =      -1.7663499368520941 [Eh]
	 SCS Total Energy          =    -445.3518323056765098 [Eh]
	-----------------------------------------------------------

  Dipole Moment: [D]
     X:     0.4888      Y:    -2.5073      Z:     0.0003     Total:     2.5545

*** Psi4 exiting successfully. Buy a developer a beer!
