                               Psi4 1.4a3.dev225

  ==> Input File <==

--------------------------------------------------------------------------
#psi4
#
memory 32 gb

molecule  {
0 1
  F       -0.0963580     2.2498010    -0.0002150
  O        1.7683730     0.3991100    -0.0000070
  C        0.4770520    -0.0443510     0.0000100
  C       -0.5192254     0.9737062    -0.0001056
  C        0.0593170    -1.3782210     0.0001240
  C       -1.8569270     0.6655340    -0.0001050
  C       -1.3077240    -1.6845900     0.0001240
  C       -2.2644630    -0.6734790     0.0000110
  C        2.7793550    -0.6059020     0.0001420
  H        0.7856920    -2.1838160     0.0002110
  H       -2.5691860     1.4853780    -0.0001950
  H       -1.6154480    -2.7269510     0.0002140
  H       -3.3233590    -0.9156310     0.0000120
  H        2.7155550    -1.2340820    -0.8948950
  H        2.7154750    -1.2338950     0.8953060
  H        3.7232780    -0.0625150     0.0001270
units angstrom
no_reorient  #important for SAPT in psi4, default
symmetry c1  #important for SAPT in psi4, default
}

set PROPERTIES_ORIGIN ["COM"]
properties('MP2/aug-cc-pvtz', properties = ['dipole'])
--------------------------------------------------------------------------

    Molecular point group: c1
  Charge       = 0
  Multiplicity = 1
  Basis Set: AUG-CC-PVTZ
    Blend: AUG-CC-PVTZ
  Basis Set: (AUG-CC-PVTZ AUX)
    Blend: AUG-CC-PVTZ-JKFIT

    Orbital Energies [Eh]
    ---------------------

    Doubly Occupied:

       1A    -26.304973     2A    -20.595105     3A    -11.324363
       4A    -11.314937     5A    -11.291019     6A    -11.246852
       7A    -11.246645     8A    -11.245650     9A    -11.241730
      10A     -1.621931    11A     -1.415285    12A     -1.156961
      13A     -1.029413    14A     -1.024941    15A     -0.950510
      16A     -0.847967    17A     -0.831603    18A     -0.747125
      19A     -0.711469    20A     -0.706194    21A     -0.692478
      22A     -0.656768    23A     -0.640857    24A     -0.629991
      25A     -0.621520    26A     -0.580337    27A     -0.548169
      28A     -0.529378    29A     -0.518567    30A     -0.500849
      31A     -0.477653    32A     -0.349414    33A     -0.318070

  @DF-RHF Final Energy:  -443.58839561345320

   => Energetics <=

    Nuclear Repulsion Energy =            430.7294201561066416
    One-Electron Energy =               -1460.7981736153180918
    Two-Electron Energy =                 586.4803578457581352
    Total Energy =                       -443.5883956134532582
  Basis Set: (AUG-CC-PVTZ AUX)
    Blend: AUG-CC-PVTZ-RI
    Molecular point group: c1

    Geometry (in Angstrom), charge = 0, multiplicity = 1:

       Center              X                  Y                   Z               Mass
    ------------   -----------------  -----------------  -----------------  -----------------
         F           -0.075048512612     2.176547679109    -0.000207021160    18.998403162730
         O            1.789682487388     0.325856679109     0.000000978840    15.994914619570
         C            0.498361487388    -0.117604320891     0.000017978840    12.000000000000
         C           -0.497915912612     0.900452879109    -0.000097621160    12.000000000000
         C            0.080626487388    -1.451474320891     0.000131978840    12.000000000000
         C           -1.835617512612     0.592280679109    -0.000097021160    12.000000000000
         C           -1.286414512612    -1.757843320891     0.000131978840    12.000000000000
         C           -2.243153512612    -0.746732320891     0.000018978840    12.000000000000
         C            2.800664487388    -0.679155320891     0.000149978840    12.000000000000
         H            0.807001487388    -2.257069320891     0.000218978840     1.007825032230
         H           -2.547876512612     1.412124679109    -0.000187021160     1.007825032230
         H           -1.594138512612    -2.800204320891     0.000221978840     1.007825032230
         H           -3.302049512612    -0.988884320891     0.000019978840     1.007825032230
         H            2.736864487388    -1.307335320891    -0.894887021160     1.007825032230
         H            2.736784487388    -1.307148320891     0.895313978840     1.007825032230
         H            3.744587487388    -0.135768320891     0.000134978840     1.007825032230

  Basis Set: AUG-CC-PVTZ
    Blend: AUG-CC-PVTZ
  Basis Set: (AUG-CC-PVTZ AUX)
    Blend: AUG-CC-PVTZ-JKFIT
	 Reference Energy          =    -443.5883956134532013 [Eh]
	 Singles Energy            =      -0.0000000000000000 [Eh]
	 Same-Spin Energy          =      -0.4389789903383011 [Eh]
	 Opposite-Spin Energy      =      -1.3497522107106894 [Eh]
	 Correlation Energy        =      -1.7887312010489906 [Eh]
	 Total Energy              =    -445.3771268145022191 [Eh]

	 ================> DF-SCS-MP2 Energies <==================
	-----------------------------------------------------------
	 SCS Same-Spin Scale       =       0.3333333333333333 [-]
	 SCS Opposite-Spin Scale   =       1.2000000000000000 [-]
	 SCS Same-Spin Energy      =      -0.1463263301127670 [Eh]
	 SCS Opposite-Spin Energy  =      -1.6197026528528273 [Eh]
	 SCS Correlation Energy    =      -1.7660289829655944 [Eh]
	 SCS Total Energy          =    -445.3544245964188235 [Eh]
	-----------------------------------------------------------

  Dipole Moment: [D]
     X:     0.5062      Y:    -2.4238      Z:     0.0003     Total:     2.4761

*** Psi4 exiting successfully. Buy a developer a beer!
