                               Psi4 1.4a3.dev225

  ==> Input File <==

--------------------------------------------------------------------------
#psi4
#
memory 32 gb

molecule  {
0 1
  F       -0.0963580     2.2498010    -0.0002150
  O        1.7683730     0.3991100    -0.0000070
  C        0.4770520    -0.0443510     0.0000100
  C       -0.5052370     0.9594120    -0.0001040
  C        0.0773582    -1.4743273     0.0001332
  C       -1.8569270     0.6655340    -0.0001050
  C       -1.3077240    -1.6845900     0.0001240
  C       -2.2644630    -0.6734790     0.0000110
  C        2.7793550    -0.6059020     0.0001420
  H        0.7856920    -2.1838160     0.0002110
  H       -2.5691860     1.4853780    -0.0001950
  H       -1.6154480    -2.7269510     0.0002140
  H       -3.3233590    -0.9156310     0.0000120
  H        2.7155550    -1.2340820    -0.8948950
  H        2.7154750    -1.2338950     0.8953060
  H        3.7232780    -0.0625150     0.0001270
units angstrom
no_reorient  #important for SAPT in psi4, default
symmetry c1  #important for SAPT in psi4, default
}

set PROPERTIES_ORIGIN ["COM"]
properties('MP2/aug-cc-pvtz', properties = ['dipole'])
--------------------------------------------------------------------------

    Molecular point group: c1
  Charge       = 0
  Multiplicity = 1
  Basis Set: AUG-CC-PVTZ
    Blend: AUG-CC-PVTZ
  Basis Set: (AUG-CC-PVTZ AUX)
    Blend: AUG-CC-PVTZ-JKFIT

    Orbital Energies [Eh]
    ---------------------

    Doubly Occupied:

       1A    -26.301548     2A    -20.595761     3A    -11.322542
       4A    -11.321073     5A    -11.292212     6A    -11.251640
       7A    -11.250400     8A    -11.248655     9A    -11.241862
      10A     -1.615489    11A     -1.415562    12A     -1.151323
      13A     -1.029916    14A     -1.022620    15A     -0.950046
      16A     -0.851421    17A     -0.828081    18A     -0.747813
      19A     -0.712760    20A     -0.701000    21A     -0.688749
      22A     -0.656265    23A     -0.644083    24A     -0.634492
      25A     -0.626283    26A     -0.582972    27A     -0.544677
      28A     -0.528428    29A     -0.526635    30A     -0.494582
      31A     -0.477244    32A     -0.348135    33A     -0.315033

  @DF-RHF Final Energy:  -443.57501876451914

   => Energetics <=

    Nuclear Repulsion Energy =            429.1893803273644608
    One-Electron Energy =               -1457.6901930722165162
    Two-Electron Energy =                 584.9257939803328554
    Total Energy =                       -443.5750187645192000
  Basis Set: (AUG-CC-PVTZ AUX)
    Blend: AUG-CC-PVTZ-RI
    Molecular point group: c1

    Geometry (in Angstrom), charge = 0, multiplicity = 1:

       Center              X                  Y                   Z               Mass
    ------------   -----------------  -----------------  -----------------  -----------------
         F           -0.078097786828     2.187058000752    -0.000208049339    18.998403162730
         O            1.786633213172     0.336367000752    -0.000000049339    15.994914619570
         C            0.495312213172    -0.107093999248     0.000016950661    12.000000000000
         C           -0.486976786828     0.896669000752    -0.000097049339    12.000000000000
         C            0.095618413172    -1.537070299248     0.000140150661    12.000000000000
         C           -1.838666786828     0.602791000752    -0.000098049339    12.000000000000
         C           -1.289463786828    -1.747332999248     0.000130950661    12.000000000000
         C           -2.246202786828    -0.736221999248     0.000017950661    12.000000000000
         C            2.797615213172    -0.668644999248     0.000148950661    12.000000000000
         H            0.803952213172    -2.246558999248     0.000217950661     1.007825032230
         H           -2.550925786828     1.422635000752    -0.000188049339     1.007825032230
         H           -1.597187786828    -2.789693999248     0.000220950661     1.007825032230
         H           -3.305098786828    -0.978373999248     0.000018950661     1.007825032230
         H            2.733815213172    -1.296824999248    -0.894888049339     1.007825032230
         H            2.733735213172    -1.296637999248     0.895312950661     1.007825032230
         H            3.741538213172    -0.125257999248     0.000133950661     1.007825032230

  Basis Set: AUG-CC-PVTZ
    Blend: AUG-CC-PVTZ
  Basis Set: (AUG-CC-PVTZ AUX)
    Blend: AUG-CC-PVTZ-JKFIT
	 Reference Energy          =    -443.5750187645191431 [Eh]
	 Singles Energy            =      -0.0000000000000000 [Eh]
	 Same-Spin Energy          =      -0.4391882005842513 [Eh]
	 Opposite-Spin Energy      =      -1.3510085023748721 [Eh]
	 Correlation Energy        =      -1.7901967029591235 [Eh]
	 Total Energy              =    -445.3652154674782651 [Eh]

	 ================> DF-SCS-MP2 Energies <==================
	-----------------------------------------------------------
	 SCS Same-Spin Scale       =       0.3333333333333333 [-]
	 SCS Opposite-Spin Scale   =       1.2000000000000000 [-]
	 SCS Same-Spin Energy      =      -0.1463960668614171 [Eh]
	 SCS Opposite-Spin Energy  =      -1.6212102028498465 [Eh]
	 SCS Correlation Energy    =      -1.7676062697112636 [Eh]
	 SCS Total Energy          =    -445.3426250342304229 [Eh]
	-----------------------------------------------------------

  Dipole Moment: [D]
     X:     0.5441      Y:    -2.4645      Z:     0.0003     Total:     2.5239

*** Psi4 exiting successfully. Buy a developer a beer!
