                               Psi4 1.4a3.dev225

  ==> Input File <==

--------------------------------------------------------------------------
#psi4
#
memory 32 gb

molecule  {
0 1
  F       -0.0963580     2.2498010    -0.0002150
  O        1.7683730     0.3991100    -0.0000070
  C        0.4770520    -0.0443510     0.0000100
  C       -0.5402080     0.9951475    -0.0001081
  C        0.0593170    -1.3782210     0.0001240
  C       -1.8569270     0.6655340    -0.0001050
  C       -1.3077240    -1.6845900     0.0001240
  C       -2.2644630    -0.6734790     0.0000110
  C        2.7793550    -0.6059020     0.0001420
  H        0.7856920    -2.1838160     0.0002110
  H       -2.5691860     1.4853780    -0.0001950
  H       -1.6154480    -2.7269510     0.0002140
  H       -3.3233590    -0.9156310     0.0000120
  H        2.7155550    -1.2340820    -0.8948950
  H        2.7154750    -1.2338950     0.8953060
  H        3.7232780    -0.0625150     0.0001270
units angstrom
no_reorient  #important for SAPT in psi4, default
symmetry c1  #important for SAPT in psi4, default
}

set PROPERTIES_ORIGIN ["COM"]
properties('MP2/aug-cc-pvtz', properties = ['dipole'])
--------------------------------------------------------------------------

    Molecular point group: c1
  Charge       = 0
  Multiplicity = 1
  Basis Set: AUG-CC-PVTZ
    Blend: AUG-CC-PVTZ
  Basis Set: (AUG-CC-PVTZ AUX)
    Blend: AUG-CC-PVTZ-JKFIT

    Orbital Energies [Eh]
    ---------------------

    Doubly Occupied:

       1A    -26.309211     2A    -20.595743     3A    -11.325869
       4A    -11.317321     5A    -11.291015     6A    -11.245836
       7A    -11.244270     8A    -11.243828     9A    -11.240799
      10A     -1.630655    11A     -1.415197    12A     -1.155219
      13A     -1.031376    14A     -1.021021    15A     -0.950587
      16A     -0.847318    17A     -0.831974    18A     -0.749802
      19A     -0.714695    20A     -0.707156    21A     -0.697581
      22A     -0.657275    23A     -0.639207    24A     -0.632160
      25A     -0.621528    26A     -0.579041    27A     -0.548156
      28A     -0.527993    29A     -0.517541    30A     -0.497923
      31A     -0.477624    32A     -0.351483    33A     -0.314181

  @DF-RHF Final Energy:  -443.58615546269522

   => Energetics <=

    Nuclear Repulsion Energy =            430.5462435255476521
    One-Electron Energy =               -1460.4036231074162515
    Two-Electron Energy =                 586.2712241191734392
    Total Energy =                       -443.5861554626951602
  Basis Set: (AUG-CC-PVTZ AUX)
    Blend: AUG-CC-PVTZ-RI
    Molecular point group: c1

    Geometry (in Angstrom), charge = 0, multiplicity = 1:

       Center              X                  Y                   Z               Mass
    ------------   -----------------  -----------------  -----------------  -----------------
         F           -0.073050932212     2.174506429663    -0.000206783156    18.998403162730
         O            1.791680067788     0.323815429663     0.000001216844    15.994914619570
         C            0.500359067788    -0.119645570337     0.000018216844    12.000000000000
         C           -0.516900932212     0.919852929663    -0.000099883156    12.000000000000
         C            0.082624067788    -1.453515570337     0.000132216844    12.000000000000
         C           -1.833619932212     0.590239429663    -0.000096783156    12.000000000000
         C           -1.284416932212    -1.759884570337     0.000132216844    12.000000000000
         C           -2.241155932212    -0.748773570337     0.000019216844    12.000000000000
         C            2.802662067788    -0.681196570337     0.000150216844    12.000000000000
         H            0.808999067788    -2.259110570337     0.000219216844     1.007825032230
         H           -2.545878932212     1.410083429663    -0.000186783156     1.007825032230
         H           -1.592140932212    -2.802245570337     0.000222216844     1.007825032230
         H           -3.300051932212    -0.990925570337     0.000020216844     1.007825032230
         H            2.738862067788    -1.309376570337    -0.894886783156     1.007825032230
         H            2.738782067788    -1.309189570337     0.895314216844     1.007825032230
         H            3.746585067788    -0.137809570337     0.000135216844     1.007825032230

  Basis Set: AUG-CC-PVTZ
    Blend: AUG-CC-PVTZ
  Basis Set: (AUG-CC-PVTZ AUX)
    Blend: AUG-CC-PVTZ-JKFIT
	 Reference Energy          =    -443.5861554626952170 [Eh]
	 Singles Energy            =      -0.0000000000000000 [Eh]
	 Same-Spin Energy          =      -0.4388612706531003 [Eh]
	 Opposite-Spin Energy      =      -1.3496506216153794 [Eh]
	 Correlation Energy        =      -1.7885118922684797 [Eh]
	 Total Energy              =    -445.3746673549637194 [Eh]

	 ================> DF-SCS-MP2 Energies <==================
	-----------------------------------------------------------
	 SCS Same-Spin Scale       =       0.3333333333333333 [-]
	 SCS Opposite-Spin Scale   =       1.2000000000000000 [-]
	 SCS Same-Spin Energy      =      -0.1462870902177001 [Eh]
	 SCS Opposite-Spin Energy  =      -1.6195807459384552 [Eh]
	 SCS Correlation Energy    =      -1.7658678361561553 [Eh]
	 SCS Total Energy          =    -445.3520232988513499 [Eh]
	-----------------------------------------------------------

  Dipole Moment: [D]
     X:     0.5386      Y:    -2.3162      Z:     0.0003     Total:     2.3780

*** Psi4 exiting successfully. Buy a developer a beer!
