                               Psi4 1.4a3.dev225

  ==> Input File <==

--------------------------------------------------------------------------
#psi4
#
memory 32 gb

molecule  {
0 1
  F       -0.0963580     2.2498010    -0.0002150
  O        1.7683730     0.3991100    -0.0000070
  C        0.4770520    -0.0443510     0.0000100
  C       -0.5052370     0.9594120    -0.0001040
  C        0.0593170    -1.3782210     0.0001240
  C       -1.8569270     0.6655340    -0.0001050
  C       -1.1125650    -1.6408527     0.0001240
  C       -2.2644630    -0.6734790     0.0000110
  C        2.7793550    -0.6059020     0.0001420
  H        0.7856920    -2.1838160     0.0002110
  H       -2.5691860     1.4853780    -0.0001950
  H       -1.6154480    -2.7269510     0.0002140
  H       -3.3233590    -0.9156310     0.0000120
  H        2.7155550    -1.2340820    -0.8948950
  H        2.7154750    -1.2338950     0.8953060
  H        3.7232780    -0.0625150     0.0001270
units angstrom
no_reorient  #important for SAPT in psi4, default
symmetry c1  #important for SAPT in psi4, default
}

set PROPERTIES_ORIGIN ["COM"]
properties('MP2/aug-cc-pvtz', properties = ['dipole'])
--------------------------------------------------------------------------

    Molecular point group: c1
  Charge       = 0
  Multiplicity = 1
  Basis Set: AUG-CC-PVTZ
    Blend: AUG-CC-PVTZ
  Basis Set: (AUG-CC-PVTZ AUX)
    Blend: AUG-CC-PVTZ-JKFIT

    Orbital Energies [Eh]
    ---------------------

    Doubly Occupied:

       1A    -26.298426     2A    -20.594916     3A    -11.315952
       4A    -11.312328     5A    -11.292071     6A    -11.250484
       7A    -11.248487     8A    -11.243269     9A    -11.225890
      10A     -1.612480    11A     -1.415689    12A     -1.176542
      13A     -1.057126    14A     -1.016598    15A     -0.942800
      16A     -0.844979    17A     -0.833908    18A     -0.747681
      19A     -0.710131    20A     -0.699653    21A     -0.687261
      22A     -0.656528    23A     -0.640580    24A     -0.633868
      25A     -0.618038    26A     -0.587616    27A     -0.545297
      28A     -0.538384    29A     -0.525345    30A     -0.483805
      31A     -0.462775    32A     -0.377182    33A     -0.304409

  @DF-RHF Final Energy:  -443.52643879078852

   => Energetics <=

    Nuclear Repulsion Energy =            433.4974076229555067
    One-Electron Energy =               -1466.2466946790004840
    Two-Electron Energy =                 589.2228482652565162
    Total Energy =                       -443.5264387907884611
  Basis Set: (AUG-CC-PVTZ AUX)
    Blend: AUG-CC-PVTZ-RI
    Molecular point group: c1

    Geometry (in Angstrom), charge = 0, multiplicity = 1:

       Center              X                  Y                   Z               Mass
    ------------   -----------------  -----------------  -----------------  -----------------
         F           -0.094959712695     2.173744644239    -0.000207173483    18.998403162730
         O            1.769771287305     0.323053644239     0.000000826517    15.994914619570
         C            0.478450287305    -0.120407355761     0.000017826517    12.000000000000
         C           -0.503838712695     0.883355644239    -0.000096173483    12.000000000000
         C            0.060715287305    -1.454277355761     0.000131826517    12.000000000000
         C           -1.855528712695     0.589477644239    -0.000097173483    12.000000000000
         C           -1.111166712695    -1.716909055761     0.000131826517    12.000000000000
         C           -2.263064712695    -0.749535355761     0.000018826517    12.000000000000
         C            2.780753287305    -0.681958355761     0.000149826517    12.000000000000
         H            0.787090287305    -2.259872355761     0.000218826517     1.007825032230
         H           -2.567787712695     1.409321644239    -0.000187173483     1.007825032230
         H           -1.614049712695    -2.803007355761     0.000221826517     1.007825032230
         H           -3.321960712695    -0.991687355761     0.000019826517     1.007825032230
         H            2.716953287305    -1.310138355761    -0.894887173483     1.007825032230
         H            2.716873287305    -1.309951355761     0.895313826517     1.007825032230
         H            3.724676287305    -0.138571355761     0.000134826517     1.007825032230

  Basis Set: AUG-CC-PVTZ
    Blend: AUG-CC-PVTZ
  Basis Set: (AUG-CC-PVTZ AUX)
    Blend: AUG-CC-PVTZ-JKFIT
	 Reference Energy          =    -443.5264387907885180 [Eh]
	 Singles Energy            =      -0.0000000000000000 [Eh]
	 Same-Spin Energy          =      -0.4391465240389755 [Eh]
	 Opposite-Spin Energy      =      -1.3518484788262883 [Eh]
	 Correlation Energy        =      -1.7909950028652639 [Eh]
	 Total Energy              =    -445.3174337936537768 [Eh]

	 ================> DF-SCS-MP2 Energies <==================
	-----------------------------------------------------------
	 SCS Same-Spin Scale       =       0.3333333333333333 [-]
	 SCS Opposite-Spin Scale   =       1.2000000000000000 [-]
	 SCS Same-Spin Energy      =      -0.1463821746796585 [Eh]
	 SCS Opposite-Spin Energy  =      -1.6222181745915460 [Eh]
	 SCS Correlation Energy    =      -1.7686003492712046 [Eh]
	 SCS Total Energy          =    -445.2950391400597141 [Eh]
	-----------------------------------------------------------

  Dipole Moment: [D]
     X:     0.5171      Y:    -2.5364      Z:     0.0003     Total:     2.5886

*** Psi4 exiting successfully. Buy a developer a beer!
