                               Psi4 1.4a3.dev225

  ==> Input File <==

--------------------------------------------------------------------------
#psi4
#
memory 32 gb

molecule  {
0 1
  F       -0.1416410     2.2632846    -0.0002172
  O        1.7683730     0.3991100    -0.0000070
  C        0.4770520    -0.0443510     0.0000100
  C       -0.5052370     0.9594120    -0.0001040
  C        0.0593170    -1.3782210     0.0001240
  C       -1.8569270     0.6655340    -0.0001050
  C       -1.3077240    -1.6845900     0.0001240
  C       -2.2644630    -0.6734790     0.0000110
  C        2.7793550    -0.6059020     0.0001420
  H        0.7856920    -2.1838160     0.0002110
  H       -2.5691860     1.4853780    -0.0001950
  H       -1.6154480    -2.7269510     0.0002140
  H       -3.3233590    -0.9156310     0.0000120
  H        2.7155550    -1.2340820    -0.8948950
  H        2.7154750    -1.2338950     0.8953060
  H        3.7232780    -0.0625150     0.0001270
units angstrom
no_reorient  #important for SAPT in psi4, default
symmetry c1  #important for SAPT in psi4, default
}

set PROPERTIES_ORIGIN ["COM"]
properties('MP2/aug-cc-pvtz', properties = ['dipole'])
--------------------------------------------------------------------------

    Molecular point group: c1
  Charge       = 0
  Multiplicity = 1
  Basis Set: AUG-CC-PVTZ
    Blend: AUG-CC-PVTZ
  Basis Set: (AUG-CC-PVTZ AUX)
    Blend: AUG-CC-PVTZ-JKFIT

    Orbital Energies [Eh]
    ---------------------

    Doubly Occupied:

       1A    -26.302260     2A    -20.594963     3A    -11.323183
       4A    -11.314142     5A    -11.291266     6A    -11.247919
       7A    -11.247568     8A    -11.246594     9A    -11.241978
      10A     -1.616192    11A     -1.415775    12A     -1.158218
      13A     -1.029201    14A     -1.026750    15A     -0.950617
      16A     -0.848410    17A     -0.831762    18A     -0.745645
      19A     -0.709081    20A     -0.705196    21A     -0.689242
      22A     -0.656841    23A     -0.642522    24A     -0.629330
      25A     -0.621137    26A     -0.580448    27A     -0.547807
      28A     -0.530756    29A     -0.519451    30A     -0.502919
      31A     -0.477595    32A     -0.347716    33A     -0.321136

  @DF-RHF Final Energy:  -443.58858097339936

   => Energetics <=

    Nuclear Repulsion Energy =            430.5610902680686536
    One-Electron Energy =               -1460.4720993770904442
    Two-Electron Energy =                 586.3224281356223173
    Total Energy =                       -443.5885809733994165
  Basis Set: (AUG-CC-PVTZ AUX)
    Blend: AUG-CC-PVTZ-RI
    Molecular point group: c1

    Geometry (in Angstrom), charge = 0, multiplicity = 1:

       Center              X                  Y                   Z               Mass
    ------------   -----------------  -----------------  -----------------  -----------------
         F           -0.114838022993     2.189359817392    -0.000209041891    18.998403162730
         O            1.795175977007     0.325185217392     0.000001158109    15.994914619570
         C            0.503854977007    -0.118275782608     0.000018158109    12.000000000000
         C           -0.478434022993     0.885487217392    -0.000095841891    12.000000000000
         C            0.086119977007    -1.452145782608     0.000132158109    12.000000000000
         C           -1.830124022993     0.591609217392    -0.000096841891    12.000000000000
         C           -1.280921022993    -1.758514782608     0.000132158109    12.000000000000
         C           -2.237660022993    -0.747403782608     0.000019158109    12.000000000000
         C            2.806157977007    -0.679826782608     0.000150158109    12.000000000000
         H            0.812494977007    -2.257740782608     0.000219158109     1.007825032230
         H           -2.542383022993     1.411453217392    -0.000186841891     1.007825032230
         H           -1.588645022993    -2.800875782608     0.000222158109     1.007825032230
         H           -3.296556022993    -0.989555782608     0.000020158109     1.007825032230
         H            2.742357977007    -1.308006782608    -0.894886841891     1.007825032230
         H            2.742277977007    -1.307819782608     0.895314158109     1.007825032230
         H            3.750080977007    -0.136439782608     0.000135158109     1.007825032230

  Basis Set: AUG-CC-PVTZ
    Blend: AUG-CC-PVTZ
  Basis Set: (AUG-CC-PVTZ AUX)
    Blend: AUG-CC-PVTZ-JKFIT
	 Reference Energy          =    -443.5885809733993597 [Eh]
	 Singles Energy            =      -0.0000000000000000 [Eh]
	 Same-Spin Energy          =      -0.4389908617893036 [Eh]
	 Opposite-Spin Energy      =      -1.3498171439167610 [Eh]
	 Correlation Energy        =      -1.7888080057060645 [Eh]
	 Total Energy              =    -445.3773889791054330 [Eh]

	 ================> DF-SCS-MP2 Energies <==================
	-----------------------------------------------------------
	 SCS Same-Spin Scale       =       0.3333333333333333 [-]
	 SCS Opposite-Spin Scale   =       1.2000000000000000 [-]
	 SCS Same-Spin Energy      =      -0.1463302872631012 [Eh]
	 SCS Opposite-Spin Energy  =      -1.6197805727001131 [Eh]
	 SCS Correlation Energy    =      -1.7661108599632143 [Eh]
	 SCS Total Energy          =    -445.3546918333625513 [Eh]
	-----------------------------------------------------------

  Dipole Moment: [D]
     X:     0.5207      Y:    -2.5140      Z:     0.0003     Total:     2.5674

*** Psi4 exiting successfully. Buy a developer a beer!
