                               Psi4 1.4a3.dev225

  ==> Input File <==

--------------------------------------------------------------------------
#psi4
#
memory 32 gb

molecule  {
0 1
  F       -0.0963580     2.2498010    -0.0002150
  O        1.7683730     0.3991100    -0.0000070
  C        0.4770520    -0.0443510     0.0000100
  C       -0.5052370     0.9594120    -0.0001040
  C        0.0537619    -1.3544095     0.0001217
  C       -1.8569270     0.6655340    -0.0001050
  C       -1.3077240    -1.6845900     0.0001240
  C       -2.2644630    -0.6734790     0.0000110
  C        2.7793550    -0.6059020     0.0001420
  H        0.7856920    -2.1838160     0.0002110
  H       -2.5691860     1.4853780    -0.0001950
  H       -1.6154480    -2.7269510     0.0002140
  H       -3.3233590    -0.9156310     0.0000120
  H        2.7155550    -1.2340820    -0.8948950
  H        2.7154750    -1.2338950     0.8953060
  H        3.7232780    -0.0625150     0.0001270
units angstrom
no_reorient  #important for SAPT in psi4, default
symmetry c1  #important for SAPT in psi4, default
}

set PROPERTIES_ORIGIN ["COM"]
properties('MP2/aug-cc-pvtz', properties = ['dipole'])
--------------------------------------------------------------------------

    Molecular point group: c1
  Charge       = 0
  Multiplicity = 1
  Basis Set: AUG-CC-PVTZ
    Blend: AUG-CC-PVTZ
  Basis Set: (AUG-CC-PVTZ AUX)
    Blend: AUG-CC-PVTZ-JKFIT

    Orbital Energies [Eh]
    ---------------------

    Doubly Occupied:

       1A    -26.302294     2A    -20.594404     3A    -11.323808
       4A    -11.310678     5A    -11.290661     6A    -11.247877
       7A    -11.247181     8A    -11.246010     9A    -11.242534
      10A     -1.616279    11A     -1.415276    12A     -1.160402
      13A     -1.031109    14A     -1.026023    15A     -0.950659
      16A     -0.849264    17A     -0.831124    18A     -0.745263
      19A     -0.708578    20A     -0.706427    21A     -0.689419
      22A     -0.656262    23A     -0.643257    24A     -0.628736
      25A     -0.617083    26A     -0.580266    27A     -0.549130
      28A     -0.531482    29A     -0.517214    30A     -0.502468
      31A     -0.477836    32A     -0.348533    33A     -0.322159

  @DF-RHF Final Energy:  -443.58818841809347

   => Energetics <=

    Nuclear Repulsion Energy =            431.2878435522275709
    One-Electron Energy =               -1461.9326744682055050
    Two-Electron Energy =                 587.0566424978844680
    Total Energy =                       -443.5881884180935231
  Basis Set: (AUG-CC-PVTZ AUX)
    Blend: AUG-CC-PVTZ-RI
    Molecular point group: c1

    Geometry (in Angstrom), charge = 0, multiplicity = 1:

       Center              X                  Y                   Z               Mass
    ------------   -----------------  -----------------  -----------------  -----------------
         F           -0.075851377595     2.175641615421    -0.000206954519    18.998403162730
         O            1.788879622405     0.324950615421     0.000001045481    15.994914619570
         C            0.497558622405    -0.118510384579     0.000018045481    12.000000000000
         C           -0.484730377595     0.885252615421    -0.000095954519    12.000000000000
         C            0.074268522405    -1.428568884579     0.000129745481    12.000000000000
         C           -1.836420377595     0.591374615421    -0.000096954519    12.000000000000
         C           -1.287217377595    -1.758749384579     0.000132045481    12.000000000000
         C           -2.243956377595    -0.747638384579     0.000019045481    12.000000000000
         C            2.799861622405    -0.680061384579     0.000150045481    12.000000000000
         H            0.806198622405    -2.257975384579     0.000219045481     1.007825032230
         H           -2.548679377595     1.411218615421    -0.000186954519     1.007825032230
         H           -1.594941377595    -2.801110384579     0.000222045481     1.007825032230
         H           -3.302852377595    -0.989790384579     0.000020045481     1.007825032230
         H            2.736061622405    -1.308241384579    -0.894886954519     1.007825032230
         H            2.735981622405    -1.308054384579     0.895314045481     1.007825032230
         H            3.743784622405    -0.136674384579     0.000135045481     1.007825032230

  Basis Set: AUG-CC-PVTZ
    Blend: AUG-CC-PVTZ
  Basis Set: (AUG-CC-PVTZ AUX)
    Blend: AUG-CC-PVTZ-JKFIT
	 Reference Energy          =    -443.5881884180934662 [Eh]
	 Singles Energy            =      -0.0000000000000000 [Eh]
	 Same-Spin Energy          =      -0.4390330259558234 [Eh]
	 Opposite-Spin Energy      =      -1.3497877536466238 [Eh]
	 Correlation Energy        =      -1.7888207796024473 [Eh]
	 Total Energy              =    -445.3770091976959407 [Eh]

	 ================> DF-SCS-MP2 Energies <==================
	-----------------------------------------------------------
	 SCS Same-Spin Scale       =       0.3333333333333333 [-]
	 SCS Opposite-Spin Scale   =       1.2000000000000000 [-]
	 SCS Same-Spin Energy      =      -0.1463443419852745 [Eh]
	 SCS Opposite-Spin Energy  =      -1.6197453043759487 [Eh]
	 SCS Correlation Energy    =      -1.7660896463612230 [Eh]
	 SCS Total Energy          =    -445.3542780644546610 [Eh]
	-----------------------------------------------------------

  Dipole Moment: [D]
     X:     0.4624      Y:    -2.5026      Z:     0.0003     Total:     2.5449

*** Psi4 exiting successfully. Buy a developer a beer!
