                               Psi4 1.4a3.dev225

  ==> Input File <==

--------------------------------------------------------------------------
#psi4
#
memory 32 gb

molecule  {
0 1
  F       -0.0963580     2.2498010    -0.0002150
  O        1.7961617     0.3079518     0.0000022
  C        0.4770520    -0.0443510     0.0000100
  C       -0.5052370     0.9594120    -0.0001040
  C        0.0593170    -1.3782210     0.0001240
  C       -1.8569270     0.6655340    -0.0001050
  C       -1.3077240    -1.6845900     0.0001240
  C       -2.2644630    -0.6734790     0.0000110
  C        2.7793550    -0.6059020     0.0001420
  H        0.7856920    -2.1838160     0.0002110
  H       -2.5691860     1.4853780    -0.0001950
  H       -1.6154480    -2.7269510     0.0002140
  H       -3.3233590    -0.9156310     0.0000120
  H        2.7155550    -1.2340820    -0.8948950
  H        2.7154750    -1.2338950     0.8953060
  H        3.7232780    -0.0625150     0.0001270
units angstrom
no_reorient  #important for SAPT in psi4, default
symmetry c1  #important for SAPT in psi4, default
}

set PROPERTIES_ORIGIN ["COM"]
properties('MP2/aug-cc-pvtz', properties = ['dipole'])
--------------------------------------------------------------------------

    Molecular point group: c1
  Charge       = 0
  Multiplicity = 1
  Basis Set: AUG-CC-PVTZ
    Blend: AUG-CC-PVTZ
  Basis Set: (AUG-CC-PVTZ AUX)
    Blend: AUG-CC-PVTZ-JKFIT

    Orbital Energies [Eh]
    ---------------------

    Doubly Occupied:

       1A    -26.304626     2A    -20.589456     3A    -11.327935
       4A    -11.317258     5A    -11.282918     6A    -11.251200
       7A    -11.248287     8A    -11.247017     9A    -11.244383
      10A     -1.618597    11A     -1.437498    12A     -1.162133
      13A     -1.038403    14A     -1.028457    15A     -0.948943
      16A     -0.852398    17A     -0.831166    18A     -0.751154
      19A     -0.714551    20A     -0.709872    21A     -0.693382
      22A     -0.668979    23A     -0.646297    24A     -0.642348
      25A     -0.622370    26A     -0.588534    27A     -0.546241
      28A     -0.525660    29A     -0.521795    30A     -0.490505
      31A     -0.471794    32A     -0.349422    33A     -0.323033

  @DF-RHF Final Energy:  -443.58610043330037

   => Energetics <=

    Nuclear Repulsion Energy =            431.7081201474072714
    One-Electron Energy =               -1462.5952189909824028
    Two-Electron Energy =                 587.3009984102747012
    Total Energy =                       -443.5861004333004303
  Basis Set: (AUG-CC-PVTZ AUX)
    Blend: AUG-CC-PVTZ-RI
    Molecular point group: c1

    Geometry (in Angstrom), charge = 0, multiplicity = 1:

       Center              X                  Y                   Z               Mass
    ------------   -----------------  -----------------  -----------------  -----------------
         F           -0.079906489193     2.189476062133    -0.000208340920    18.998403162730
         O            1.812613210807     0.247626862133     0.000008859080    15.994914619570
         C            0.493503510807    -0.104675937867     0.000016659080    12.000000000000
         C           -0.488785489193     0.899087062133    -0.000097340920    12.000000000000
         C            0.075768510807    -1.438545937867     0.000130659080    12.000000000000
         C           -1.840475489193     0.605209062133    -0.000098340920    12.000000000000
         C           -1.291272489193    -1.744914937867     0.000130659080    12.000000000000
         C           -2.248011489193    -0.733803937867     0.000017659080    12.000000000000
         C            2.795806510807    -0.666226937867     0.000148659080    12.000000000000
         H            0.802143510807    -2.244140937867     0.000217659080     1.007825032230
         H           -2.552734489193     1.425053062133    -0.000188340920     1.007825032230
         H           -1.598996489193    -2.787275937867     0.000220659080     1.007825032230
         H           -3.306907489193    -0.975955937867     0.000018659080     1.007825032230
         H            2.732006510807    -1.294406937867    -0.894888340920     1.007825032230
         H            2.731926510807    -1.294219937867     0.895312659080     1.007825032230
         H            3.739729510807    -0.122839937867     0.000133659080     1.007825032230

  Basis Set: AUG-CC-PVTZ
    Blend: AUG-CC-PVTZ
  Basis Set: (AUG-CC-PVTZ AUX)
    Blend: AUG-CC-PVTZ-JKFIT
	 Reference Energy          =    -443.5861004333003734 [Eh]
	 Singles Energy            =      -0.0000000000000000 [Eh]
	 Same-Spin Energy          =      -0.4385442181334303 [Eh]
	 Opposite-Spin Energy      =      -1.3475320981395815 [Eh]
	 Correlation Energy        =      -1.7860763162730118 [Eh]
	 Total Energy              =    -445.3721767495733843 [Eh]

	 ================> DF-SCS-MP2 Energies <==================
	-----------------------------------------------------------
	 SCS Same-Spin Scale       =       0.3333333333333333 [-]
	 SCS Opposite-Spin Scale   =       1.2000000000000000 [-]
	 SCS Same-Spin Energy      =      -0.1461814060444767 [Eh]
	 SCS Opposite-Spin Energy  =      -1.6170385177674977 [Eh]
	 SCS Correlation Energy    =      -1.7632199238119746 [Eh]
	 SCS Total Energy          =    -445.3493203571123331 [Eh]
	-----------------------------------------------------------

  Dipole Moment: [D]
     X:     0.2064      Y:    -2.2871      Z:     0.0003     Total:     2.2964

*** Psi4 exiting successfully. Buy a developer a beer!
