                               Psi4 1.4a3.dev225

  ==> Input File <==

--------------------------------------------------------------------------
#psi4
#
memory 32 gb

molecule  {
0 1
  F       -0.0963580     2.2498010    -0.0002150
  O        1.7683730     0.3991100    -0.0000070
  C        0.4770520    -0.0443510     0.0000100
  C       -0.5052370     0.9594120    -0.0001040
  C        0.0198039    -1.2370046     0.0001102
  C       -1.8569270     0.6655340    -0.0001050
  C       -1.3077240    -1.6845900     0.0001240
  C       -2.2644630    -0.6734790     0.0000110
  C        2.7793550    -0.6059020     0.0001420
  H        0.7856920    -2.1838160     0.0002110
  H       -2.5691860     1.4853780    -0.0001950
  H       -1.6154480    -2.7269510     0.0002140
  H       -3.3233590    -0.9156310     0.0000120
  H        2.7155550    -1.2340820    -0.8948950
  H        2.7154750    -1.2338950     0.8953060
  H        3.7232780    -0.0625150     0.0001270
units angstrom
no_reorient  #important for SAPT in psi4, default
symmetry c1  #important for SAPT in psi4, default
}

set PROPERTIES_ORIGIN ["COM"]
properties('MP2/aug-cc-pvtz', properties = ['dipole'])
--------------------------------------------------------------------------

    Molecular point group: c1
  Charge       = 0
  Multiplicity = 1
  Basis Set: AUG-CC-PVTZ
    Blend: AUG-CC-PVTZ
  Basis Set: (AUG-CC-PVTZ AUX)
    Blend: AUG-CC-PVTZ-JKFIT

    Orbital Energies [Eh]
    ---------------------

    Doubly Occupied:

       1A    -26.303190     2A    -20.593524     3A    -11.326699
       4A    -11.298013     5A    -11.288788     6A    -11.246799
       7A    -11.245071     8A    -11.243865     9A    -11.243639
      10A     -1.617266    11A     -1.415074    12A     -1.173972
      13A     -1.043080    14A     -1.022831    15A     -0.952182
      16A     -0.855434    17A     -0.828457    18A     -0.745929
      19A     -0.711842    20A     -0.704671    21A     -0.690497
      22A     -0.656364    23A     -0.651626    24A     -0.629533
      25A     -0.600339    26A     -0.574262    27A     -0.554142
      28A     -0.538689    29A     -0.515973    30A     -0.483924
      31A     -0.478898    32A     -0.354250    33A     -0.327080

  @DF-RHF Final Energy:  -443.56124928435509

   => Energetics <=

    Nuclear Repulsion Energy =            433.5137748917842373
    One-Electron Energy =               -1466.3182459577089958
    Two-Electron Energy =                 589.2432217815695594
    Total Energy =                       -443.5612492843550854
  Basis Set: (AUG-CC-PVTZ AUX)
    Blend: AUG-CC-PVTZ-RI
    Molecular point group: c1

    Geometry (in Angstrom), charge = 0, multiplicity = 1:

       Center              X                  Y                   Z               Mass
    ------------   -----------------  -----------------  -----------------  -----------------
         F           -0.072618516309     2.164464462587    -0.000205859699    18.998403162730
         O            1.792112483691     0.313773462587     0.000002140301    15.994914619570
         C            0.500791483691    -0.129687537413     0.000019140301    12.000000000000
         C           -0.481497516309     0.874075462587    -0.000094859699    12.000000000000
         C            0.043543383691    -1.322341137413     0.000119340301    12.000000000000
         C           -1.833187516309     0.580197462587    -0.000095859699    12.000000000000
         C           -1.283984516309    -1.769926537413     0.000133140301    12.000000000000
         C           -2.240723516309    -0.758815537413     0.000020140301    12.000000000000
         C            2.803094483691    -0.691238537413     0.000151140301    12.000000000000
         H            0.809431483691    -2.269152537413     0.000220140301     1.007825032230
         H           -2.545446516309     1.400041462587    -0.000185859699     1.007825032230
         H           -1.591708516309    -2.812287537413     0.000223140301     1.007825032230
         H           -3.299619516309    -1.000967537413     0.000021140301     1.007825032230
         H            2.739294483691    -1.319418537413    -0.894885859699     1.007825032230
         H            2.739214483691    -1.319231537413     0.895315140301     1.007825032230
         H            3.747017483691    -0.147851537413     0.000136140301     1.007825032230

  Basis Set: AUG-CC-PVTZ
    Blend: AUG-CC-PVTZ
  Basis Set: (AUG-CC-PVTZ AUX)
    Blend: AUG-CC-PVTZ-JKFIT
	 Reference Energy          =    -443.5612492843550854 [Eh]
	 Singles Energy            =      -0.0000000000000000 [Eh]
	 Same-Spin Energy          =      -0.4393360530165391 [Eh]
	 Opposite-Spin Energy      =      -1.3506208226868601 [Eh]
	 Correlation Energy        =      -1.7899568757033992 [Eh]
	 Total Energy              =    -445.3512061600584957 [Eh]

	 ================> DF-SCS-MP2 Energies <==================
	-----------------------------------------------------------
	 SCS Same-Spin Scale       =       0.3333333333333333 [-]
	 SCS Opposite-Spin Scale   =       1.2000000000000000 [-]
	 SCS Same-Spin Energy      =      -0.1464453510055130 [Eh]
	 SCS Opposite-Spin Energy  =      -1.6207449872242321 [Eh]
	 SCS Correlation Energy    =      -1.7671903382297451 [Eh]
	 SCS Total Energy          =    -445.3284396225848241 [Eh]
	-----------------------------------------------------------

  Dipole Moment: [D]
     X:     0.3320      Y:    -2.5199      Z:     0.0003     Total:     2.5417

*** Psi4 exiting successfully. Buy a developer a beer!
