                               Psi4 1.4a3.dev225

  ==> Input File <==

--------------------------------------------------------------------------
#psi4
#
memory 32 gb

molecule  {
0 1
  F       -0.0963580     2.2498010    -0.0002150
  O        1.7234259     0.3428385     0.1306749
  C        0.4770520    -0.0443510     0.0000100
  C       -0.5052370     0.9594120    -0.0001040
  C        0.0593170    -1.3782210     0.0001240
  C       -1.8569270     0.6655340    -0.0001050
  C       -1.3077240    -1.6845900     0.0001240
  C       -2.2644630    -0.6734790     0.0000110
  C        2.7793550    -0.6059020     0.0001420
  H        0.7856920    -2.1838160     0.0002110
  H       -2.5691860     1.4853780    -0.0001950
  H       -1.6154480    -2.7269510     0.0002140
  H       -3.3233590    -0.9156310     0.0000120
  H        2.7155550    -1.2340820    -0.8948950
  H        2.7154750    -1.2338950     0.8953060
  H        3.7232780    -0.0625150     0.0001270
units angstrom
no_reorient  #important for SAPT in psi4, default
symmetry c1  #important for SAPT in psi4, default
}

set PROPERTIES_ORIGIN ["COM"]
properties('MP2/aug-cc-pvtz', properties = ['dipole'])
--------------------------------------------------------------------------

    Molecular point group: c1
  Charge       = 0
  Multiplicity = 1
  Basis Set: AUG-CC-PVTZ
    Blend: AUG-CC-PVTZ
  Basis Set: (AUG-CC-PVTZ AUX)
    Blend: AUG-CC-PVTZ-JKFIT

    Orbital Energies [Eh]
    ---------------------

    Doubly Occupied:

       1A    -26.300489     2A    -20.594358     3A    -11.319130
       4A    -11.310742     5A    -11.296242     6A    -11.246737
       7A    -11.244512     8A    -11.241160     9A    -11.238015
      10A     -1.614628    11A     -1.437029    12A     -1.155051
      13A     -1.031330    14A     -1.024597    15A     -0.955826
      16A     -0.849642    17A     -0.828355    18A     -0.747045
      19A     -0.712570    20A     -0.708772    21A     -0.690177
      22A     -0.662479    23A     -0.641173    24A     -0.635029
      25A     -0.619111    26A     -0.581446    27A     -0.548807
      28A     -0.535602    29A     -0.520794    30A     -0.496306
      31A     -0.475490    32A     -0.345382    33A     -0.314385

  @DF-RHF Final Energy:  -443.58655387400057

   => Energetics <=

    Nuclear Repulsion Energy =            432.3143302057362121
    One-Electron Energy =               -1463.9569483967320593
    Two-Electron Energy =                 588.0560643169951618
    Total Energy =                       -443.5865538740006286
  Basis Set: (AUG-CC-PVTZ AUX)
    Blend: AUG-CC-PVTZ-RI
    Molecular point group: c1

    Geometry (in Angstrom), charge = 0, multiplicity = 1:

       Center              X                  Y                   Z               Mass
    ------------   -----------------  -----------------  -----------------  -----------------
         F           -0.070676655698     2.185049102751    -0.016790096579    18.998403162730
         O            1.749107244302     0.278086602751     0.114099803421    15.994914619570
         C            0.502733344302    -0.109102897249    -0.016565096579    12.000000000000
         C           -0.479555655698     0.894660102751    -0.016679096579    12.000000000000
         C            0.084998344302    -1.442972897249    -0.016451096579    12.000000000000
         C           -1.831245655698     0.600782102751    -0.016680096579    12.000000000000
         C           -1.282042655698    -1.749341897249    -0.016451096579    12.000000000000
         C           -2.238781655698    -0.738230897249    -0.016564096579    12.000000000000
         C            2.805036344302    -0.670653897249    -0.016433096579    12.000000000000
         H            0.811373344302    -2.248567897249    -0.016364096579     1.007825032230
         H           -2.543504655698     1.420626102751    -0.016770096579     1.007825032230
         H           -1.589766655698    -2.791702897249    -0.016361096579     1.007825032230
         H           -3.297677655698    -0.980382897249    -0.016563096579     1.007825032230
         H            2.741236344302    -1.298833897249    -0.911470096579     1.007825032230
         H            2.741156344302    -1.298646897249     0.878730903421     1.007825032230
         H            3.748959344302    -0.127266897249    -0.016448096579     1.007825032230

  Basis Set: AUG-CC-PVTZ
    Blend: AUG-CC-PVTZ
  Basis Set: (AUG-CC-PVTZ AUX)
    Blend: AUG-CC-PVTZ-JKFIT
	 Reference Energy          =    -443.5865538740005718 [Eh]
	 Singles Energy            =      -0.0000000000000000 [Eh]
	 Same-Spin Energy          =      -0.4388117228391736 [Eh]
	 Opposite-Spin Energy      =      -1.3483945136456068 [Eh]
	 Correlation Energy        =      -1.7872062364847805 [Eh]
	 Total Energy              =    -445.3737601104853638 [Eh]

	 ================> DF-SCS-MP2 Energies <==================
	-----------------------------------------------------------
	 SCS Same-Spin Scale       =       0.3333333333333333 [-]
	 SCS Opposite-Spin Scale   =       1.2000000000000000 [-]
	 SCS Same-Spin Energy      =      -0.1462705742797245 [Eh]
	 SCS Opposite-Spin Energy  =      -1.6180734163747281 [Eh]
	 SCS Correlation Energy    =      -1.7643439906544527 [Eh]
	 SCS Total Energy          =    -445.3508978646549963 [Eh]
	-----------------------------------------------------------

  Dipole Moment: [D]
     X:     0.8671      Y:    -2.3945      Z:    -0.1417     Total:     2.5506

*** Psi4 exiting successfully. Buy a developer a beer!
