                               Psi4 1.4a3.dev225

  ==> Input File <==

--------------------------------------------------------------------------
#psi4
#
memory 32 gb

molecule  {
0 1
  F       -0.0963580     2.2498010    -0.0002150
  O        1.8243966     0.4443703    -0.1306873
  C        0.4770520    -0.0443510     0.0000100
  C       -0.5052370     0.9594120    -0.0001040
  C        0.0593170    -1.3782210     0.0001240
  C       -1.8569270     0.6655340    -0.0001050
  C       -1.3077240    -1.6845900     0.0001240
  C       -2.2644630    -0.6734790     0.0000110
  C        2.7793550    -0.6059020     0.0001420
  H        0.7856920    -2.1838160     0.0002110
  H       -2.5691860     1.4853780    -0.0001950
  H       -1.6154480    -2.7269510     0.0002140
  H       -3.3233590    -0.9156310     0.0000120
  H        2.7155550    -1.2340820    -0.8948950
  H        2.7154750    -1.2338950     0.8953060
  H        3.7232780    -0.0625150     0.0001270
units angstrom
no_reorient  #important for SAPT in psi4, default
symmetry c1  #important for SAPT in psi4, default
}

set PROPERTIES_ORIGIN ["COM"]
properties('MP2/aug-cc-pvtz', properties = ['dipole'])
--------------------------------------------------------------------------

    Molecular point group: c1
  Charge       = 0
  Multiplicity = 1
  Basis Set: AUG-CC-PVTZ
    Blend: AUG-CC-PVTZ
  Basis Set: (AUG-CC-PVTZ AUX)
    Blend: AUG-CC-PVTZ-JKFIT

    Orbital Energies [Eh]
    ---------------------

    Doubly Occupied:

       1A    -26.304274     2A    -20.594244     3A    -11.328717
       4A    -11.315746     5A    -11.284734     6A    -11.253957
       7A    -11.251014     8A    -11.249900     9A    -11.247776
      10A     -1.618049    11A     -1.390185    12A     -1.162231
      13A     -1.031629    14A     -1.026117    15A     -0.941887
      16A     -0.849129    17A     -0.834562    18A     -0.745196
      19A     -0.707797    20A     -0.698695    21A     -0.689213
      22A     -0.647864    23A     -0.642346    24A     -0.624171
      25A     -0.620644    26A     -0.581598    27A     -0.548288
      28A     -0.526043    29A     -0.514706    30A     -0.507048
      31A     -0.474452    32A     -0.351335    33A     -0.328953

  @DF-RHF Final Energy:  -443.57816099065565

   => Energetics <=

    Nuclear Repulsion Energy =            428.9267638224825419
    One-Electron Energy =               -1457.2248485838981651
    Two-Electron Energy =                 584.7199237707599195
    Total Energy =                       -443.5781609906556469
  Basis Set: (AUG-CC-PVTZ AUX)
    Blend: AUG-CC-PVTZ-RI
    Molecular point group: c1

    Geometry (in Angstrom), charge = 0, multiplicity = 1:

       Center              X                  Y                   Z               Mass
    ------------   -----------------  -----------------  -----------------  -----------------
         F           -0.083489366204     2.172165191274     0.016375546581    18.998403162730
         O            1.837265233796     0.366734491274    -0.114096753419    15.994914619570
         C            0.489920633796    -0.121986808726     0.016600546581    12.000000000000
         C           -0.492368366204     0.881776191274     0.016486546581    12.000000000000
         C            0.072185633796    -1.455856808726     0.016714546581    12.000000000000
         C           -1.844058366204     0.587898191274     0.016485546581    12.000000000000
         C           -1.294855366204    -1.762225808726     0.016714546581    12.000000000000
         C           -2.251594366204    -0.751114808726     0.016601546581    12.000000000000
         C            2.792223633796    -0.683537808726     0.016732546581    12.000000000000
         H            0.798560633796    -2.261451808726     0.016801546581     1.007825032230
         H           -2.556317366204     1.407742191274     0.016395546581     1.007825032230
         H           -1.602579366204    -2.804586808726     0.016804546581     1.007825032230
         H           -3.310490366204    -0.993266808726     0.016602546581     1.007825032230
         H            2.728423633796    -1.311717808726    -0.878304453419     1.007825032230
         H            2.728343633796    -1.311530808726     0.911896546581     1.007825032230
         H            3.736146633796    -0.140150808726     0.016717546581     1.007825032230

  Basis Set: AUG-CC-PVTZ
    Blend: AUG-CC-PVTZ
  Basis Set: (AUG-CC-PVTZ AUX)
    Blend: AUG-CC-PVTZ-JKFIT
	 Reference Energy          =    -443.5781609906556469 [Eh]
	 Singles Energy            =      -0.0000000000000000 [Eh]
	 Same-Spin Energy          =      -0.4396057340454902 [Eh]
	 Opposite-Spin Energy      =      -1.3523654469244337 [Eh]
	 Correlation Energy        =      -1.7919711809699239 [Eh]
	 Total Energy              =    -445.3701321716255848 [Eh]

	 ================> DF-SCS-MP2 Energies <==================
	-----------------------------------------------------------
	 SCS Same-Spin Scale       =       0.3333333333333333 [-]
	 SCS Opposite-Spin Scale   =       1.2000000000000000 [-]
	 SCS Same-Spin Energy      =      -0.1465352446818300 [Eh]
	 SCS Opposite-Spin Energy  =      -1.6228385363093205 [Eh]
	 SCS Correlation Energy    =      -1.7693737809911505 [Eh]
	 SCS Total Energy          =    -445.3475347716467923 [Eh]
	-----------------------------------------------------------

  Dipole Moment: [D]
     X:    -0.0125      Y:    -2.5971      Z:     0.1590     Total:     2.6020

*** Psi4 exiting successfully. Buy a developer a beer!
