                               Psi4 1.4a3.dev225

  ==> Input File <==

--------------------------------------------------------------------------
#psi4
#
memory 32 gb

molecule  {
0 1
  F       -0.0738999     2.2424685    -0.0002138
  O        1.7683730     0.3991100    -0.0000070
  C        0.4770520    -0.0443510     0.0000100
  C       -0.5052370     0.9594120    -0.0001040
  C        0.0593170    -1.3782210     0.0001240
  C       -1.8569270     0.6655340    -0.0001050
  C       -1.3077240    -1.6845900     0.0001240
  C       -2.2644630    -0.6734790     0.0000110
  C        2.7793550    -0.6059020     0.0001420
  H        0.7856920    -2.1838160     0.0002110
  H       -2.5691860     1.4853780    -0.0001950
  H       -1.6154480    -2.7269510     0.0002140
  H       -3.3233590    -0.9156310     0.0000120
  H        2.7155550    -1.2340820    -0.8948950
  H        2.7154750    -1.2338950     0.8953060
  H        3.7232780    -0.0625150     0.0001270
units angstrom
no_reorient  #important for SAPT in psi4, default
symmetry c1  #important for SAPT in psi4, default
}

set PROPERTIES_ORIGIN ["COM"]
properties('MP2/aug-cc-pvtz', properties = ['dipole'])
--------------------------------------------------------------------------

    Molecular point group: c1
  Charge       = 0
  Multiplicity = 1
  Basis Set: AUG-CC-PVTZ
    Blend: AUG-CC-PVTZ
  Basis Set: (AUG-CC-PVTZ AUX)
    Blend: AUG-CC-PVTZ-JKFIT

    Orbital Energies [Eh]
    ---------------------

    Doubly Occupied:

       1A    -26.302052     2A    -20.594481     3A    -11.323366
       4A    -11.312641     5A    -11.290864     6A    -11.249074
       7A    -11.247534     8A    -11.246374     9A    -11.242508
      10A     -1.616094    11A     -1.415106    12A     -1.158274
      13A     -1.029124    14A     -1.026698    15A     -0.950357
      16A     -0.849133    17A     -0.830645    18A     -0.745392
      19A     -0.709547    20A     -0.705394    21A     -0.689292
      22A     -0.655962    23A     -0.641854    24A     -0.627951
      25A     -0.621388    26A     -0.581370    27A     -0.548304
      28A     -0.530134    29A     -0.519269    30A     -0.501979
      31A     -0.477716    32A     -0.348252    33A     -0.320695

  @DF-RHF Final Energy:  -443.58857033160359

   => Energetics <=

    Nuclear Repulsion Energy =            431.0181937947302799
    One-Electron Energy =               -1461.3958779950712596
    Two-Electron Energy =                 586.7891138687374450
    Total Energy =                       -443.5885703316035915
  Basis Set: (AUG-CC-PVTZ AUX)
    Blend: AUG-CC-PVTZ-RI
    Molecular point group: c1

    Geometry (in Angstrom), charge = 0, multiplicity = 1:

       Center              X                  Y                   Z               Mass
    ------------   -----------------  -----------------  -----------------  -----------------
         F           -0.057307095141     2.171681191753    -0.000206154351    18.998403162730
         O            1.784965804859     0.328322691753     0.000000645649    15.994914619570
         C            0.493644804859    -0.115138308247     0.000017645649    12.000000000000
         C           -0.488644195141     0.888624691753    -0.000096354351    12.000000000000
         C            0.075909804859    -1.449008308247     0.000131645649    12.000000000000
         C           -1.840334195141     0.594746691753    -0.000097354351    12.000000000000
         C           -1.291131195141    -1.755377308247     0.000131645649    12.000000000000
         C           -2.247870195141    -0.744266308247     0.000018645649    12.000000000000
         C            2.795947804859    -0.676689308247     0.000149645649    12.000000000000
         H            0.802284804859    -2.254603308247     0.000218645649     1.007825032230
         H           -2.552593195141     1.414590691753    -0.000187354351     1.007825032230
         H           -1.598855195141    -2.797738308247     0.000221645649     1.007825032230
         H           -3.306766195141    -0.986418308247     0.000019645649     1.007825032230
         H            2.732147804859    -1.304869308247    -0.894887354351     1.007825032230
         H            2.732067804859    -1.304682308247     0.895313645649     1.007825032230
         H            3.739870804859    -0.133302308247     0.000134645649     1.007825032230

  Basis Set: AUG-CC-PVTZ
    Blend: AUG-CC-PVTZ
  Basis Set: (AUG-CC-PVTZ AUX)
    Blend: AUG-CC-PVTZ-JKFIT
	 Reference Energy          =    -443.5885703316035915 [Eh]
	 Singles Energy            =      -0.0000000000000000 [Eh]
	 Same-Spin Energy          =      -0.4390609563535310 [Eh]
	 Opposite-Spin Energy      =      -1.3499019833579302 [Eh]
	 Correlation Energy        =      -1.7889629397114613 [Eh]
	 Total Energy              =    -445.3775332713150306 [Eh]

	 ================> DF-SCS-MP2 Energies <==================
	-----------------------------------------------------------
	 SCS Same-Spin Scale       =       0.3333333333333333 [-]
	 SCS Opposite-Spin Scale   =       1.2000000000000000 [-]
	 SCS Same-Spin Energy      =      -0.1463536521178437 [Eh]
	 SCS Opposite-Spin Energy  =      -1.6198823800295161 [Eh]
	 SCS Correlation Energy    =      -1.7662360321473598 [Eh]
	 SCS Total Energy          =    -445.3548063637509244 [Eh]
	-----------------------------------------------------------

  Dipole Moment: [D]
     X:     0.4639      Y:    -2.4855      Z:     0.0003     Total:     2.5284

*** Psi4 exiting successfully. Buy a developer a beer!
