                               Psi4 1.4a3.dev225

  ==> Input File <==

--------------------------------------------------------------------------
#psi4
#
memory 32 gb

molecule  {
0 1
  F       -0.0963580     2.2498010    -0.0002150
  O        1.7683730     0.3991100    -0.0000070
  C        0.4770520    -0.0443510     0.0000100
  C       -0.5052370     0.9594120    -0.0001040
  C        0.0742601    -1.3305062     0.0001199
  C       -1.8569270     0.6655340    -0.0001050
  C       -1.3077240    -1.6845900     0.0001240
  C       -2.2644630    -0.6734790     0.0000110
  C        2.7793550    -0.6059020     0.0001420
  H        0.7856920    -2.1838160     0.0002110
  H       -2.5691860     1.4853780    -0.0001950
  H       -1.6154480    -2.7269510     0.0002140
  H       -3.3233590    -0.9156310     0.0000120
  H        2.7155550    -1.2340820    -0.8948950
  H        2.7154750    -1.2338950     0.8953060
  H        3.7232780    -0.0625150     0.0001270
units angstrom
no_reorient  #important for SAPT in psi4, default
symmetry c1  #important for SAPT in psi4, default
}

set PROPERTIES_ORIGIN ["COM"]
properties('MP2/aug-cc-pvtz', properties = ['dipole'])
--------------------------------------------------------------------------

    Molecular point group: c1
  Charge       = 0
  Multiplicity = 1
  Basis Set: AUG-CC-PVTZ
    Blend: AUG-CC-PVTZ
  Basis Set: (AUG-CC-PVTZ AUX)
    Blend: AUG-CC-PVTZ-JKFIT

    Orbital Energies [Eh]
    ---------------------

    Doubly Occupied:

       1A    -26.302977     2A    -20.592892     3A    -11.324994
       4A    -11.307486     5A    -11.289940     6A    -11.249152
       7A    -11.247566     8A    -11.245446     9A    -11.243000
      10A     -1.616881    11A     -1.414782    12A     -1.160921
      13A     -1.034497    14A     -1.022761    15A     -0.950989
      16A     -0.851766    17A     -0.829173    18A     -0.745692
      19A     -0.708470    20A     -0.706896    21A     -0.689917
      22A     -0.656043    23A     -0.643565    24A     -0.628543
      25A     -0.616623    26A     -0.578804    27A     -0.549272
      28A     -0.532097    29A     -0.513477    30A     -0.504666
      31A     -0.476590    32A     -0.348014    33A     -0.324114

  @DF-RHF Final Energy:  -443.58592895310187

   => Energetics <=

    Nuclear Repulsion Energy =            431.6007778114469602
    One-Electron Energy =               -1462.5574079066632294
    Two-Electron Energy =                 587.3707011421143989
    Total Energy =                       -443.5859289531018703
  Basis Set: (AUG-CC-PVTZ AUX)
    Blend: AUG-CC-PVTZ-RI
    Molecular point group: c1

    Geometry (in Angstrom), charge = 0, multiplicity = 1:

       Center              X                  Y                   Z               Mass
    ------------   -----------------  -----------------  -----------------  -----------------
         F           -0.077802842263     2.173365979248    -0.000206783156    18.998403162730
         O            1.786928157737     0.322674979248     0.000001216844    15.994914619570
         C            0.495607157737    -0.120786020752     0.000018216844    12.000000000000
         C           -0.486681842263     0.882976979248    -0.000095783156    12.000000000000
         C            0.092815257737    -1.406941220752     0.000128116844    12.000000000000
         C           -1.838371842263     0.589098979248    -0.000096783156    12.000000000000
         C           -1.289168842263    -1.761025020752     0.000132216844    12.000000000000
         C           -2.245907842263    -0.749914020752     0.000019216844    12.000000000000
         C            2.797910157737    -0.682337020752     0.000150216844    12.000000000000
         H            0.804247157737    -2.260251020752     0.000219216844     1.007825032230
         H           -2.550630842263     1.408942979248    -0.000186783156     1.007825032230
         H           -1.596892842263    -2.803386020752     0.000222216844     1.007825032230
         H           -3.304803842263    -0.992066020752     0.000020216844     1.007825032230
         H            2.734110157737    -1.310517020752    -0.894886783156     1.007825032230
         H            2.734030157737    -1.310330020752     0.895314216844     1.007825032230
         H            3.741833157737    -0.138950020752     0.000135216844     1.007825032230

  Basis Set: AUG-CC-PVTZ
    Blend: AUG-CC-PVTZ
  Basis Set: (AUG-CC-PVTZ AUX)
    Blend: AUG-CC-PVTZ-JKFIT
	 Reference Energy          =    -443.5859289531018703 [Eh]
	 Singles Energy            =      -0.0000000000000000 [Eh]
	 Same-Spin Energy          =      -0.4388840322890614 [Eh]
	 Opposite-Spin Energy      =      -1.3498040190607397 [Eh]
	 Correlation Energy        =      -1.7886880513498009 [Eh]
	 Total Energy              =    -445.3746170044516930 [Eh]

	 ================> DF-SCS-MP2 Energies <==================
	-----------------------------------------------------------
	 SCS Same-Spin Scale       =       0.3333333333333333 [-]
	 SCS Opposite-Spin Scale   =       1.2000000000000000 [-]
	 SCS Same-Spin Energy      =      -0.1462946774296871 [Eh]
	 SCS Opposite-Spin Energy  =      -1.6197648228728876 [Eh]
	 SCS Correlation Energy    =      -1.7660595003025747 [Eh]
	 SCS Total Energy          =    -445.3519884534044309 [Eh]
	-----------------------------------------------------------

  Dipole Moment: [D]
     X:     0.4196      Y:    -2.5040      Z:     0.0003     Total:     2.5390

*** Psi4 exiting successfully. Buy a developer a beer!
