                               Psi4 1.4a3.dev225

  ==> Input File <==

--------------------------------------------------------------------------
#psi4
#
memory 32 gb

molecule  {
0 1
  F       -0.0963580     2.2498010    -0.0002150
  O        1.7600978     0.3904809     0.0218120
  C        0.4770520    -0.0443510     0.0000100
  C       -0.5052370     0.9594120    -0.0001040
  C        0.0593170    -1.3782210     0.0001240
  C       -1.8569270     0.6655340    -0.0001050
  C       -1.3077240    -1.6845900     0.0001240
  C       -2.2644630    -0.6734790     0.0000110
  C        2.7793550    -0.6059020     0.0001420
  H        0.7856920    -2.1838160     0.0002110
  H       -2.5691860     1.4853780    -0.0001950
  H       -1.6154480    -2.7269510     0.0002140
  H       -3.3233590    -0.9156310     0.0000120
  H        2.7155550    -1.2340820    -0.8948950
  H        2.7154750    -1.2338950     0.8953060
  H        3.7232780    -0.0625150     0.0001270
units angstrom
no_reorient  #important for SAPT in psi4, default
symmetry c1  #important for SAPT in psi4, default
}

set PROPERTIES_ORIGIN ["COM"]
properties('MP2/aug-cc-pvtz', properties = ['dipole'])
--------------------------------------------------------------------------

    Molecular point group: c1
  Charge       = 0
  Multiplicity = 1
  Basis Set: AUG-CC-PVTZ
    Blend: AUG-CC-PVTZ
  Basis Set: (AUG-CC-PVTZ AUX)
    Blend: AUG-CC-PVTZ-JKFIT

    Orbital Energies [Eh]
    ---------------------

    Doubly Occupied:

       1A    -26.301820     2A    -20.594683     3A    -11.322497
       4A    -11.312735     5A    -11.291994     6A    -11.248219
       7A    -11.246906     8A    -11.245678     9A    -11.241505
      10A     -1.615822    11A     -1.419338    12A     -1.157658
      13A     -1.029269    14A     -1.026502    15A     -0.951586
      16A     -0.848949    17A     -0.830498    18A     -0.745685
      19A     -0.709790    20A     -0.706170    21A     -0.689373
      22A     -0.657546    23A     -0.641926    24A     -0.629673
      25A     -0.620898    26A     -0.581042    27A     -0.548212
      28A     -0.531339    29A     -0.519791    30A     -0.501239
      31A     -0.477690    32A     -0.347586    33A     -0.319610

  @DF-RHF Final Energy:  -443.58918468589599

   => Energetics <=

    Nuclear Repulsion Energy =            431.1367175278601280
    One-Electron Energy =               -1461.6253503420086872
    Two-Electron Energy =                 586.8994481282525157
    Total Energy =                       -443.5891846858960434
  Basis Set: (AUG-CC-PVTZ AUX)
    Blend: AUG-CC-PVTZ-RI
    Molecular point group: c1

    Geometry (in Angstrom), charge = 0, multiplicity = 1:

       Center              X                  Y                   Z               Mass
    ------------   -----------------  -----------------  -----------------  -----------------
         F           -0.075330148626     2.179003504582    -0.002975902733    18.998403162730
         O            1.781125651374     0.319683404582     0.019051097267    15.994914619570
         C            0.498079851374    -0.115148495418    -0.002750902733    12.000000000000
         C           -0.484209148626     0.888614504582    -0.002864902733    12.000000000000
         C            0.080344851374    -1.449018495418    -0.002636902733    12.000000000000
         C           -1.835899148626     0.594736504582    -0.002865902733    12.000000000000
         C           -1.286696148626    -1.755387495418    -0.002636902733    12.000000000000
         C           -2.243435148626    -0.744276495418    -0.002749902733    12.000000000000
         C            2.800382851374    -0.676699495418    -0.002618902733    12.000000000000
         H            0.806719851374    -2.254613495418    -0.002549902733     1.007825032230
         H           -2.548158148626     1.414580504582    -0.002955902733     1.007825032230
         H           -1.594420148626    -2.797748495418    -0.002546902733     1.007825032230
         H           -3.302331148626    -0.986428495418    -0.002748902733     1.007825032230
         H            2.736582851374    -1.304879495418    -0.897655902733     1.007825032230
         H            2.736502851374    -1.304692495418     0.892545097267     1.007825032230
         H            3.744305851374    -0.133312495418    -0.002633902733     1.007825032230

  Basis Set: AUG-CC-PVTZ
    Blend: AUG-CC-PVTZ
  Basis Set: (AUG-CC-PVTZ AUX)
    Blend: AUG-CC-PVTZ-JKFIT
	 Reference Energy          =    -443.5891846858959866 [Eh]
	 Singles Energy            =      -0.0000000000000000 [Eh]
	 Same-Spin Energy          =      -0.4389717493881833 [Eh]
	 Opposite-Spin Energy      =      -1.3495495759451415 [Eh]
	 Correlation Energy        =      -1.7885213253333248 [Eh]
	 Total Energy              =    -445.3777060112292929 [Eh]

	 ================> DF-SCS-MP2 Energies <==================
	-----------------------------------------------------------
	 SCS Same-Spin Scale       =       0.3333333333333333 [-]
	 SCS Opposite-Spin Scale   =       1.2000000000000000 [-]
	 SCS Same-Spin Energy      =      -0.1463239164627277 [Eh]
	 SCS Opposite-Spin Energy  =      -1.6194594911341698 [Eh]
	 SCS Correlation Energy    =      -1.7657834075968974 [Eh]
	 SCS Total Energy          =    -445.3549680934928574 [Eh]
	-----------------------------------------------------------

  Dipole Moment: [D]
     X:     0.5571      Y:    -2.4785      Z:    -0.0246     Total:     2.5404

*** Psi4 exiting successfully. Buy a developer a beer!
