                               Psi4 1.4a3.dev225

  ==> Input File <==

--------------------------------------------------------------------------
#psi4
#
memory 32 gb

molecule  {
0 1
  F       -0.0963580     2.2498010    -0.0002150
  O        1.7683730     0.3991100    -0.0000070
  C        0.4770520    -0.0443510     0.0000100
  C       -0.4912486     0.9451178    -0.0001024
  C        0.0593170    -1.3782210     0.0001240
  C       -1.8569270     0.6655340    -0.0001050
  C       -1.3077240    -1.6845900     0.0001240
  C       -2.2644630    -0.6734790     0.0000110
  C        2.7793550    -0.6059020     0.0001420
  H        0.7856920    -2.1838160     0.0002110
  H       -2.5691860     1.4853780    -0.0001950
  H       -1.6154480    -2.7269510     0.0002140
  H       -3.3233590    -0.9156310     0.0000120
  H        2.7155550    -1.2340820    -0.8948950
  H        2.7154750    -1.2338950     0.8953060
  H        3.7232780    -0.0625150     0.0001270
units angstrom
no_reorient  #important for SAPT in psi4, default
symmetry c1  #important for SAPT in psi4, default
}

set PROPERTIES_ORIGIN ["COM"]
properties('MP2/aug-cc-pvtz', properties = ['dipole'])
--------------------------------------------------------------------------

    Molecular point group: c1
  Charge       = 0
  Multiplicity = 1
  Basis Set: AUG-CC-PVTZ
    Blend: AUG-CC-PVTZ
  Basis Set: (AUG-CC-PVTZ AUX)
    Blend: AUG-CC-PVTZ-JKFIT

    Orbital Energies [Eh]
    ---------------------

    Doubly Occupied:

       1A    -26.299301     2A    -20.594180     3A    -11.322200
       4A    -11.311196     5A    -11.290978     6A    -11.250507
       7A    -11.248552     8A    -11.247222     9A    -11.242953
      10A     -1.610300    11A     -1.415388    12A     -1.159681
      13A     -1.031555    14A     -1.026015    15A     -0.950371
      16A     -0.850138    17A     -0.830176    18A     -0.743996
      19A     -0.707606    20A     -0.704047    21A     -0.686250
      22A     -0.655596    23A     -0.643305    24A     -0.626932
      25A     -0.620946    26A     -0.581688    27A     -0.548129
      28A     -0.531368    29A     -0.520207    30A     -0.503391
      31A     -0.477715    32A     -0.346791    33A     -0.323773

  @DF-RHF Final Energy:  -443.58806186867713

   => Energetics <=

    Nuclear Repulsion Energy =            430.9894396794375098
    One-Electron Energy =               -1461.3501000661499347
    Two-Electron Energy =                 586.7725985180353518
    Total Energy =                       -443.5880618686770731
  Basis Set: (AUG-CC-PVTZ AUX)
    Blend: AUG-CC-PVTZ-RI
    Molecular point group: c1

    Geometry (in Angstrom), charge = 0, multiplicity = 1:

       Center              X                  Y                   Z               Mass
    ------------   -----------------  -----------------  -----------------  -----------------
         F           -0.077711953145     2.179269345036    -0.000207325806    18.998403162730
         O            1.787019046855     0.328578345036     0.000000674194    15.994914619570
         C            0.495698046855    -0.114882654964     0.000017674194    12.000000000000
         C           -0.472602553145     0.874586145036    -0.000094725806    12.000000000000
         C            0.077963046855    -1.448752654964     0.000131674194    12.000000000000
         C           -1.838280953145     0.595002345036    -0.000097325806    12.000000000000
         C           -1.289077953145    -1.755121654964     0.000131674194    12.000000000000
         C           -2.245816953145    -0.744010654964     0.000018674194    12.000000000000
         C            2.798001046855    -0.676433654964     0.000149674194    12.000000000000
         H            0.804338046855    -2.254347654964     0.000218674194     1.007825032230
         H           -2.550539953145     1.414846345036    -0.000187325806     1.007825032230
         H           -1.596801953145    -2.797482654964     0.000221674194     1.007825032230
         H           -3.304712953145    -0.986162654964     0.000019674194     1.007825032230
         H            2.734201046855    -1.304613654964    -0.894887325806     1.007825032230
         H            2.734121046855    -1.304426654964     0.895313674194     1.007825032230
         H            3.741924046855    -0.133046654964     0.000134674194     1.007825032230

  Basis Set: AUG-CC-PVTZ
    Blend: AUG-CC-PVTZ
  Basis Set: (AUG-CC-PVTZ AUX)
    Blend: AUG-CC-PVTZ-JKFIT
	 Reference Energy          =    -443.5880618686771300 [Eh]
	 Singles Energy            =      -0.0000000000000000 [Eh]
	 Same-Spin Energy          =      -0.4390593499298143 [Eh]
	 Opposite-Spin Energy      =      -1.3500028227775041 [Eh]
	 Correlation Energy        =      -1.7890621727073184 [Eh]
	 Total Energy              =    -445.3771240413844339 [Eh]

	 ================> DF-SCS-MP2 Energies <==================
	-----------------------------------------------------------
	 SCS Same-Spin Scale       =       0.3333333333333333 [-]
	 SCS Opposite-Spin Scale   =       1.2000000000000000 [-]
	 SCS Same-Spin Energy      =      -0.1463531166432714 [Eh]
	 SCS Opposite-Spin Energy  =      -1.6200033873330049 [Eh]
	 SCS Correlation Energy    =      -1.7663565039762763 [Eh]
	 SCS Total Energy          =    -445.3544183726534129 [Eh]
	-----------------------------------------------------------

  Dipole Moment: [D]
     X:     0.4577      Y:    -2.5681      Z:     0.0003     Total:     2.6085

*** Psi4 exiting successfully. Buy a developer a beer!
