                               Psi4 1.4a3.dev225

  ==> Input File <==

--------------------------------------------------------------------------
#psi4
#
memory 32 gb

molecule  {
0 1
  F       -0.2334803     2.2854716    -0.0002212
  O        1.7683730     0.3991100    -0.0000070
  C        0.4770520    -0.0443510     0.0000100
  C       -0.5052370     0.9594120    -0.0001040
  C        0.0593170    -1.3782210     0.0001240
  C       -1.8569270     0.6655340    -0.0001050
  C       -1.3077240    -1.6845900     0.0001240
  C       -2.2644630    -0.6734790     0.0000110
  C        2.7793550    -0.6059020     0.0001420
  H        0.7856920    -2.1838160     0.0002110
  H       -2.5691860     1.4853780    -0.0001950
  H       -1.6154480    -2.7269510     0.0002140
  H       -3.3233590    -0.9156310     0.0000120
  H        2.7155550    -1.2340820    -0.8948950
  H        2.7154750    -1.2338950     0.8953060
  H        3.7232780    -0.0625150     0.0001270
units angstrom
no_reorient  #important for SAPT in psi4, default
symmetry c1  #important for SAPT in psi4, default
}

set PROPERTIES_ORIGIN ["COM"]
properties('MP2/aug-cc-pvtz', properties = ['dipole'])
--------------------------------------------------------------------------

    Molecular point group: c1
  Charge       = 0
  Multiplicity = 1
  Basis Set: AUG-CC-PVTZ
    Blend: AUG-CC-PVTZ
  Basis Set: (AUG-CC-PVTZ AUX)
    Blend: AUG-CC-PVTZ-JKFIT

    Orbital Energies [Eh]
    ---------------------

    Doubly Occupied:

       1A    -26.302281     2A    -20.595488     3A    -11.322919
       4A    -11.316099     5A    -11.291725     6A    -11.248485
       7A    -11.246672     8A    -11.245515     9A    -11.241115
      10A     -1.616524    11A     -1.416570    12A     -1.158053
      13A     -1.029257    14A     -1.026721    15A     -0.950944
      16A     -0.847497    17A     -0.833291    18A     -0.745802
      19A     -0.708774    20A     -0.704743    21A     -0.689320
      22A     -0.657878    23A     -0.643661    24A     -0.630334
      25A     -0.620584    26A     -0.579120    27A     -0.546896
      28A     -0.531459    29A     -0.519292    30A     -0.504029
      31A     -0.477358    32A     -0.346890    33A     -0.321661

  @DF-RHF Final Energy:  -443.58650918700198

   => Energetics <=

    Nuclear Repulsion Energy =            430.0741630041144958
    One-Electron Energy =               -1459.4874322962375572
    Two-Electron Energy =                 585.8267601051210249
    Total Energy =                       -443.5865091870019796
  Basis Set: (AUG-CC-PVTZ AUX)
    Blend: AUG-CC-PVTZ-RI
    Molecular point group: c1

    Geometry (in Angstrom), charge = 0, multiplicity = 1:

       Center              X                  Y                   Z               Mass
    ------------   -----------------  -----------------  -----------------  -----------------
         F           -0.192834987056     2.208202716257    -0.000212438998    18.998403162730
         O            1.809018312944     0.321841116257     0.000001761002    15.994914619570
         C            0.517697312944    -0.121619883743     0.000018761002    12.000000000000
         C           -0.464591687056     0.882143116257    -0.000095238998    12.000000000000
         C            0.099962312944    -1.455489883743     0.000132761002    12.000000000000
         C           -1.816281687056     0.588265116257    -0.000096238998    12.000000000000
         C           -1.267078687056    -1.761858883743     0.000132761002    12.000000000000
         C           -2.223817687056    -0.750747883743     0.000019761002    12.000000000000
         C            2.820000312944    -0.683170883743     0.000150761002    12.000000000000
         H            0.826337312944    -2.261084883743     0.000219761002     1.007825032230
         H           -2.528540687056     1.408109116257    -0.000186238998     1.007825032230
         H           -1.574802687056    -2.804219883743     0.000222761002     1.007825032230
         H           -3.282713687056    -0.992899883743     0.000020761002     1.007825032230
         H            2.756200312944    -1.311350883743    -0.894886238998     1.007825032230
         H            2.756120312944    -1.311163883743     0.895314761002     1.007825032230
         H            3.763923312944    -0.139783883743     0.000135761002     1.007825032230

  Basis Set: AUG-CC-PVTZ
    Blend: AUG-CC-PVTZ
  Basis Set: (AUG-CC-PVTZ AUX)
    Blend: AUG-CC-PVTZ-JKFIT
	 Reference Energy          =    -443.5865091870019796 [Eh]
	 Singles Energy            =      -0.0000000000000000 [Eh]
	 Same-Spin Energy          =      -0.4389794678056109 [Eh]
	 Opposite-Spin Energy      =      -1.3498708714081966 [Eh]
	 Correlation Energy        =      -1.7888503392138075 [Eh]
	 Total Energy              =    -445.3753595262157887 [Eh]

	 ================> DF-SCS-MP2 Energies <==================
	-----------------------------------------------------------
	 SCS Same-Spin Scale       =       0.3333333333333333 [-]
	 SCS Opposite-Spin Scale   =       1.2000000000000000 [-]
	 SCS Same-Spin Energy      =      -0.1463264892685369 [Eh]
	 SCS Opposite-Spin Energy  =      -1.6198450456898359 [Eh]
	 SCS Correlation Energy    =      -1.7661715349583729 [Eh]
	 SCS Total Energy          =    -445.3526807219603256 [Eh]
	-----------------------------------------------------------

  Dipole Moment: [D]
     X:     0.5987      Y:    -2.5405      Z:     0.0003     Total:     2.6101

*** Psi4 exiting successfully. Buy a developer a beer!
