                               Psi4 1.4a3.dev225

  ==> Input File <==

--------------------------------------------------------------------------
#psi4
#
memory 32 gb

molecule  {
0 1
  F       -0.0963580     2.2498010    -0.0002150
  O        1.7683730     0.3991100    -0.0000070
  C        0.4770520    -0.0443510     0.0000100
  C       -0.5052370     0.9594120    -0.0001040
  C        0.0652942    -1.3591351     0.0001224
  C       -1.8569270     0.6655340    -0.0001050
  C       -1.3077240    -1.6845900     0.0001240
  C       -2.2644630    -0.6734790     0.0000110
  C        2.7793550    -0.6059020     0.0001420
  H        0.7856920    -2.1838160     0.0002110
  H       -2.5691860     1.4853780    -0.0001950
  H       -1.6154480    -2.7269510     0.0002140
  H       -3.3233590    -0.9156310     0.0000120
  H        2.7155550    -1.2340820    -0.8948950
  H        2.7154750    -1.2338950     0.8953060
  H        3.7232780    -0.0625150     0.0001270
units angstrom
no_reorient  #important for SAPT in psi4, default
symmetry c1  #important for SAPT in psi4, default
}

set PROPERTIES_ORIGIN ["COM"]
properties('MP2/aug-cc-pvtz', properties = ['dipole'])
--------------------------------------------------------------------------

    Molecular point group: c1
  Charge       = 0
  Multiplicity = 1
  Basis Set: AUG-CC-PVTZ
    Blend: AUG-CC-PVTZ
  Basis Set: (AUG-CC-PVTZ AUX)
    Blend: AUG-CC-PVTZ-JKFIT

    Orbital Energies [Eh]
    ---------------------

    Doubly Occupied:

       1A    -26.302479     2A    -20.593975     3A    -11.323983
       4A    -11.310995     5A    -11.290591     6A    -11.248178
       7A    -11.247986     8A    -11.246335     9A    -11.242599
      10A     -1.616424    11A     -1.415125    12A     -1.159243
      13A     -1.031171    14A     -1.025136    15A     -0.950673
      16A     -0.849911    17A     -0.830423    18A     -0.745539
      19A     -0.708991    20A     -0.706016    21A     -0.689525
      22A     -0.656179    23A     -0.642532    24A     -0.628463
      25A     -0.619516    26A     -0.580189    27A     -0.548589
      28A     -0.531006    29A     -0.517036    30A     -0.503588
      31A     -0.477243    32A     -0.347762    33A     -0.322320

  @DF-RHF Final Energy:  -443.58840844666503

   => Energetics <=

    Nuclear Repulsion Energy =            431.1495926985457459
    One-Electron Energy =               -1461.6565592601555181
    Two-Electron Energy =                 586.9185581149447444
    Total Energy =                       -443.5884084466649711
  Basis Set: (AUG-CC-PVTZ AUX)
    Blend: AUG-CC-PVTZ-RI
    Molecular point group: c1

    Geometry (in Angstrom), charge = 0, multiplicity = 1:

       Center              X                  Y                   Z               Mass
    ------------   -----------------  -----------------  -----------------  -----------------
         F           -0.076949272824     2.176091500847    -0.000207021160    18.998403162730
         O            1.787781727176     0.325400500847     0.000000978840    15.994914619570
         C            0.496460727176    -0.118060499153     0.000017978840    12.000000000000
         C           -0.485828272824     0.885702500847    -0.000096021160    12.000000000000
         C            0.084702927176    -1.432844599153     0.000130378840    12.000000000000
         C           -1.837518272824     0.591824500847    -0.000097021160    12.000000000000
         C           -1.288315272824    -1.758299499153     0.000131978840    12.000000000000
         C           -2.245054272824    -0.747188499153     0.000018978840    12.000000000000
         C            2.798763727176    -0.679611499153     0.000149978840    12.000000000000
         H            0.805100727176    -2.257525499153     0.000218978840     1.007825032230
         H           -2.549777272824     1.411668500847    -0.000187021160     1.007825032230
         H           -1.596039272824    -2.800660499153     0.000221978840     1.007825032230
         H           -3.303950272824    -0.989340499153     0.000019978840     1.007825032230
         H            2.734963727176    -1.307791499153    -0.894887021160     1.007825032230
         H            2.734883727176    -1.307604499153     0.895313978840     1.007825032230
         H            3.742686727176    -0.136224499153     0.000134978840     1.007825032230

  Basis Set: AUG-CC-PVTZ
    Blend: AUG-CC-PVTZ
  Basis Set: (AUG-CC-PVTZ AUX)
    Blend: AUG-CC-PVTZ-JKFIT
	 Reference Energy          =    -443.5884084466650279 [Eh]
	 Singles Energy            =      -0.0000000000000000 [Eh]
	 Same-Spin Energy          =      -0.4389809480251449 [Eh]
	 Opposite-Spin Energy      =      -1.3498086860002438 [Eh]
	 Correlation Energy        =      -1.7887896340253888 [Eh]
	 Total Energy              =    -445.3771980806903912 [Eh]

	 ================> DF-SCS-MP2 Energies <==================
	-----------------------------------------------------------
	 SCS Same-Spin Scale       =       0.3333333333333333 [-]
	 SCS Opposite-Spin Scale   =       1.2000000000000000 [-]
	 SCS Same-Spin Energy      =      -0.1463269826750483 [Eh]
	 SCS Opposite-Spin Energy  =      -1.6197704232002925 [Eh]
	 SCS Correlation Energy    =      -1.7660974058753409 [Eh]
	 SCS Total Energy          =    -445.3545058525403419 [Eh]
	-----------------------------------------------------------

  Dipole Moment: [D]
     X:     0.4588      Y:    -2.4985      Z:     0.0003     Total:     2.5403

*** Psi4 exiting successfully. Buy a developer a beer!
