                               Psi4 1.4a3.dev225

  ==> Input File <==

--------------------------------------------------------------------------
#psi4
#
memory 32 gb

molecule  {
0 1
  F       -0.0963580     2.2498010    -0.0002150
  O        1.7683730     0.3991100    -0.0000070
  C        0.4770520    -0.0443510     0.0000100
  C       -0.4702660     0.9236765    -0.0000999
  C        0.0593170    -1.3782210     0.0001240
  C       -1.8569270     0.6655340    -0.0001050
  C       -1.3077240    -1.6845900     0.0001240
  C       -2.2644630    -0.6734790     0.0000110
  C        2.7793550    -0.6059020     0.0001420
  H        0.7856920    -2.1838160     0.0002110
  H       -2.5691860     1.4853780    -0.0001950
  H       -1.6154480    -2.7269510     0.0002140
  H       -3.3233590    -0.9156310     0.0000120
  H        2.7155550    -1.2340820    -0.8948950
  H        2.7154750    -1.2338950     0.8953060
  H        3.7232780    -0.0625150     0.0001270
units angstrom
no_reorient  #important for SAPT in psi4, default
symmetry c1  #important for SAPT in psi4, default
}

set PROPERTIES_ORIGIN ["COM"]
properties('MP2/aug-cc-pvtz', properties = ['dipole'])
--------------------------------------------------------------------------

    Molecular point group: c1
  Charge       = 0
  Multiplicity = 1
  Basis Set: AUG-CC-PVTZ
    Blend: AUG-CC-PVTZ
  Basis Set: (AUG-CC-PVTZ AUX)
    Blend: AUG-CC-PVTZ-JKFIT

    Orbital Energies [Eh]
    ---------------------

    Doubly Occupied:

       1A    -26.295032     2A    -20.593456     3A    -11.320439
       4A    -11.307993     5A    -11.290922     6A    -11.253405
       7A    -11.249982     8A    -11.248303     9A    -11.243867
      10A     -1.601612    11A     -1.415480    12A     -1.162051
      13A     -1.036286    14A     -1.024153    15A     -0.950250
      16A     -0.852468    17A     -0.828535    18A     -0.742050
      19A     -0.706000    20A     -0.700936    21A     -0.682208
      22A     -0.654191    23A     -0.645205    24A     -0.624643
      25A     -0.620019    26A     -0.582387    27A     -0.548085
      28A     -0.532988    29A     -0.521508    30A     -0.504423
      31A     -0.477776    32A     -0.344944    33A     -0.328447

  @DF-RHF Final Energy:  -443.58509082315487

   => Energetics <=

    Nuclear Repulsion Energy =            431.1986482004703021
    One-Electron Energy =               -1461.7873887906489472
    Two-Electron Energy =                 587.0036497670236031
    Total Energy =                       -443.5850908231549283
  Basis Set: (AUG-CC-PVTZ AUX)
    Blend: AUG-CC-PVTZ-RI
    Molecular point group: c1

    Geometry (in Angstrom), charge = 0, multiplicity = 1:

       Center              X                  Y                   Z               Mass
    ------------   -----------------  -----------------  -----------------  -----------------
         F           -0.079709533544     2.181310594482    -0.000207563810    18.998403162730
         O            1.785021466456     0.330619594482     0.000000436190    15.994914619570
         C            0.493700466456    -0.112841405518     0.000017436190    12.000000000000
         C           -0.453617533544     0.855186094482    -0.000092463810    12.000000000000
         C            0.075965466456    -1.446711405518     0.000131436190    12.000000000000
         C           -1.840278533544     0.597043594482    -0.000097563810    12.000000000000
         C           -1.291075533544    -1.753080405518     0.000131436190    12.000000000000
         C           -2.247814533544    -0.741969405518     0.000018436190    12.000000000000
         C            2.796003466456    -0.674392405518     0.000149436190    12.000000000000
         H            0.802340466456    -2.252306405518     0.000218436190     1.007825032230
         H           -2.552537533544     1.416887594482    -0.000187563810     1.007825032230
         H           -1.598799533544    -2.795441405518     0.000221436190     1.007825032230
         H           -3.306710533544    -0.984121405518     0.000019436190     1.007825032230
         H            2.732203466456    -1.302572405518    -0.894887563810     1.007825032230
         H            2.732123466456    -1.302385405518     0.895313436190     1.007825032230
         H            3.739926466456    -0.131005405518     0.000134436190     1.007825032230

  Basis Set: AUG-CC-PVTZ
    Blend: AUG-CC-PVTZ
  Basis Set: (AUG-CC-PVTZ AUX)
    Blend: AUG-CC-PVTZ-JKFIT
	 Reference Energy          =    -443.5850908231548715 [Eh]
	 Singles Energy            =      -0.0000000000000000 [Eh]
	 Same-Spin Energy          =      -0.4390492022215199 [Eh]
	 Opposite-Spin Energy      =      -1.3502738798479239 [Eh]
	 Correlation Energy        =      -1.7893230820694437 [Eh]
	 Total Energy              =    -445.3744139052242872 [Eh]

	 ================> DF-SCS-MP2 Energies <==================
	-----------------------------------------------------------
	 SCS Same-Spin Scale       =       0.3333333333333333 [-]
	 SCS Opposite-Spin Scale   =       1.2000000000000000 [-]
	 SCS Same-Spin Energy      =      -0.1463497340738399 [Eh]
	 SCS Opposite-Spin Energy  =      -1.6203286558175087 [Eh]
	 SCS Correlation Energy    =      -1.7666783898913487 [Eh]
	 SCS Total Energy          =    -445.3517692130462251 [Eh]
	-----------------------------------------------------------

  Dipole Moment: [D]
     X:     0.4177      Y:    -2.6769      Z:     0.0003     Total:     2.7093

*** Psi4 exiting successfully. Buy a developer a beer!
