                               Psi4 1.4a3.dev225

  ==> Input File <==

--------------------------------------------------------------------------
#psi4
#
memory 32 gb

molecule  {
0 1
  F       -0.0963580     2.2498010    -0.0002150
  O        1.7683730     0.3991100    -0.0000070
  C        0.4770520    -0.0443510     0.0000100
  C       -0.5052370     0.9594120    -0.0001040
  C        0.0593170    -1.3782210     0.0001240
  C       -1.9057856     0.6549114    -0.0001050
  C       -1.3077240    -1.6845900     0.0001240
  C       -2.2644630    -0.6734790     0.0000110
  C        2.7793550    -0.6059020     0.0001420
  H        0.7856920    -2.1838160     0.0002110
  H       -2.5691860     1.4853780    -0.0001950
  H       -1.6154480    -2.7269510     0.0002140
  H       -3.3233590    -0.9156310     0.0000120
  H        2.7155550    -1.2340820    -0.8948950
  H        2.7154750    -1.2338950     0.8953060
  H        3.7232780    -0.0625150     0.0001270
units angstrom
no_reorient  #important for SAPT in psi4, default
symmetry c1  #important for SAPT in psi4, default
}

set PROPERTIES_ORIGIN ["COM"]
properties('MP2/aug-cc-pvtz', properties = ['dipole'])
--------------------------------------------------------------------------

    Molecular point group: c1
  Charge       = 0
  Multiplicity = 1
  Basis Set: AUG-CC-PVTZ
    Blend: AUG-CC-PVTZ
  Basis Set: (AUG-CC-PVTZ AUX)
    Blend: AUG-CC-PVTZ-JKFIT

    Orbital Energies [Eh]
    ---------------------

    Doubly Occupied:

       1A    -26.303178     2A    -20.593536     3A    -11.327571
       4A    -11.311734     5A    -11.290783     6A    -11.250381
       7A    -11.248999     8A    -11.246889     9A    -11.240801
      10A     -1.616445    11A     -1.414504    12A     -1.155961
      13A     -1.032388    14A     -1.021771    15A     -0.948723
      16A     -0.852138    17A     -0.828248    18A     -0.744210
      19A     -0.709242    20A     -0.707115    21A     -0.688776
      22A     -0.655936    23A     -0.645155    24A     -0.628972
      25A     -0.620943    26A     -0.581551    27A     -0.552096
      28A     -0.529498    29A     -0.513486    30A     -0.503317
      31A     -0.477645    32A     -0.345814    33A     -0.320309

  @DF-RHF Final Energy:  -443.58489113801363

   => Energetics <=

    Nuclear Repulsion Energy =            430.1351559773682425
    One-Electron Energy =               -1459.6238642941871149
    Two-Electron Energy =                 585.9038171788052978
    Total Energy =                       -443.5848911380136315
  Basis Set: (AUG-CC-PVTZ AUX)
    Blend: AUG-CC-PVTZ-RI
    Molecular point group: c1

    Geometry (in Angstrom), charge = 0, multiplicity = 1:

       Center              X                  Y                   Z               Mass
    ------------   -----------------  -----------------  -----------------  -----------------
         F           -0.071728808283     2.178919802263    -0.000207173483    18.998403162730
         O            1.793002191717     0.328228802263     0.000000826517    15.994914619570
         C            0.501681191717    -0.115232197737     0.000017826517    12.000000000000
         C           -0.480607808283     0.888530802263    -0.000096173483    12.000000000000
         C            0.083946191717    -1.449102197737     0.000131826517    12.000000000000
         C           -1.881156408283     0.584030202263    -0.000097173483    12.000000000000
         C           -1.283094808283    -1.755471197737     0.000131826517    12.000000000000
         C           -2.239833808283    -0.744360197737     0.000018826517    12.000000000000
         C            2.803984191717    -0.676783197737     0.000149826517    12.000000000000
         H            0.810321191717    -2.254697197737     0.000218826517     1.007825032230
         H           -2.544556808283     1.414496802263    -0.000187173483     1.007825032230
         H           -1.590818808283    -2.797832197737     0.000221826517     1.007825032230
         H           -3.298729808283    -0.986512197737     0.000019826517     1.007825032230
         H            2.740184191717    -1.304963197737    -0.894887173483     1.007825032230
         H            2.740104191717    -1.304776197737     0.895313826517     1.007825032230
         H            3.747907191717    -0.133396197737     0.000134826517     1.007825032230

  Basis Set: AUG-CC-PVTZ
    Blend: AUG-CC-PVTZ
  Basis Set: (AUG-CC-PVTZ AUX)
    Blend: AUG-CC-PVTZ-JKFIT
	 Reference Energy          =    -443.5848911380136315 [Eh]
	 Singles Energy            =      -0.0000000000000000 [Eh]
	 Same-Spin Energy          =      -0.4391864587519186 [Eh]
	 Opposite-Spin Energy      =      -1.3503967994288535 [Eh]
	 Correlation Energy        =      -1.7895832581807720 [Eh]
	 Total Energy              =    -445.3744743961943868 [Eh]

	 ================> DF-SCS-MP2 Energies <==================
	-----------------------------------------------------------
	 SCS Same-Spin Scale       =       0.3333333333333333 [-]
	 SCS Opposite-Spin Scale   =       1.2000000000000000 [-]
	 SCS Same-Spin Energy      =      -0.1463954862506395 [Eh]
	 SCS Opposite-Spin Energy  =      -1.6204761593146242 [Eh]
	 SCS Correlation Energy    =      -1.7668716455652638 [Eh]
	 SCS Total Energy          =    -445.3517627835789199 [Eh]
	-----------------------------------------------------------

  Dipole Moment: [D]
     X:     0.4801      Y:    -2.4720      Z:     0.0003     Total:     2.5182

*** Psi4 exiting successfully. Buy a developer a beer!
