                               Psi4 1.4a3.dev225

  ==> Input File <==

--------------------------------------------------------------------------
#psi4
#
memory 32 gb

molecule  {
0 1
  F       -0.0963580     2.2498010    -0.0002150
  O        1.7342931     0.4881078    -0.0000161
  C        0.4770520    -0.0443510     0.0000100
  C       -0.5052370     0.9594120    -0.0001040
  C        0.0593170    -1.3782210     0.0001240
  C       -1.8569270     0.6655340    -0.0001050
  C       -1.3077240    -1.6845900     0.0001240
  C       -2.2644630    -0.6734790     0.0000110
  C        2.7793550    -0.6059020     0.0001420
  H        0.7856920    -2.1838160     0.0002110
  H       -2.5691860     1.4853780    -0.0001950
  H       -1.6154480    -2.7269510     0.0002140
  H       -3.3233590    -0.9156310     0.0000120
  H        2.7155550    -1.2340820    -0.8948950
  H        2.7154750    -1.2338950     0.8953060
  H        3.7232780    -0.0625150     0.0001270
units angstrom
no_reorient  #important for SAPT in psi4, default
symmetry c1  #important for SAPT in psi4, default
}

set PROPERTIES_ORIGIN ["COM"]
properties('MP2/aug-cc-pvtz', properties = ['dipole'])
--------------------------------------------------------------------------

    Molecular point group: c1
  Charge       = 0
  Multiplicity = 1
  Basis Set: AUG-CC-PVTZ
    Blend: AUG-CC-PVTZ
  Basis Set: (AUG-CC-PVTZ AUX)
    Blend: AUG-CC-PVTZ-JKFIT

    Orbital Energies [Eh]
    ---------------------

    Doubly Occupied:

       1A    -26.299820     2A    -20.598561     3A    -11.319030
       4A    -11.310155     5A    -11.299655     6A    -11.247370
       7A    -11.246064     8A    -11.245780     9A    -11.240470
      10A     -1.613923    11A     -1.397580    12A     -1.154905
      13A     -1.026104    14A     -1.020278    15A     -0.953050
      16A     -0.846463    17A     -0.830014    18A     -0.740859
      19A     -0.706568    20A     -0.699222    21A     -0.686375
      22A     -0.645514    23A     -0.637933    24A     -0.620494
      25A     -0.617390    26A     -0.571145    27A     -0.552353
      28A     -0.536624    29A     -0.520920    30A     -0.503185
      31A     -0.480614    32A     -0.346871    33A     -0.318450

  @DF-RHF Final Energy:  -443.57794363827202

   => Energetics <=

    Nuclear Repulsion Energy =            430.2001606269433864
    One-Electron Energy =               -1459.8887334456462668
    Two-Electron Energy =                 586.1106291804308057
    Total Energy =                       -443.5779436382720178
  Basis Set: (AUG-CC-PVTZ AUX)
    Blend: AUG-CC-PVTZ-RI
    Molecular point group: c1

    Geometry (in Angstrom), charge = 0, multiplicity = 1:

       Center              X                  Y                   Z               Mass
    ------------   -----------------  -----------------  -----------------  -----------------
         F           -0.072055652651     2.166615106688    -0.000206018735    18.998403162730
         O            1.758595447349     0.404921906688    -0.000007118735    15.994914619570
         C            0.501354347349    -0.127536893312     0.000018981265    12.000000000000
         C           -0.480934652651     0.876226106688    -0.000095018735    12.000000000000
         C            0.083619347349    -1.461406893312     0.000132981265    12.000000000000
         C           -1.832624652651     0.582348106688    -0.000096018735    12.000000000000
         C           -1.283421652651    -1.767775893312     0.000132981265    12.000000000000
         C           -2.240160652651    -0.756664893312     0.000019981265    12.000000000000
         C            2.803657347349    -0.689087893312     0.000150981265    12.000000000000
         H            0.809994347349    -2.267001893312     0.000219981265     1.007825032230
         H           -2.544883652651     1.402192106688    -0.000186018735     1.007825032230
         H           -1.591145652651    -2.810136893312     0.000222981265     1.007825032230
         H           -3.299056652651    -0.998816893312     0.000020981265     1.007825032230
         H            2.739857347349    -1.317267893312    -0.894886018735     1.007825032230
         H            2.739777347349    -1.317080893312     0.895314981265     1.007825032230
         H            3.747580347349    -0.145700893312     0.000135981265     1.007825032230

  Basis Set: AUG-CC-PVTZ
    Blend: AUG-CC-PVTZ
  Basis Set: (AUG-CC-PVTZ AUX)
    Blend: AUG-CC-PVTZ-JKFIT
	 Reference Energy          =    -443.5779436382720178 [Eh]
	 Singles Energy            =      -0.0000000000000000 [Eh]
	 Same-Spin Energy          =      -0.4399888152617651 [Eh]
	 Opposite-Spin Energy      =      -1.3531397141259114 [Eh]
	 Correlation Energy        =      -1.7931285293876764 [Eh]
	 Total Energy              =    -445.3710721676596904 [Eh]

	 ================> DF-SCS-MP2 Energies <==================
	-----------------------------------------------------------
	 SCS Same-Spin Scale       =       0.3333333333333333 [-]
	 SCS Opposite-Spin Scale   =       1.2000000000000000 [-]
	 SCS Same-Spin Energy      =      -0.1466629384205884 [Eh]
	 SCS Opposite-Spin Energy  =      -1.6237676569510937 [Eh]
	 SCS Correlation Energy    =      -1.7704305953716821 [Eh]
	 SCS Total Energy          =    -445.3483742336437103 [Eh]
	-----------------------------------------------------------

  Dipole Moment: [D]
     X:     0.7237      Y:    -2.6647      Z:     0.0003     Total:     2.7612

*** Psi4 exiting successfully. Buy a developer a beer!
