                               Psi4 1.4a3.dev225

  ==> Input File <==

--------------------------------------------------------------------------
#psi4
#
memory 32 gb

molecule  {
0 1
  F       -0.0963580     2.2498010    -0.0002150
  O        1.7683730     0.3991100    -0.0000070
  C        0.4770520    -0.0443510     0.0000100
  C       -0.5052370     0.9594120    -0.0001040
  C        0.0593170    -1.3782210     0.0001240
  C       -1.7592098     0.6867792    -0.0001049
  C       -1.3077240    -1.6845900     0.0001240
  C       -2.2644630    -0.6734790     0.0000110
  C        2.7793550    -0.6059020     0.0001420
  H        0.7856920    -2.1838160     0.0002110
  H       -2.5691860     1.4853780    -0.0001950
  H       -1.6154480    -2.7269510     0.0002140
  H       -3.3233590    -0.9156310     0.0000120
  H        2.7155550    -1.2340820    -0.8948950
  H        2.7154750    -1.2338950     0.8953060
  H        3.7232780    -0.0625150     0.0001270
units angstrom
no_reorient  #important for SAPT in psi4, default
symmetry c1  #important for SAPT in psi4, default
}

set PROPERTIES_ORIGIN ["COM"]
properties('MP2/aug-cc-pvtz', properties = ['dipole'])
--------------------------------------------------------------------------

    Molecular point group: c1
  Charge       = 0
  Multiplicity = 1
  Basis Set: AUG-CC-PVTZ
    Blend: AUG-CC-PVTZ
  Basis Set: (AUG-CC-PVTZ AUX)
    Blend: AUG-CC-PVTZ-JKFIT

    Orbital Energies [Eh]
    ---------------------

    Doubly Occupied:

       1A    -26.299261     2A    -20.596901     3A    -11.315977
       4A    -11.311927     5A    -11.291428     6A    -11.247214
       7A    -11.245812     8A    -11.243941     9A    -11.243630
      10A     -1.614892    11A     -1.416974    12A     -1.165395
      13A     -1.039557    14A     -1.023060    15A     -0.952971
      16A     -0.843625    17A     -0.835068    18A     -0.747936
      19A     -0.709841    20A     -0.701732    21A     -0.690234
      22A     -0.656829    23A     -0.640172    24A     -0.631388
      25A     -0.615044    26A     -0.580384    27A     -0.542190
      28A     -0.532495    29A     -0.523667    30A     -0.496463
      31A     -0.478697    32A     -0.359701    33A     -0.317901

  @DF-RHF Final Energy:  -443.57589869282430

   => Energetics <=

    Nuclear Repulsion Energy =            432.4273856914218754
    One-Electron Energy =               -1464.1819504869192770
    Two-Electron Energy =                 588.1786661026731053
    Total Energy =                       -443.5758986928242393
  Basis Set: (AUG-CC-PVTZ AUX)
    Blend: AUG-CC-PVTZ-RI
    Molecular point group: c1

    Geometry (in Angstrom), charge = 0, multiplicity = 1:

       Center              X                  Y                   Z               Mass
    ------------   -----------------  -----------------  -----------------  -----------------
         F           -0.085683082069     2.175885931691    -0.000207183003    18.998403162730
         O            1.779047917931     0.325194931691     0.000000816997    15.994914619570
         C            0.487726917931    -0.118266068309     0.000017816997    12.000000000000
         C           -0.494562082069     0.885496931691    -0.000096183003    12.000000000000
         C            0.069991917931    -1.452136068309     0.000131816997    12.000000000000
         C           -1.748534882069     0.612864131691    -0.000097083003    12.000000000000
         C           -1.297049082069    -1.758505068309     0.000131816997    12.000000000000
         C           -2.253788082069    -0.747394068309     0.000018816997    12.000000000000
         C            2.790029917931    -0.679817068309     0.000149816997    12.000000000000
         H            0.796366917931    -2.257731068309     0.000218816997     1.007825032230
         H           -2.558511082069     1.411462931691    -0.000187183003     1.007825032230
         H           -1.604773082069    -2.800866068309     0.000221816997     1.007825032230
         H           -3.312684082069    -0.989546068309     0.000019816997     1.007825032230
         H            2.726229917931    -1.307997068309    -0.894887183003     1.007825032230
         H            2.726149917931    -1.307810068309     0.895313816997     1.007825032230
         H            3.733952917931    -0.136430068309     0.000134816997     1.007825032230

  Basis Set: AUG-CC-PVTZ
    Blend: AUG-CC-PVTZ
  Basis Set: (AUG-CC-PVTZ AUX)
    Blend: AUG-CC-PVTZ-JKFIT
	 Reference Energy          =    -443.5758986928242962 [Eh]
	 Singles Energy            =      -0.0000000000000000 [Eh]
	 Same-Spin Energy          =      -0.4385188845723192 [Eh]
	 Opposite-Spin Energy      =      -1.3495963724819602 [Eh]
	 Correlation Energy        =      -1.7881152570542793 [Eh]
	 Total Energy              =    -445.3640139498785970 [Eh]

	 ================> DF-SCS-MP2 Energies <==================
	-----------------------------------------------------------
	 SCS Same-Spin Scale       =       0.3333333333333333 [-]
	 SCS Opposite-Spin Scale   =       1.2000000000000000 [-]
	 SCS Same-Spin Energy      =      -0.1461729615241064 [Eh]
	 SCS Opposite-Spin Energy  =      -1.6195156469783523 [Eh]
	 SCS Correlation Energy    =      -1.7656886085024586 [Eh]
	 SCS Total Energy          =    -445.3415873013267401 [Eh]
	-----------------------------------------------------------

  Dipole Moment: [D]
     X:     0.4678      Y:    -2.5593      Z:     0.0003     Total:     2.6017

*** Psi4 exiting successfully. Buy a developer a beer!
