                               Psi4 1.4a3.dev225

  ==> Input File <==

--------------------------------------------------------------------------
#psi4
#
memory 32 gb

molecule  {
0 1
  F       -0.0963580     2.2498010    -0.0002150
  O        1.7683730     0.3991100    -0.0000070
  C        0.4770520    -0.0443510     0.0000100
  C       -0.5052370     0.9594120    -0.0001040
  C        0.0892032    -1.2827914     0.0001158
  C       -1.8569270     0.6655340    -0.0001050
  C       -1.3077240    -1.6845900     0.0001240
  C       -2.2644630    -0.6734790     0.0000110
  C        2.7793550    -0.6059020     0.0001420
  H        0.7856920    -2.1838160     0.0002110
  H       -2.5691860     1.4853780    -0.0001950
  H       -1.6154480    -2.7269510     0.0002140
  H       -3.3233590    -0.9156310     0.0000120
  H        2.7155550    -1.2340820    -0.8948950
  H        2.7154750    -1.2338950     0.8953060
  H        3.7232780    -0.0625150     0.0001270
units angstrom
no_reorient  #important for SAPT in psi4, default
symmetry c1  #important for SAPT in psi4, default
}

set PROPERTIES_ORIGIN ["COM"]
properties('MP2/aug-cc-pvtz', properties = ['dipole'])
--------------------------------------------------------------------------

    Molecular point group: c1
  Charge       = 0
  Multiplicity = 1
  Basis Set: AUG-CC-PVTZ
    Blend: AUG-CC-PVTZ
  Basis Set: (AUG-CC-PVTZ AUX)
    Blend: AUG-CC-PVTZ-JKFIT

    Orbital Energies [Eh]
    ---------------------

    Doubly Occupied:

       1A    -26.303784     2A    -20.590921     3A    -11.326664
       4A    -11.300917     5A    -11.288782     6A    -11.251293
       7A    -11.246667     8A    -11.243716     9A    -11.243470
      10A     -1.617618    11A     -1.414164    12A     -1.164343
      13A     -1.040746    14A     -1.018897    15A     -0.951421
      16A     -0.855358    17A     -0.826374    18A     -0.746170
      19A     -0.709029    20A     -0.706588    21A     -0.690582
      22A     -0.655825    23A     -0.645736    24A     -0.628604
      25A     -0.612006    26A     -0.576444    27A     -0.550458
      28A     -0.534267    29A     -0.510409    30A     -0.501254
      31A     -0.475506    32A     -0.350770    33A     -0.325605

  @DF-RHF Final Energy:  -443.57579529145897

   => Energetics <=

    Nuclear Repulsion Energy =            432.3888661305389860
    One-Electron Energy =               -1464.1205448768296264
    Two-Electron Energy =                 588.1558834548316099
    Total Energy =                       -443.5757952914589168
  Basis Set: (AUG-CC-PVTZ AUX)
    Blend: AUG-CC-PVTZ-RI
    Molecular point group: c1

    Geometry (in Angstrom), charge = 0, multiplicity = 1:

       Center              X                  Y                   Z               Mass
    ------------   -----------------  -----------------  -----------------  -----------------
         F           -0.079225451647     2.168823446423    -0.000206392828    18.998403162730
         O            1.785505548353     0.318132446423     0.000001607172    15.994914619570
         C            0.494184548353    -0.125328553577     0.000018607172    12.000000000000
         C           -0.488104451647     0.878434446423    -0.000095392828    12.000000000000
         C            0.106335748353    -1.363768953577     0.000124407172    12.000000000000
         C           -1.839794451647     0.584556446423    -0.000096392828    12.000000000000
         C           -1.290591451647    -1.765567553577     0.000132607172    12.000000000000
         C           -2.247330451647    -0.754456553577     0.000019607172    12.000000000000
         C            2.796487548353    -0.686879553577     0.000150607172    12.000000000000
         H            0.802824548353    -2.264793553577     0.000219607172     1.007825032230
         H           -2.552053451647     1.404400446423    -0.000186392828     1.007825032230
         H           -1.598315451647    -2.807928553577     0.000222607172     1.007825032230
         H           -3.306226451647    -0.996608553577     0.000020607172     1.007825032230
         H            2.732687548353    -1.315059553577    -0.894886392828     1.007825032230
         H            2.732607548353    -1.314872553577     0.895314607172     1.007825032230
         H            3.740410548353    -0.143492553577     0.000135607172     1.007825032230

  Basis Set: AUG-CC-PVTZ
    Blend: AUG-CC-PVTZ
  Basis Set: (AUG-CC-PVTZ AUX)
    Blend: AUG-CC-PVTZ-JKFIT
	 Reference Energy          =    -443.5757952914589737 [Eh]
	 Singles Energy            =      -0.0000000000000000 [Eh]
	 Same-Spin Energy          =      -0.4386776273798061 [Eh]
	 Opposite-Spin Energy      =      -1.3499891391822028 [Eh]
	 Correlation Energy        =      -1.7886667665620088 [Eh]
	 Total Energy              =    -445.3644620580209903 [Eh]

	 ================> DF-SCS-MP2 Energies <==================
	-----------------------------------------------------------
	 SCS Same-Spin Scale       =       0.3333333333333333 [-]
	 SCS Opposite-Spin Scale   =       1.2000000000000000 [-]
	 SCS Same-Spin Energy      =      -0.1462258757932687 [Eh]
	 SCS Opposite-Spin Energy  =      -1.6199869670186433 [Eh]
	 SCS Correlation Energy    =      -1.7662128428119119 [Eh]
	 SCS Total Energy          =    -445.3420081342708841 [Eh]
	-----------------------------------------------------------

  Dipole Moment: [D]
     X:     0.3457      Y:    -2.5171      Z:     0.0003     Total:     2.5408

*** Psi4 exiting successfully. Buy a developer a beer!
