                               Psi4 1.4a3.dev225

  ==> Input File <==

--------------------------------------------------------------------------
#psi4
#
memory 32 gb

molecule  {
0 1
  F       -0.0963580     2.2498010    -0.0002150
  O        1.7683730     0.3991100    -0.0000070
  C        0.4770520    -0.0443510     0.0000100
  C       -0.5052370     0.9594120    -0.0001040
  C        0.0593170    -1.3782210     0.0001240
  C       -1.8569270     0.6655340    -0.0001050
  C       -1.5028830    -1.7283273     0.0001240
  C       -2.2644630    -0.6734790     0.0000110
  C        2.7793550    -0.6059020     0.0001420
  H        0.7856920    -2.1838160     0.0002110
  H       -2.5691860     1.4853780    -0.0001950
  H       -1.6154480    -2.7269510     0.0002140
  H       -3.3233590    -0.9156310     0.0000120
  H        2.7155550    -1.2340820    -0.8948950
  H        2.7154750    -1.2338950     0.8953060
  H        3.7232780    -0.0625150     0.0001270
units angstrom
no_reorient  #important for SAPT in psi4, default
symmetry c1  #important for SAPT in psi4, default
}

set PROPERTIES_ORIGIN ["COM"]
properties('MP2/aug-cc-pvtz', properties = ['dipole'])
--------------------------------------------------------------------------

    Molecular point group: c1
  Charge       = 0
  Multiplicity = 1
  Basis Set: AUG-CC-PVTZ
    Blend: AUG-CC-PVTZ
  Basis Set: (AUG-CC-PVTZ AUX)
    Blend: AUG-CC-PVTZ-JKFIT

    Orbital Energies [Eh]
    ---------------------

    Doubly Occupied:

       1A    -26.306468     2A    -20.594148     3A    -11.331280
       4A    -11.313223     5A    -11.289839     6A    -11.256764
       7A    -11.248304     8A    -11.247616     9A    -11.236074
      10A     -1.620205    11A     -1.414722    12A     -1.153327
      13A     -1.042587    14A     -1.009351    15A     -0.953560
      16A     -0.859625    17A     -0.823392    18A     -0.743782
      19A     -0.718310    20A     -0.708885    21A     -0.691771
      22A     -0.655831    23A     -0.650633    24A     -0.628195
      25A     -0.612710    26A     -0.597840    27A     -0.549788
      28A     -0.527004    29A     -0.511520    30A     -0.478272
      31A     -0.477946    32A     -0.340799    33A     -0.328726

  @DF-RHF Final Energy:  -443.54833903015788

   => Energetics <=

    Nuclear Repulsion Energy =            428.7756404622622881
    One-Electron Energy =               -1456.8029621735195178
    Two-Electron Energy =                 584.4789826810992963
    Total Energy =                       -443.5483390301578766
  Basis Set: (AUG-CC-PVTZ AUX)
    Blend: AUG-CC-PVTZ-RI
    Molecular point group: c1

    Geometry (in Angstrom), charge = 0, multiplicity = 1:

       Center              X                  Y                   Z               Mass
    ------------   -----------------  -----------------  -----------------  -----------------
         F           -0.057800753061     2.182072379906    -0.000207173483    18.998403162730
         O            1.806930246939     0.331381379906     0.000000826517    15.994914619570
         C            0.515609246939    -0.112079620094     0.000017826517    12.000000000000
         C           -0.466679753061     0.891683379906    -0.000096173483    12.000000000000
         C            0.097874246939    -1.445949620094     0.000131826517    12.000000000000
         C           -1.818369753061     0.597805379906    -0.000097173483    12.000000000000
         C           -1.464325753061    -1.796055920094     0.000131826517    12.000000000000
         C           -2.225905753061    -0.741207620094     0.000018826517    12.000000000000
         C            2.817912246939    -0.673630620094     0.000149826517    12.000000000000
         H            0.824249246939    -2.251544620094     0.000218826517     1.007825032230
         H           -2.530628753061     1.417649379906    -0.000187173483     1.007825032230
         H           -1.576890753061    -2.794679620094     0.000221826517     1.007825032230
         H           -3.284801753061    -0.983359620094     0.000019826517     1.007825032230
         H            2.754112246939    -1.301810620094    -0.894887173483     1.007825032230
         H            2.754032246939    -1.301623620094     0.895313826517     1.007825032230
         H            3.761835246939    -0.130243620094     0.000134826517     1.007825032230

  Basis Set: AUG-CC-PVTZ
    Blend: AUG-CC-PVTZ
  Basis Set: (AUG-CC-PVTZ AUX)
    Blend: AUG-CC-PVTZ-JKFIT
	 Reference Energy          =    -443.5483390301578766 [Eh]
	 Singles Energy            =      -0.0000000000000000 [Eh]
	 Same-Spin Energy          =      -0.4381770861965041 [Eh]
	 Opposite-Spin Energy      =      -1.3522872975664786 [Eh]
	 Correlation Energy        =      -1.7904643837629828 [Eh]
	 Total Energy              =    -445.3388034139208571 [Eh]

	 ================> DF-SCS-MP2 Energies <==================
	-----------------------------------------------------------
	 SCS Same-Spin Scale       =       0.3333333333333333 [-]
	 SCS Opposite-Spin Scale   =       1.2000000000000000 [-]
	 SCS Same-Spin Energy      =      -0.1460590287321680 [Eh]
	 SCS Opposite-Spin Energy  =      -1.6227447570797742 [Eh]
	 SCS Correlation Energy    =      -1.7688037858119423 [Eh]
	 SCS Total Energy          =    -445.3171428159698166 [Eh]
	-----------------------------------------------------------

  Dipole Moment: [D]
     X:     0.4308      Y:    -2.4572      Z:     0.0003     Total:     2.4947

*** Psi4 exiting successfully. Buy a developer a beer!
