                               Psi4 1.4a3.dev225

  ==> Input File <==

--------------------------------------------------------------------------
#psi4
#
memory 32 gb

molecule  {
0 1
  F       -0.0963580     2.2498010    -0.0002150
  O        1.7683730     0.3991100    -0.0000070
  C        0.4770520    -0.0443510     0.0000100
  C       -0.5052370     0.9594120    -0.0001040
  C        0.0346157    -1.2836073     0.0001148
  C       -1.8569270     0.6655340    -0.0001050
  C       -1.3077240    -1.6845900     0.0001240
  C       -2.2644630    -0.6734790     0.0000110
  C        2.7793550    -0.6059020     0.0001420
  H        0.7856920    -2.1838160     0.0002110
  H       -2.5691860     1.4853780    -0.0001950
  H       -1.6154480    -2.7269510     0.0002140
  H       -3.3233590    -0.9156310     0.0000120
  H        2.7155550    -1.2340820    -0.8948950
  H        2.7154750    -1.2338950     0.8953060
  H        3.7232780    -0.0625150     0.0001270
units angstrom
no_reorient  #important for SAPT in psi4, default
symmetry c1  #important for SAPT in psi4, default
}

set PROPERTIES_ORIGIN ["COM"]
properties('MP2/aug-cc-pvtz', properties = ['dipole'])
--------------------------------------------------------------------------

    Molecular point group: c1
  Charge       = 0
  Multiplicity = 1
  Basis Set: AUG-CC-PVTZ
    Blend: AUG-CC-PVTZ
  Basis Set: (AUG-CC-PVTZ AUX)
    Blend: AUG-CC-PVTZ-JKFIT

    Orbital Energies [Eh]
    ---------------------

    Doubly Occupied:

       1A    -26.302798     2A    -20.593791     3A    -11.325453
       4A    -11.303062     5A    -11.289562     6A    -11.246621
       7A    -11.245970     8A    -11.244566     9A    -11.243269
      10A     -1.616832    11A     -1.415125    12A     -1.167940
      13A     -1.037893    14A     -1.024024    15A     -0.951500
      16A     -0.852431    17A     -0.829925    18A     -0.745329
      19A     -0.709828    20A     -0.706078    21A     -0.689990
      22A     -0.656286    23A     -0.647947    24A     -0.629320
      25A     -0.605907    26A     -0.576988    27A     -0.552142
      28A     -0.535472    29A     -0.515128    30A     -0.494591
      31A     -0.478414    32A     -0.351272    33A     -0.325457

  @DF-RHF Final Energy:  -443.57689465376660

   => Energetics <=

    Nuclear Repulsion Energy =            432.6105216376867588
    One-Electron Energy =               -1464.5530070456313751
    Two-Electron Energy =                 588.3655907541779015
    Total Energy =                       -443.5768946537666579
  Basis Set: (AUG-CC-PVTZ AUX)
    Blend: AUG-CC-PVTZ-RI
    Molecular point group: c1

    Geometry (in Angstrom), charge = 0, multiplicity = 1:

       Center              X                  Y                   Z               Mass
    ------------   -----------------  -----------------  -----------------  -----------------
         F           -0.074028625703     2.168901121537    -0.000206297627    18.998403162730
         O            1.790702374297     0.318210121537     0.000001702373    15.994914619570
         C            0.499381374297    -0.125250878463     0.000018702373    12.000000000000
         C           -0.482907625703     0.878512121537    -0.000095297627    12.000000000000
         C            0.056945074297    -1.364507178463     0.000123502373    12.000000000000
         C           -1.834597625703     0.584634121537    -0.000096297627    12.000000000000
         C           -1.285394625703    -1.765489878463     0.000132702373    12.000000000000
         C           -2.242133625703    -0.754378878463     0.000019702373    12.000000000000
         C            2.801684374297    -0.686801878463     0.000150702373    12.000000000000
         H            0.808021374297    -2.264715878463     0.000219702373     1.007825032230
         H           -2.546856625703     1.404478121537    -0.000186297627     1.007825032230
         H           -1.593118625703    -2.807850878463     0.000222702373     1.007825032230
         H           -3.301029625703    -0.996530878463     0.000020702373     1.007825032230
         H            2.737884374297    -1.314981878463    -0.894886297627     1.007825032230
         H            2.737804374297    -1.314794878463     0.895314702373     1.007825032230
         H            3.745607374297    -0.143414878463     0.000135702373     1.007825032230

  Basis Set: AUG-CC-PVTZ
    Blend: AUG-CC-PVTZ
  Basis Set: (AUG-CC-PVTZ AUX)
    Blend: AUG-CC-PVTZ-JKFIT
	 Reference Energy          =    -443.5768946537666011 [Eh]
	 Singles Energy            =      -0.0000000000000000 [Eh]
	 Same-Spin Energy          =      -0.4391496855269794 [Eh]
	 Opposite-Spin Energy      =      -1.3500555467017801 [Eh]
	 Correlation Energy        =      -1.7892052322287595 [Eh]
	 Total Energy              =    -445.3660998859953679 [Eh]

	 ================> DF-SCS-MP2 Energies <==================
	-----------------------------------------------------------
	 SCS Same-Spin Scale       =       0.3333333333333333 [-]
	 SCS Opposite-Spin Scale   =       1.2000000000000000 [-]
	 SCS Same-Spin Energy      =      -0.1463832285089931 [Eh]
	 SCS Opposite-Spin Energy  =      -1.6200666560421360 [Eh]
	 SCS Correlation Energy    =      -1.7664498845511292 [Eh]
	 SCS Total Energy          =    -445.3433445383177514 [Eh]
	-----------------------------------------------------------

  Dipole Moment: [D]
     X:     0.3900      Y:    -2.5171      Z:     0.0003     Total:     2.5471

*** Psi4 exiting successfully. Buy a developer a beer!
