                               Psi4 1.4a3.dev225

  ==> Input File <==

--------------------------------------------------------------------------
#psi4
#
memory 32 gb

molecule  {
0 1
  F       -0.0963580     2.2498010    -0.0002150
  O        1.7683730     0.3991100    -0.0000070
  C        0.4770520    -0.0443510     0.0000100
  C       -0.5052370     0.9594120    -0.0001040
  C        0.0443739    -1.4259358     0.0001281
  C       -1.8569270     0.6655340    -0.0001050
  C       -1.3077240    -1.6845900     0.0001240
  C       -2.2644630    -0.6734790     0.0000110
  C        2.7793550    -0.6059020     0.0001420
  H        0.7856920    -2.1838160     0.0002110
  H       -2.5691860     1.4853780    -0.0001950
  H       -1.6154480    -2.7269510     0.0002140
  H       -3.3233590    -0.9156310     0.0000120
  H        2.7155550    -1.2340820    -0.8948950
  H        2.7154750    -1.2338950     0.8953060
  H        3.7232780    -0.0625150     0.0001270
units angstrom
no_reorient  #important for SAPT in psi4, default
symmetry c1  #important for SAPT in psi4, default
}

set PROPERTIES_ORIGIN ["COM"]
properties('MP2/aug-cc-pvtz', properties = ['dipole'])
--------------------------------------------------------------------------

    Molecular point group: c1
  Charge       = 0
  Multiplicity = 1
  Basis Set: AUG-CC-PVTZ
    Blend: AUG-CC-PVTZ
  Basis Set: (AUG-CC-PVTZ AUX)
    Blend: AUG-CC-PVTZ-JKFIT

    Orbital Energies [Eh]
    ---------------------

    Doubly Occupied:

       1A    -26.301275     2A    -20.596165     3A    -11.321640
       4A    -11.317805     5A    -11.291956     6A    -11.249655
       7A    -11.248667     8A    -11.244858     9A    -11.241732
      10A     -1.615312    11A     -1.415782    12A     -1.156231
      13A     -1.030843    14A     -1.024621    15A     -0.949840
      16A     -0.847367    17A     -0.831457    18A     -0.745533
      19A     -0.710230    20A     -0.703659    21A     -0.688608
      22A     -0.656448    23A     -0.642244    24A     -0.629444
      25A     -0.623984    26A     -0.583036    27A     -0.547173
      28A     -0.528919    29A     -0.524348    30A     -0.497701
      31A     -0.478786    32A     -0.350086    33A     -0.316664

  @DF-RHF Final Energy:  -443.58531423648043

   => Energetics <=

    Nuclear Repulsion Energy =            430.1509094063943621
    One-Electron Energy =               -1459.6483019103225161
    Two-Electron Energy =                 585.9120782674475549
    Total Energy =                       -443.5853142364804853
  Basis Set: (AUG-CC-PVTZ AUX)
    Blend: AUG-CC-PVTZ-RI
    Molecular point group: c1

    Geometry (in Angstrom), charge = 0, multiplicity = 1:

       Center              X                  Y                   Z               Mass
    ------------   -----------------  -----------------  -----------------  -----------------
         F           -0.074957623494     2.182451044897    -0.000207563810    18.998403162730
         O            1.789773376506     0.331760044897     0.000000436190    15.994914619570
         C            0.498452376506    -0.111700955103     0.000017436190    12.000000000000
         C           -0.483836623494     0.892062044897    -0.000096563810    12.000000000000
         C            0.065774276506    -1.493285755103     0.000135536190    12.000000000000
         C           -1.835526623494     0.598184044897    -0.000097563810    12.000000000000
         C           -1.286323623494    -1.751939955103     0.000131436190    12.000000000000
         C           -2.243062623494    -0.740828955103     0.000018436190    12.000000000000
         C            2.800755376506    -0.673251955103     0.000149436190    12.000000000000
         H            0.807092376506    -2.251165955103     0.000218436190     1.007825032230
         H           -2.547785623494     1.418028044897    -0.000187563810     1.007825032230
         H           -1.594047623494    -2.794300955103     0.000221436190     1.007825032230
         H           -3.301958623494    -0.982980955103     0.000019436190     1.007825032230
         H            2.736955376506    -1.301431955103    -0.894887563810     1.007825032230
         H            2.736875376506    -1.301244955103     0.895313436190     1.007825032230
         H            3.744678376506    -0.129864955103     0.000134436190     1.007825032230

  Basis Set: AUG-CC-PVTZ
    Blend: AUG-CC-PVTZ
  Basis Set: (AUG-CC-PVTZ AUX)
    Blend: AUG-CC-PVTZ-JKFIT
	 Reference Energy          =    -443.5853142364804285 [Eh]
	 Singles Energy            =      -0.0000000000000000 [Eh]
	 Same-Spin Energy          =      -0.4391087591880405 [Eh]
	 Opposite-Spin Energy      =      -1.3501673529544012 [Eh]
	 Correlation Energy        =      -1.7892761121424416 [Eh]
	 Total Energy              =    -445.3745903486228599 [Eh]

	 ================> DF-SCS-MP2 Energies <==================
	-----------------------------------------------------------
	 SCS Same-Spin Scale       =       0.3333333333333333 [-]
	 SCS Opposite-Spin Scale   =       1.2000000000000000 [-]
	 SCS Same-Spin Energy      =      -0.1463695863960135 [Eh]
	 SCS Opposite-Spin Energy  =      -1.6202008235452814 [Eh]
	 SCS Correlation Energy    =      -1.7665704099412949 [Eh]
	 SCS Total Energy          =    -445.3518846464216949 [Eh]
	-----------------------------------------------------------

  Dipole Moment: [D]
     X:     0.5347      Y:    -2.4930      Z:     0.0003     Total:     2.5496

*** Psi4 exiting successfully. Buy a developer a beer!
