                               Psi4 1.4a3.dev225

  ==> Input File <==

--------------------------------------------------------------------------
#psi4
#
memory 32 gb

molecule  {
0 1
  F        0.0362845     2.1999926    -0.0002076
  O        1.7683730     0.3991100    -0.0000070
  C        0.4770520    -0.0443510     0.0000100
  C       -0.5052370     0.9594120    -0.0001040
  C        0.0593170    -1.3782210     0.0001240
  C       -1.8569270     0.6655340    -0.0001050
  C       -1.3077240    -1.6845900     0.0001240
  C       -2.2644630    -0.6734790     0.0000110
  C        2.7793550    -0.6059020     0.0001420
  H        0.7856920    -2.1838160     0.0002110
  H       -2.5691860     1.4853780    -0.0001950
  H       -1.6154480    -2.7269510     0.0002140
  H       -3.3233590    -0.9156310     0.0000120
  H        2.7155550    -1.2340820    -0.8948950
  H        2.7154750    -1.2338950     0.8953060
  H        3.7232780    -0.0625150     0.0001270
units angstrom
no_reorient  #important for SAPT in psi4, default
symmetry c1  #important for SAPT in psi4, default
}

set PROPERTIES_ORIGIN ["COM"]
properties('MP2/aug-cc-pvtz', properties = ['dipole'])
--------------------------------------------------------------------------

    Molecular point group: c1
  Charge       = 0
  Multiplicity = 1
  Basis Set: AUG-CC-PVTZ
    Blend: AUG-CC-PVTZ
  Basis Set: (AUG-CC-PVTZ AUX)
    Blend: AUG-CC-PVTZ-JKFIT

    Orbital Energies [Eh]
    ---------------------

    Doubly Occupied:

       1A    -26.301314     2A    -20.593485     3A    -11.323641
       4A    -11.310087     5A    -11.290067     6A    -11.251520
       7A    -11.247137     8A    -11.245527     9A    -11.243185
      10A     -1.616244    11A     -1.413841    12A     -1.158243
      13A     -1.028931    14A     -1.026470    15A     -0.949916
      16A     -0.850400    17A     -0.828827    18A     -0.744719
      19A     -0.710797    20A     -0.705464    21A     -0.689610
      22A     -0.654274    23A     -0.641016    24A     -0.624711
      25A     -0.621248    26A     -0.582749    27A     -0.548820
      28A     -0.528901    29A     -0.518405    30A     -0.500191
      31A     -0.477817    32A     -0.348992    33A     -0.319880

  @DF-RHF Final Energy:  -443.58549272643876

   => Energetics <=

    Nuclear Repulsion Energy =            431.9605732807242475
    One-Electron Energy =               -1463.2992706066929713
    Two-Electron Energy =                 587.7532045995299086
    Total Energy =                       -443.5854927264388152
  Basis Set: (AUG-CC-PVTZ AUX)
    Blend: AUG-CC-PVTZ-RI
    Molecular point group: c1

    Geometry (in Angstrom), charge = 0, multiplicity = 1:

       Center              X                  Y                   Z               Mass
    ------------   -----------------  -----------------  -----------------  -----------------
         F            0.036269932201     2.135607405848    -0.000200888836    18.998403162730
         O            1.768358432201     0.334724805848    -0.000000288836    15.994914619570
         C            0.477037432201    -0.108736194152     0.000016711164    12.000000000000
         C           -0.505251567799     0.895026805848    -0.000097288836    12.000000000000
         C            0.059302432201    -1.442606194152     0.000130711164    12.000000000000
         C           -1.856941567799     0.601148805848    -0.000098288836    12.000000000000
         C           -1.307738567799    -1.748975194152     0.000130711164    12.000000000000
         C           -2.264477567799    -0.737864194152     0.000017711164    12.000000000000
         C            2.779340432201    -0.670287194152     0.000148711164    12.000000000000
         H            0.785677432201    -2.248201194152     0.000217711164     1.007825032230
         H           -2.569200567799     1.420992805848    -0.000188288836     1.007825032230
         H           -1.615462567799    -2.791336194152     0.000220711164     1.007825032230
         H           -3.323373567799    -0.980016194152     0.000018711164     1.007825032230
         H            2.715540432201    -1.298467194152    -0.894888288836     1.007825032230
         H            2.715460432201    -1.298280194152     0.895312711164     1.007825032230
         H            3.723263432201    -0.126900194152     0.000133711164     1.007825032230

  Basis Set: AUG-CC-PVTZ
    Blend: AUG-CC-PVTZ
  Basis Set: (AUG-CC-PVTZ AUX)
    Blend: AUG-CC-PVTZ-JKFIT
	 Reference Energy          =    -443.5854927264387584 [Eh]
	 Singles Energy            =      -0.0000000000000000 [Eh]
	 Same-Spin Energy          =      -0.4393027260376881 [Eh]
	 Opposite-Spin Energy      =      -1.3502914191171220 [Eh]
	 Correlation Energy        =      -1.7895941451548101 [Eh]
	 Total Energy              =    -445.3750868715935667 [Eh]

	 ================> DF-SCS-MP2 Energies <==================
	-----------------------------------------------------------
	 SCS Same-Spin Scale       =       0.3333333333333333 [-]
	 SCS Opposite-Spin Scale   =       1.2000000000000000 [-]
	 SCS Same-Spin Energy      =      -0.1464342420125627 [Eh]
	 SCS Opposite-Spin Energy  =      -1.6203497029405465 [Eh]
	 SCS Correlation Energy    =      -1.7667839449531091 [Eh]
	 SCS Total Energy          =    -445.3522766713918486 [Eh]
	-----------------------------------------------------------

  Dipole Moment: [D]
     X:     0.3736      Y:    -2.4216      Z:     0.0003     Total:     2.4502

*** Psi4 exiting successfully. Buy a developer a beer!
