                               Psi4 1.4a3.dev225

  ==> Input File <==

--------------------------------------------------------------------------
#psi4
#
memory 32 gb

molecule  {
0 1
  F       -0.0963580     2.2498010    -0.0002150
  O        1.8045268     0.4305402    -0.0872159
  C        0.4770520    -0.0443510     0.0000100
  C       -0.5052370     0.9594120    -0.0001040
  C        0.0593170    -1.3782210     0.0001240
  C       -1.8569270     0.6655340    -0.0001050
  C       -1.3077240    -1.6845900     0.0001240
  C       -2.2644630    -0.6734790     0.0000110
  C        2.7793550    -0.6059020     0.0001420
  H        0.7856920    -2.1838160     0.0002110
  H       -2.5691860     1.4853780    -0.0001950
  H       -1.6154480    -2.7269510     0.0002140
  H       -3.3233590    -0.9156310     0.0000120
  H        2.7155550    -1.2340820    -0.8948950
  H        2.7154750    -1.2338950     0.8953060
  H        3.7232780    -0.0625150     0.0001270
units angstrom
no_reorient  #important for SAPT in psi4, default
symmetry c1  #important for SAPT in psi4, default
}

set PROPERTIES_ORIGIN ["COM"]
properties('MP2/aug-cc-pvtz', properties = ['dipole'])
--------------------------------------------------------------------------

    Molecular point group: c1
  Charge       = 0
  Multiplicity = 1
  Basis Set: AUG-CC-PVTZ
    Blend: AUG-CC-PVTZ
  Basis Set: (AUG-CC-PVTZ AUX)
    Blend: AUG-CC-PVTZ-JKFIT

    Orbital Energies [Eh]
    ---------------------

    Doubly Occupied:

       1A    -26.303535     2A    -20.594387     3A    -11.326836
       4A    -11.314845     5A    -11.286841     6A    -11.251737
       7A    -11.250147     8A    -11.248814     9A    -11.245936
      10A     -1.617377    11A     -1.398627    12A     -1.160859
      13A     -1.030498    14A     -1.026383    15A     -0.945020
      16A     -0.848935    17A     -0.833310    18A     -0.745121
      19A     -0.708176    20A     -0.701123    21A     -0.689122
      22A     -0.650678    23A     -0.642380    24A     -0.623471
      25A     -0.623028    26A     -0.581408    27A     -0.548145
      28A     -0.526965    29A     -0.516519    30A     -0.506119
      31A     -0.476118    32A     -0.350203    33A     -0.326173

  @DF-RHF Final Energy:  -443.58319911617139

   => Energetics <=

    Nuclear Repulsion Energy =            429.6133346993570967
    One-Electron Energy =               -1458.5953995426350502
    Two-Electron Energy =                 585.3988657271064540
    Total Energy =                       -443.5831991161713859
  Basis Set: (AUG-CC-PVTZ AUX)
    Blend: AUG-CC-PVTZ-RI
    Molecular point group: c1

    Geometry (in Angstrom), charge = 0, multiplicity = 1:

       Center              X                  Y                   Z               Mass
    ------------   -----------------  -----------------  -----------------  -----------------
         F           -0.080967981335     2.173920166406     0.010859228842    18.998403162730
         O            1.819916818665     0.354659366406    -0.076141671158    15.994914619570
         C            0.492442018665    -0.120231833594     0.011084228842    12.000000000000
         C           -0.489846981335     0.883531166406     0.010970228842    12.000000000000
         C            0.074707018665    -1.454101833594     0.011198228842    12.000000000000
         C           -1.841536981335     0.589653166406     0.010969228842    12.000000000000
         C           -1.292333981335    -1.760470833594     0.011198228842    12.000000000000
         C           -2.249072981335    -0.749359833594     0.011085228842    12.000000000000
         C            2.794745018665    -0.681782833594     0.011216228842    12.000000000000
         H            0.801082018665    -2.259696833594     0.011285228842     1.007825032230
         H           -2.553795981335     1.409497166406     0.010879228842     1.007825032230
         H           -1.600057981335    -2.802831833594     0.011288228842     1.007825032230
         H           -3.307968981335    -0.991511833594     0.011086228842     1.007825032230
         H            2.730945018665    -1.309962833594    -0.883820771158     1.007825032230
         H            2.730865018665    -1.309775833594     0.906380228842     1.007825032230
         H            3.738668018665    -0.138395833594     0.011201228842     1.007825032230

  Basis Set: AUG-CC-PVTZ
    Blend: AUG-CC-PVTZ
  Basis Set: (AUG-CC-PVTZ AUX)
    Blend: AUG-CC-PVTZ-JKFIT
	 Reference Energy          =    -443.5831991161713859 [Eh]
	 Singles Energy            =      -0.0000000000000000 [Eh]
	 Same-Spin Energy          =      -0.4393708983693908 [Eh]
	 Opposite-Spin Energy      =      -1.3513982669801747 [Eh]
	 Correlation Energy        =      -1.7907691653495657 [Eh]
	 Total Energy              =    -445.3739682815209449 [Eh]

	 ================> DF-SCS-MP2 Energies <==================
	-----------------------------------------------------------
	 SCS Same-Spin Scale       =       0.3333333333333333 [-]
	 SCS Opposite-Spin Scale   =       1.2000000000000000 [-]
	 SCS Same-Spin Energy      =      -0.1464569661231302 [Eh]
	 SCS Opposite-Spin Energy  =      -1.6216779203762097 [Eh]
	 SCS Correlation Energy    =      -1.7681348864993400 [Eh]
	 SCS Total Energy          =    -445.3513340026707397 [Eh]
	-----------------------------------------------------------

  Dipole Moment: [D]
     X:     0.1588      Y:    -2.5645      Z:     0.1045     Total:     2.5715

*** Psi4 exiting successfully. Buy a developer a beer!
