                               Psi4 1.4a3.dev225

  ==> Input File <==

--------------------------------------------------------------------------
#psi4
#
memory 32 gb

molecule  {
0 1
  F       -0.0963580     2.2498010    -0.0002150
  O        1.7683730     0.3991100    -0.0000070
  C        0.4770520    -0.0443510     0.0000100
  C       -0.5052370     0.9594120    -0.0001040
  C        0.0838525    -1.5227940     0.0001378
  C       -1.8569270     0.6655340    -0.0001050
  C       -1.3077240    -1.6845900     0.0001240
  C       -2.2644630    -0.6734790     0.0000110
  C        2.7793550    -0.6059020     0.0001420
  H        0.7856920    -2.1838160     0.0002110
  H       -2.5691860     1.4853780    -0.0001950
  H       -1.6154480    -2.7269510     0.0002140
  H       -3.3233590    -0.9156310     0.0000120
  H        2.7155550    -1.2340820    -0.8948950
  H        2.7154750    -1.2338950     0.8953060
  H        3.7232780    -0.0625150     0.0001270
units angstrom
no_reorient  #important for SAPT in psi4, default
symmetry c1  #important for SAPT in psi4, default
}

set PROPERTIES_ORIGIN ["COM"]
properties('MP2/aug-cc-pvtz', properties = ['dipole'])
--------------------------------------------------------------------------

    Molecular point group: c1
  Charge       = 0
  Multiplicity = 1
  Basis Set: AUG-CC-PVTZ
    Blend: AUG-CC-PVTZ
  Basis Set: (AUG-CC-PVTZ AUX)
    Blend: AUG-CC-PVTZ-JKFIT

    Orbital Energies [Eh]
    ---------------------

    Doubly Occupied:

       1A    -26.301233     2A    -20.596343     3A    -11.326162
       4A    -11.320359     5A    -11.292692     6A    -11.253308
       7A    -11.252127     8A    -11.250202     9A    -11.241775
      10A     -1.615173    11A     -1.415633    12A     -1.148699
      13A     -1.031620    14A     -1.020207    15A     -0.950176
      16A     -0.854431    17A     -0.826160    18A     -0.749875
      19A     -0.714433    20A     -0.699224    21A     -0.688508
      22A     -0.656218    23A     -0.651274    24A     -0.634673
      25A     -0.625106    26A     -0.583321    27A     -0.543326
      28A     -0.531862    29A     -0.525163    30A     -0.488112
      31A     -0.477139    32A     -0.349012    33A     -0.312063

  @DF-RHF Final Energy:  -443.55892236007696

   => Energetics <=

    Nuclear Repulsion Energy =            428.3906231729519618
    One-Electron Energy =               -1456.0478717057926588
    Two-Electron Energy =                 584.0983261727636773
    Total Energy =                       -443.5589223600769628
  Basis Set: (AUG-CC-PVTZ AUX)
    Blend: AUG-CC-PVTZ-RI
    Molecular point group: c1

    Geometry (in Angstrom), charge = 0, multiplicity = 1:

       Center              X                  Y                   Z               Mass
    ------------   -----------------  -----------------  -----------------  -----------------
         F           -0.078716055603     2.191672115778    -0.000208487267    18.998403162730
         O            1.786014944397     0.340981115778    -0.000000487267    15.994914619570
         C            0.494693944397    -0.102479884222     0.000016512733    12.000000000000
         C           -0.487595055603     0.901283115778    -0.000097487267    12.000000000000
         C            0.101494444397    -1.580922884222     0.000144312733    12.000000000000
         C           -1.839285055603     0.607405115778    -0.000098487267    12.000000000000
         C           -1.290082055603    -1.742718884222     0.000130512733    12.000000000000
         C           -2.246821055603    -0.731607884222     0.000017512733    12.000000000000
         C            2.796996944397    -0.664030884222     0.000148512733    12.000000000000
         H            0.803333944397    -2.241944884222     0.000217512733     1.007825032230
         H           -2.551544055603     1.427249115778    -0.000188487267     1.007825032230
         H           -1.597806055603    -2.785079884222     0.000220512733     1.007825032230
         H           -3.305717055603    -0.973759884222     0.000018512733     1.007825032230
         H            2.733196944397    -1.292210884222    -0.894888487267     1.007825032230
         H            2.733116944397    -1.292023884222     0.895312512733     1.007825032230
         H            3.740919944397    -0.120643884222     0.000133512733     1.007825032230

  Basis Set: AUG-CC-PVTZ
    Blend: AUG-CC-PVTZ
  Basis Set: (AUG-CC-PVTZ AUX)
    Blend: AUG-CC-PVTZ-JKFIT
	 Reference Energy          =    -443.5589223600769628 [Eh]
	 Singles Energy            =      -0.0000000000000000 [Eh]
	 Same-Spin Energy          =      -0.4393572139627552 [Eh]
	 Opposite-Spin Energy      =      -1.3520775324744809 [Eh]
	 Correlation Energy        =      -1.7914347464372362 [Eh]
	 Total Energy              =    -445.3503571065141955 [Eh]

	 ================> DF-SCS-MP2 Energies <==================
	-----------------------------------------------------------
	 SCS Same-Spin Scale       =       0.3333333333333333 [-]
	 SCS Opposite-Spin Scale   =       1.2000000000000000 [-]
	 SCS Same-Spin Energy      =      -0.1464524046542517 [Eh]
	 SCS Opposite-Spin Energy  =      -1.6224930389693770 [Eh]
	 SCS Correlation Energy    =      -1.7689454436236287 [Eh]
	 SCS Total Energy          =    -445.3278678037005989 [Eh]
	-----------------------------------------------------------

  Dipole Moment: [D]
     X:     0.5636      Y:    -2.4485      Z:     0.0003     Total:     2.5125

*** Psi4 exiting successfully. Buy a developer a beer!
