                               Psi4 1.4a3.dev225

  ==> Input File <==

--------------------------------------------------------------------------
#psi4
#
memory 32 gb

molecule  {
0 1
  F       -0.0963580     2.2498010    -0.0002150
  O        1.7683730     0.3991100    -0.0000070
  C        0.4770520    -0.0443510     0.0000100
  C       -0.5052370     0.9594120    -0.0001040
  C        0.0593170    -1.3782210     0.0001240
  C       -2.0523613     0.6230436    -0.0001051
  C       -1.3077240    -1.6845900     0.0001240
  C       -2.2644630    -0.6734790     0.0000110
  C        2.7793550    -0.6059020     0.0001420
  H        0.7856920    -2.1838160     0.0002110
  H       -2.5691860     1.4853780    -0.0001950
  H       -1.6154480    -2.7269510     0.0002140
  H       -3.3233590    -0.9156310     0.0000120
  H        2.7155550    -1.2340820    -0.8948950
  H        2.7154750    -1.2338950     0.8953060
  H        3.7232780    -0.0625150     0.0001270
units angstrom
no_reorient  #important for SAPT in psi4, default
symmetry c1  #important for SAPT in psi4, default
}

set PROPERTIES_ORIGIN ["COM"]
properties('MP2/aug-cc-pvtz', properties = ['dipole'])
--------------------------------------------------------------------------

    Molecular point group: c1
  Charge       = 0
  Multiplicity = 1
  Basis Set: AUG-CC-PVTZ
    Blend: AUG-CC-PVTZ
  Basis Set: (AUG-CC-PVTZ AUX)
    Blend: AUG-CC-PVTZ-JKFIT

    Orbital Energies [Eh]
    ---------------------

    Doubly Occupied:

       1A    -26.304642     2A    -20.590270     3A    -11.335002
       4A    -11.307165     5A    -11.290034     6A    -11.255276
       7A    -11.254040     8A    -11.247340     9A    -11.237667
      10A     -1.616265    11A     -1.411953    12A     -1.152322
      13A     -1.042882    14A     -1.011754    15A     -0.943027
      16A     -0.860388    17A     -0.822527    18A     -0.740148
      19A     -0.715519    20A     -0.709024    21A     -0.686840
      22A     -0.657548    23A     -0.654725    24A     -0.632713
      25A     -0.614285    26A     -0.583323    27A     -0.559431
      28A     -0.527432    29A     -0.505192    30A     -0.482666
      31A     -0.478969    32A     -0.351784    33A     -0.311213

  @DF-RHF Final Energy:  -443.54465458450659

   => Energetics <=

    Nuclear Repulsion Energy =            428.1463507860217987
    One-Electron Energy =               -1455.5952825842362017
    Two-Electron Energy =                 583.9042772137077009
    Total Energy =                       -443.5446545845065884
  Basis Set: (AUG-CC-PVTZ AUX)
    Blend: AUG-CC-PVTZ-RI
    Molecular point group: c1

    Geometry (in Angstrom), charge = 0, multiplicity = 1:

       Center              X                  Y                   Z               Mass
    ------------   -----------------  -----------------  -----------------  -----------------
         F           -0.057774544018     2.181953672835    -0.000207163963    18.998403162730
         O            1.806956455982     0.331262672835     0.000000836037    15.994914619570
         C            0.515635455982    -0.112198327165     0.000017836037    12.000000000000
         C           -0.466653544018     0.891564672835    -0.000096163963    12.000000000000
         C            0.097900455982    -1.446068327165     0.000131836037    12.000000000000
         C           -2.013777844018     0.555196272835    -0.000097263963    12.000000000000
         C           -1.269140544018    -1.752437327165     0.000131836037    12.000000000000
         C           -2.225879544018    -0.741326327165     0.000018836037    12.000000000000
         C            2.817938455982    -0.673749327165     0.000149836037    12.000000000000
         H            0.824275455982    -2.251663327165     0.000218836037     1.007825032230
         H           -2.530602544018     1.417530672835    -0.000187163963     1.007825032230
         H           -1.576864544018    -2.794798327165     0.000221836037     1.007825032230
         H           -3.284775544018    -0.983478327165     0.000019836037     1.007825032230
         H            2.754138455982    -1.301929327165    -0.894887163963     1.007825032230
         H            2.754058455982    -1.301742327165     0.895313836037     1.007825032230
         H            3.761861455982    -0.130362327165     0.000134836037     1.007825032230

  Basis Set: AUG-CC-PVTZ
    Blend: AUG-CC-PVTZ
  Basis Set: (AUG-CC-PVTZ AUX)
    Blend: AUG-CC-PVTZ-JKFIT
	 Reference Energy          =    -443.5446545845065884 [Eh]
	 Singles Energy            =      -0.0000000000000000 [Eh]
	 Same-Spin Energy          =      -0.4393567779020453 [Eh]
	 Opposite-Spin Energy      =      -1.3533306045855606 [Eh]
	 Correlation Energy        =      -1.7926873824876060 [Eh]
	 Total Energy              =    -445.3373419669941882 [Eh]

	 ================> DF-SCS-MP2 Energies <==================
	-----------------------------------------------------------
	 SCS Same-Spin Scale       =       0.3333333333333333 [-]
	 SCS Opposite-Spin Scale   =       1.2000000000000000 [-]
	 SCS Same-Spin Energy      =      -0.1464522593006818 [Eh]
	 SCS Opposite-Spin Energy  =      -1.6239967255026728 [Eh]
	 SCS Correlation Energy    =      -1.7704489848033547 [Eh]
	 SCS Total Energy          =    -445.3151035693099402 [Eh]
	-----------------------------------------------------------

  Dipole Moment: [D]
     X:     0.4310      Y:    -2.4322      Z:     0.0003     Total:     2.4701

*** Psi4 exiting successfully. Buy a developer a beer!
