                               Psi4 1.4a3.dev225

  ==> Input File <==

--------------------------------------------------------------------------
#psi4
#
memory 32 gb

molecule  {
0 1
  F       -0.0963580     2.2498010    -0.0002150
  O        1.7683730     0.3991100    -0.0000070
  C        0.4770520    -0.0443510     0.0000100
  C       -0.5052370     0.9594120    -0.0001040
  C        0.0593170    -1.3782210     0.0001240
  C       -1.8569270     0.6655340    -0.0001050
  C       -1.3077240    -1.6845900     0.0001240
  C       -2.2644630    -0.6734790     0.0000110
  C        2.7793550    -0.6059020     0.0001420
  H        0.7856920    -2.1838160     0.0002110
  H       -2.5691860     1.4853780    -0.0001950
  H       -1.6154480    -2.7269510     0.0002140
  H       -3.3233590    -0.9156310     0.0000120
  H        2.7155550    -1.2340820    -0.8948950
  H        2.7183910    -1.2052285     0.8544437
  H        3.7232780    -0.0625150     0.0001270
units angstrom
no_reorient  #important for SAPT in psi4, default
symmetry c1  #important for SAPT in psi4, default
}

set PROPERTIES_ORIGIN ["COM"]
properties('MP2/aug-cc-pvtz', properties = ['dipole'])
--------------------------------------------------------------------------

    Molecular point group: c1
  Charge       = 0
  Multiplicity = 1
  Basis Set: AUG-CC-PVTZ
    Blend: AUG-CC-PVTZ
  Basis Set: (AUG-CC-PVTZ AUX)
    Blend: AUG-CC-PVTZ-JKFIT

    Orbital Energies [Eh]
    ---------------------

    Doubly Occupied:

       1A    -26.301982     2A    -20.593742     3A    -11.323128
       4A    -11.313042     5A    -11.284960     6A    -11.248526
       7A    -11.247627     8A    -11.246453     9A    -11.242223
      10A     -1.615950    11A     -1.414875    12A     -1.158199
      13A     -1.029569    14A     -1.026935    15A     -0.954381
      16A     -0.849149    17A     -0.831849    18A     -0.745724
      19A     -0.709525    20A     -0.706322    21A     -0.689415
      22A     -0.659784    23A     -0.642284    24A     -0.628134
      25A     -0.621299    26A     -0.580958    27A     -0.548942
      28A     -0.533088    29A     -0.519241    30A     -0.502728
      31A     -0.478469    32A     -0.348043    33A     -0.320662

  @DF-RHF Final Energy:  -443.58788700742332

   => Energetics <=

    Nuclear Repulsion Energy =            431.0755010431689129
    One-Electron Energy =               -1461.4923607316727612
    Two-Electron Energy =                 586.8289726810804723
    Total Energy =                       -443.5878870074233191
  Basis Set: (AUG-CC-PVTZ AUX)
    Blend: AUG-CC-PVTZ-RI
    Molecular point group: c1

    Geometry (in Angstrom), charge = 0, multiplicity = 1:

       Center              X                  Y                   Z               Mass
    ------------   -----------------  -----------------  -----------------  -----------------
         F           -0.076403547930     2.177679307365     0.000119543470    18.998403162730
         O            1.788327452070     0.326988307365     0.000327543470    15.994914619570
         C            0.497006452070    -0.116472692635     0.000344543470    12.000000000000
         C           -0.485282547930     0.887290307365     0.000230543470    12.000000000000
         C            0.079271452070    -1.450342692635     0.000458543470    12.000000000000
         C           -1.836972547930     0.593412307365     0.000229543470    12.000000000000
         C           -1.287769547930    -1.756711692635     0.000458543470    12.000000000000
         C           -2.244508547930    -0.745600692635     0.000345543470    12.000000000000
         C            2.799309452070    -0.678023692635     0.000476543470    12.000000000000
         H            0.805646452070    -2.255937692635     0.000545543470     1.007825032230
         H           -2.549231547930     1.413256307365     0.000139543470     1.007825032230
         H           -1.595493547930    -2.799072692635     0.000548543470     1.007825032230
         H           -3.303404547930    -0.987752692635     0.000346543470     1.007825032230
         H            2.735509452070    -1.306203692635    -0.894560456530     1.007825032230
         H            2.738345452070    -1.277350192635     0.854778243470     1.007825032230
         H            3.743232452070    -0.134636692635     0.000461543470     1.007825032230

  Basis Set: AUG-CC-PVTZ
    Blend: AUG-CC-PVTZ
  Basis Set: (AUG-CC-PVTZ AUX)
    Blend: AUG-CC-PVTZ-JKFIT
	 Reference Energy          =    -443.5878870074233191 [Eh]
	 Singles Energy            =      -0.0000000000000000 [Eh]
	 Same-Spin Energy          =      -0.4389756066500603 [Eh]
	 Opposite-Spin Energy      =      -1.3495316711212240 [Eh]
	 Correlation Energy        =      -1.7885072777712843 [Eh]
	 Total Energy              =    -445.3763942851945785 [Eh]

	 ================> DF-SCS-MP2 Energies <==================
	-----------------------------------------------------------
	 SCS Same-Spin Scale       =       0.3333333333333333 [-]
	 SCS Opposite-Spin Scale   =       1.2000000000000000 [-]
	 SCS Same-Spin Energy      =      -0.1463252022166868 [Eh]
	 SCS Opposite-Spin Energy  =      -1.6194380053454687 [Eh]
	 SCS Correlation Energy    =      -1.7657632075621554 [Eh]
	 SCS Total Energy          =    -445.3536502149854641 [Eh]
	-----------------------------------------------------------

  Dipole Moment: [D]
     X:     0.4997      Y:    -2.5143      Z:     0.0212     Total:     2.5636

*** Psi4 exiting successfully. Buy a developer a beer!
