                               Psi4 1.4a3.dev225

  ==> Input File <==

--------------------------------------------------------------------------
#psi4
#
memory 32 gb

molecule  {
0 1
  F       -0.0963580     2.2498010    -0.0002150
  O        1.7683730     0.3991100    -0.0000070
  C        0.4770520    -0.0443510     0.0000100
  C       -0.5052370     0.9594120    -0.0001040
  C        0.0593170    -1.3782210     0.0001240
  C       -1.9546442     0.6442888    -0.0001051
  C       -1.3077240    -1.6845900     0.0001240
  C       -2.2644630    -0.6734790     0.0000110
  C        2.7793550    -0.6059020     0.0001420
  H        0.7856920    -2.1838160     0.0002110
  H       -2.5691860     1.4853780    -0.0001950
  H       -1.6154480    -2.7269510     0.0002140
  H       -3.3233590    -0.9156310     0.0000120
  H        2.7155550    -1.2340820    -0.8948950
  H        2.7154750    -1.2338950     0.8953060
  H        3.7232780    -0.0625150     0.0001270
units angstrom
no_reorient  #important for SAPT in psi4, default
symmetry c1  #important for SAPT in psi4, default
}

set PROPERTIES_ORIGIN ["COM"]
properties('MP2/aug-cc-pvtz', properties = ['dipole'])
--------------------------------------------------------------------------

    Molecular point group: c1
  Charge       = 0
  Multiplicity = 1
  Basis Set: AUG-CC-PVTZ
    Blend: AUG-CC-PVTZ
  Basis Set: (AUG-CC-PVTZ AUX)
    Blend: AUG-CC-PVTZ-JKFIT

    Orbital Energies [Eh]
    ---------------------

    Doubly Occupied:

       1A    -26.303942     2A    -20.592439     3A    -11.330932
       4A    -11.310274     5A    -11.290552     6A    -11.251988
       7A    -11.250619     8A    -11.247099     9A    -11.239451
      10A     -1.616584    11A     -1.413667    12A     -1.154283
      13A     -1.035800    14A     -1.017686    15A     -0.946843
      16A     -0.855180    17A     -0.825796    18A     -0.742883
      19A     -0.709647    20A     -0.708754    21A     -0.688229
      22A     -0.655574    23A     -0.649258    24A     -0.630476
      25A     -0.618759    26A     -0.582114    27A     -0.555403
      28A     -0.528742    29A     -0.506920    30A     -0.502361
      31A     -0.477864    32A     -0.346223    33A     -0.318059

  @DF-RHF Final Energy:  -443.57569068844629

   => Energetics <=

    Nuclear Repulsion Energy =            429.4468732885686677
    One-Electron Energy =               -1458.2363231433455439
    Two-Electron Energy =                 585.2137591663306466
    Total Energy =                       -443.5756906884462296
  Basis Set: (AUG-CC-PVTZ AUX)
    Blend: AUG-CC-PVTZ-RI
    Molecular point group: c1

    Geometry (in Angstrom), charge = 0, multiplicity = 1:

       Center              X                  Y                   Z               Mass
    ------------   -----------------  -----------------  -----------------  -----------------
         F           -0.067077383688     2.179931092454    -0.000207163963    18.998403162730
         O            1.797653616312     0.329240092454     0.000000836037    15.994914619570
         C            0.506332616312    -0.114220907546     0.000017836037    12.000000000000
         C           -0.475956383688     0.889542092454    -0.000096163963    12.000000000000
         C            0.088597616312    -1.448090907546     0.000131836037    12.000000000000
         C           -1.925363583688     0.574418892454    -0.000097263963    12.000000000000
         C           -1.278443383688    -1.754459907546     0.000131836037    12.000000000000
         C           -2.235182383688    -0.743348907546     0.000018836037    12.000000000000
         C            2.808635616312    -0.675771907546     0.000149836037    12.000000000000
         H            0.814972616312    -2.253685907546     0.000218836037     1.007825032230
         H           -2.539905383688     1.415508092454    -0.000187163963     1.007825032230
         H           -1.586167383688    -2.796820907546     0.000221836037     1.007825032230
         H           -3.294078383688    -0.985500907546     0.000019836037     1.007825032230
         H            2.744835616312    -1.303951907546    -0.894887163963     1.007825032230
         H            2.744755616312    -1.303764907546     0.895313836037     1.007825032230
         H            3.752558616312    -0.132384907546     0.000134836037     1.007825032230

  Basis Set: AUG-CC-PVTZ
    Blend: AUG-CC-PVTZ
  Basis Set: (AUG-CC-PVTZ AUX)
    Blend: AUG-CC-PVTZ-JKFIT
	 Reference Energy          =    -443.5756906884462865 [Eh]
	 Singles Energy            =      -0.0000000000000000 [Eh]
	 Same-Spin Energy          =      -0.4392732186928678 [Eh]
	 Opposite-Spin Energy      =      -1.3511759704748858 [Eh]
	 Correlation Energy        =      -1.7904491891677536 [Eh]
	 Total Energy              =    -445.3661398776140459 [Eh]

	 ================> DF-SCS-MP2 Energies <==================
	-----------------------------------------------------------
	 SCS Same-Spin Scale       =       0.3333333333333333 [-]
	 SCS Opposite-Spin Scale   =       1.2000000000000000 [-]
	 SCS Same-Spin Energy      =      -0.1464244062309559 [Eh]
	 SCS Opposite-Spin Energy  =      -1.6214111645698630 [Eh]
	 SCS Correlation Energy    =      -1.7678355708008189 [Eh]
	 SCS Total Energy          =    -445.3435262592470849 [Eh]
	-----------------------------------------------------------

  Dipole Moment: [D]
     X:     0.4706      Y:    -2.4536      Z:     0.0003     Total:     2.4983

*** Psi4 exiting successfully. Buy a developer a beer!
