                               Psi4 1.4a3.dev225

  ==> Input File <==

--------------------------------------------------------------------------
#psi4
#
memory 32 gb

molecule  {
0 1
  F       -0.0963580     2.2498010    -0.0002150
  O        1.7759158     0.3765058    -0.0000047
  C        0.4770520    -0.0443510     0.0000100
  C       -0.5052370     0.9594120    -0.0001040
  C        0.0593170    -1.3782210     0.0001240
  C       -1.8569270     0.6655340    -0.0001050
  C       -1.3077240    -1.6845900     0.0001240
  C       -2.2644630    -0.6734790     0.0000110
  C        2.7793550    -0.6059020     0.0001420
  H        0.7856920    -2.1838160     0.0002110
  H       -2.5691860     1.4853780    -0.0001950
  H       -1.6154480    -2.7269510     0.0002140
  H       -3.3233590    -0.9156310     0.0000120
  H        2.7155550    -1.2340820    -0.8948950
  H        2.7154750    -1.2338950     0.8953060
  H        3.7232780    -0.0625150     0.0001270
units angstrom
no_reorient  #important for SAPT in psi4, default
symmetry c1  #important for SAPT in psi4, default
}

set PROPERTIES_ORIGIN ["COM"]
properties('MP2/aug-cc-pvtz', properties = ['dipole'])
--------------------------------------------------------------------------

    Molecular point group: c1
  Charge       = 0
  Multiplicity = 1
  Basis Set: AUG-CC-PVTZ
    Blend: AUG-CC-PVTZ
  Basis Set: (AUG-CC-PVTZ AUX)
    Blend: AUG-CC-PVTZ-JKFIT

    Orbital Energies [Eh]
    ---------------------

    Doubly Occupied:

       1A    -26.302742     2A    -20.593457     3A    -11.324429
       4A    -11.314055     5A    -11.288914     6A    -11.249218
       7A    -11.247774     8A    -11.246613     9A    -11.242834
      10A     -1.616703    11A     -1.420455    12A     -1.159176
      13A     -1.031226    14A     -1.027251    15A     -0.949958
      16A     -0.849658    17A     -0.831132    18A     -0.746811
      19A     -0.710434    20A     -0.706644    21A     -0.690134
      22A     -0.659301    23A     -0.643079    24A     -0.631765
      25A     -0.621571    26A     -0.583160    27A     -0.547487
      28A     -0.528984    29A     -0.519686    30A     -0.500202
      31A     -0.476511    32A     -0.348401    33A     -0.321416

  @DF-RHF Final Energy:  -443.58946385432012

   => Energetics <=

    Nuclear Repulsion Energy =            431.0522607104636563
    One-Electron Energy =               -1461.4210864227939055
    Two-Electron Energy =                 586.7793618580102475
    Total Energy =                       -443.5894638543201154
  Basis Set: (AUG-CC-PVTZ AUX)
    Blend: AUG-CC-PVTZ-RI
    Molecular point group: c1

    Geometry (in Angstrom), charge = 0, multiplicity = 1:

       Center              X                  Y                   Z               Mass
    ------------   -----------------  -----------------  -----------------  -----------------
         F           -0.077337378989     2.180776879538    -0.000207465342    18.998403162730
         O            1.794936421011     0.307481679538     0.000002834658    15.994914619570
         C            0.496072621011    -0.113375120462     0.000017534658    12.000000000000
         C           -0.486216378989     0.890387879538    -0.000096465342    12.000000000000
         C            0.078337621011    -1.447245120462     0.000131534658    12.000000000000
         C           -1.837906378989     0.596509879538    -0.000097465342    12.000000000000
         C           -1.288703378989    -1.753614120462     0.000131534658    12.000000000000
         C           -2.245442378989    -0.742503120462     0.000018534658    12.000000000000
         C            2.798375621011    -0.674926120462     0.000149534658    12.000000000000
         H            0.804712621011    -2.252840120462     0.000218534658     1.007825032230
         H           -2.550165378989     1.416353879538    -0.000187465342     1.007825032230
         H           -1.596427378989    -2.795975120462     0.000221534658     1.007825032230
         H           -3.304338378989    -0.984655120462     0.000019534658     1.007825032230
         H            2.734575621011    -1.303106120462    -0.894887465342     1.007825032230
         H            2.734495621011    -1.302919120462     0.895313534658     1.007825032230
         H            3.742298621011    -0.131539120462     0.000134534658     1.007825032230

  Basis Set: AUG-CC-PVTZ
    Blend: AUG-CC-PVTZ
  Basis Set: (AUG-CC-PVTZ AUX)
    Blend: AUG-CC-PVTZ-JKFIT
	 Reference Energy          =    -443.5894638543201154 [Eh]
	 Singles Energy            =      -0.0000000000000000 [Eh]
	 Same-Spin Energy          =      -0.4388642681898342 [Eh]
	 Opposite-Spin Energy      =      -1.3491860438529739 [Eh]
	 Correlation Energy        =      -1.7880503120428082 [Eh]
	 Total Energy              =    -445.3775141663629142 [Eh]

	 ================> DF-SCS-MP2 Energies <==================
	-----------------------------------------------------------
	 SCS Same-Spin Scale       =       0.3333333333333333 [-]
	 SCS Opposite-Spin Scale   =       1.2000000000000000 [-]
	 SCS Same-Spin Energy      =      -0.1462880893966114 [Eh]
	 SCS Opposite-Spin Energy  =      -1.6190232526235686 [Eh]
	 SCS Correlation Energy    =      -1.7653113420201800 [Eh]
	 SCS Total Energy          =    -445.3547751963403130 [Eh]
	-----------------------------------------------------------

  Dipole Moment: [D]
     X:     0.4173      Y:    -2.4475      Z:     0.0003     Total:     2.4828

*** Psi4 exiting successfully. Buy a developer a beer!
