                               Psi4 1.4a3.dev225

  ==> Input File <==

--------------------------------------------------------------------------
#psi4
#
memory 32 gb

molecule  {
0 1
  F       -0.0963580     2.2498010    -0.0002150
  O        1.7683730     0.3991100    -0.0000070
  C        0.4770520    -0.0443510     0.0000100
  C       -0.5751790     1.0308831    -0.0001121
  C        0.0593170    -1.3782210     0.0001240
  C       -1.8569270     0.6655340    -0.0001050
  C       -1.3077240    -1.6845900     0.0001240
  C       -2.2644630    -0.6734790     0.0000110
  C        2.7793550    -0.6059020     0.0001420
  H        0.7856920    -2.1838160     0.0002110
  H       -2.5691860     1.4853780    -0.0001950
  H       -1.6154480    -2.7269510     0.0002140
  H       -3.3233590    -0.9156310     0.0000120
  H        2.7155550    -1.2340820    -0.8948950
  H        2.7154750    -1.2338950     0.8953060
  H        3.7232780    -0.0625150     0.0001270
units angstrom
no_reorient  #important for SAPT in psi4, default
symmetry c1  #important for SAPT in psi4, default
}

set PROPERTIES_ORIGIN ["COM"]
properties('MP2/aug-cc-pvtz', properties = ['dipole'])
--------------------------------------------------------------------------

    Molecular point group: c1
  Charge       = 0
  Multiplicity = 1
  Basis Set: AUG-CC-PVTZ
    Blend: AUG-CC-PVTZ
  Basis Set: (AUG-CC-PVTZ AUX)
    Blend: AUG-CC-PVTZ-JKFIT

    Orbital Energies [Eh]
    ---------------------

    Doubly Occupied:

       1A    -26.316248     2A    -20.596658     3A    -11.328241
       4A    -11.320443     5A    -11.290917     6A    -11.244570
       7A    -11.241675     8A    -11.239908     9A    -11.238720
      10A     -1.645119    11A     -1.414984    12A     -1.152827
      13A     -1.035022    14A     -1.014929    15A     -0.950646
      16A     -0.848158    17A     -0.831547    18A     -0.754596
      19A     -0.719656    20A     -0.708449    21A     -0.706587
      22A     -0.657645    23A     -0.637918    24A     -0.634391
      25A     -0.620922    26A     -0.576468    27A     -0.548000
      28A     -0.525842    29A     -0.516264    30A     -0.490993
      31A     -0.477619    32A     -0.355077    33A     -0.308389

  @DF-RHF Final Energy:  -443.57812073659505

   => Energetics <=

    Nuclear Repulsion Energy =            430.2581593269695190
    One-Electron Energy =               -1459.7737093968371482
    Two-Electron Energy =                 585.9374293332725756
    Total Energy =                       -443.5781207365951104
  Basis Set: (AUG-CC-PVTZ AUX)
    Blend: AUG-CC-PVTZ-RI
    Molecular point group: c1

    Geometry (in Angstrom), charge = 0, multiplicity = 1:

       Center              X                  Y                   Z               Mass
    ------------   -----------------  -----------------  -----------------  -----------------
         F           -0.069721631546     2.171104337733    -0.000206402349    18.998403162730
         O            1.795009368454     0.320413337733     0.000001597651    15.994914619570
         C            0.503688368454    -0.123047662267     0.000018597651    12.000000000000
         C           -0.548542631546     0.952186437733    -0.000103502349    12.000000000000
         C            0.085953368454    -1.456917662267     0.000132597651    12.000000000000
         C           -1.830290631546     0.586837337733    -0.000096402349    12.000000000000
         C           -1.281087631546    -1.763286662267     0.000132597651    12.000000000000
         C           -2.237826631546    -0.752175662267     0.000019597651    12.000000000000
         C            2.805991368454    -0.684598662267     0.000150597651    12.000000000000
         H            0.812328368454    -2.262512662267     0.000219597651     1.007825032230
         H           -2.542549631546     1.406681337733    -0.000186402349     1.007825032230
         H           -1.588811631546    -2.805647662267     0.000222597651     1.007825032230
         H           -3.296722631546    -0.994327662267     0.000020597651     1.007825032230
         H            2.742191368454    -1.312778662267    -0.894886402349     1.007825032230
         H            2.742111368454    -1.312591662267     0.895314597651     1.007825032230
         H            3.749914368454    -0.141211662267     0.000135597651     1.007825032230

  Basis Set: AUG-CC-PVTZ
    Blend: AUG-CC-PVTZ
  Basis Set: (AUG-CC-PVTZ AUX)
    Blend: AUG-CC-PVTZ-JKFIT
	 Reference Energy          =    -443.5781207365950536 [Eh]
	 Singles Energy            =      -0.0000000000000000 [Eh]
	 Same-Spin Energy          =      -0.4385984162972129 [Eh]
	 Opposite-Spin Energy      =      -1.3496524137104573 [Eh]
	 Correlation Energy        =      -1.7882508300076703 [Eh]
	 Total Energy              =    -445.3663715666027088 [Eh]

	 ================> DF-SCS-MP2 Energies <==================
	-----------------------------------------------------------
	 SCS Same-Spin Scale       =       0.3333333333333333 [-]
	 SCS Opposite-Spin Scale   =       1.2000000000000000 [-]
	 SCS Same-Spin Energy      =      -0.1461994720990709 [Eh]
	 SCS Opposite-Spin Energy  =      -1.6195828964525487 [Eh]
	 SCS Correlation Energy    =      -1.7657823685516196 [Eh]
	 SCS Total Energy          =    -445.3439031051466941 [Eh]
	-----------------------------------------------------------

  Dipole Moment: [D]
     X:     0.5841      Y:    -2.1372      Z:     0.0002     Total:     2.2156

*** Psi4 exiting successfully. Buy a developer a beer!
