                               Psi4 1.4a3.dev225

  ==> Input File <==

--------------------------------------------------------------------------
#psi4
#
memory 32 gb

molecule  {
0 1
  F       -0.0963580     2.2498010    -0.0002150
  O        1.7683730     0.3991100    -0.0000070
  C        0.4770520    -0.0443510     0.0000100
  C       -0.5052370     0.9594120    -0.0001040
  C        0.0691764    -1.4261167     0.0001286
  C       -1.8569270     0.6655340    -0.0001050
  C       -1.3077240    -1.6845900     0.0001240
  C       -2.2644630    -0.6734790     0.0000110
  C        2.7793550    -0.6059020     0.0001420
  H        0.7856920    -2.1838160     0.0002110
  H       -2.5691860     1.4853780    -0.0001950
  H       -1.6154480    -2.7269510     0.0002140
  H       -3.3233590    -0.9156310     0.0000120
  H        2.7155550    -1.2340820    -0.8948950
  H        2.7154750    -1.2338950     0.8953060
  H        3.7232780    -0.0625150     0.0001270
units angstrom
no_reorient  #important for SAPT in psi4, default
symmetry c1  #important for SAPT in psi4, default
}

set PROPERTIES_ORIGIN ["COM"]
properties('MP2/aug-cc-pvtz', properties = ['dipole'])
--------------------------------------------------------------------------

    Molecular point group: c1
  Charge       = 0
  Multiplicity = 1
  Basis Set: AUG-CC-PVTZ
    Blend: AUG-CC-PVTZ
  Basis Set: (AUG-CC-PVTZ AUX)
    Blend: AUG-CC-PVTZ-JKFIT

    Orbital Energies [Eh]
    ---------------------

    Doubly Occupied:

       1A    -26.301844     2A    -20.595188     3A    -11.322373
       4A    -11.317838     5A    -11.291644     6A    -11.250058
       7A    -11.248896     8A    -11.247443     9A    -11.242046
      10A     -1.615796    11A     -1.415457    12A     -1.154487
      13A     -1.028327    14A     -1.025546    15A     -0.950146
      16A     -0.849423    17A     -0.829920    18A     -0.746355
      19A     -0.711050    20A     -0.703114    21A     -0.688993
      22A     -0.656274    23A     -0.640836    24A     -0.630225
      25A     -0.627112    26A     -0.582260    27A     -0.546310
      28A     -0.528345    29A     -0.524151    30A     -0.499469
      31A     -0.477426    32A     -0.347776    33A     -0.318010

  @DF-RHF Final Energy:  -443.58501013190289

   => Energetics <=

    Nuclear Repulsion Energy =            430.0116651825047711
    One-Electron Energy =               -1459.3650767018771148
    Two-Electron Energy =                 585.7684013874695665
    Total Energy =                       -443.5850101319028909
  Basis Set: (AUG-CC-PVTZ AUX)
    Blend: AUG-CC-PVTZ-RI
    Molecular point group: c1

    Geometry (in Angstrom), charge = 0, multiplicity = 1:

       Center              X                  Y                   Z               Mass
    ------------   -----------------  -----------------  -----------------  -----------------
         F           -0.077318865087     2.182468266895    -0.000207611411    18.998403162730
         O            1.787412134913     0.331777266895     0.000000388589    15.994914619570
         C            0.496091134913    -0.111683733105     0.000017388589    12.000000000000
         C           -0.486197865087     0.892079266895    -0.000096611411    12.000000000000
         C            0.088215534913    -1.493449433105     0.000135988589    12.000000000000
         C           -1.837887865087     0.598201266895    -0.000097611411    12.000000000000
         C           -1.288684865087    -1.751922733105     0.000131388589    12.000000000000
         C           -2.245423865087    -0.740811733105     0.000018388589    12.000000000000
         C            2.798394134913    -0.673234733105     0.000149388589    12.000000000000
         H            0.804731134913    -2.251148733105     0.000218388589     1.007825032230
         H           -2.550146865087     1.418045266895    -0.000187611411     1.007825032230
         H           -1.596408865087    -2.794283733105     0.000221388589     1.007825032230
         H           -3.304319865087    -0.982963733105     0.000019388589     1.007825032230
         H            2.734594134913    -1.301414733105    -0.894887611411     1.007825032230
         H            2.734514134913    -1.301227733105     0.895313388589     1.007825032230
         H            3.742317134913    -0.129847733105     0.000134388589     1.007825032230

  Basis Set: AUG-CC-PVTZ
    Blend: AUG-CC-PVTZ
  Basis Set: (AUG-CC-PVTZ AUX)
    Blend: AUG-CC-PVTZ-JKFIT
	 Reference Energy          =    -443.5850101319028909 [Eh]
	 Singles Energy            =      -0.0000000000000000 [Eh]
	 Same-Spin Energy          =      -0.4390786916837636 [Eh]
	 Opposite-Spin Energy      =      -1.3502638105763944 [Eh]
	 Correlation Energy        =      -1.7893425022601581 [Eh]
	 Total Energy              =    -445.3743526341630741 [Eh]

	 ================> DF-SCS-MP2 Energies <==================
	-----------------------------------------------------------
	 SCS Same-Spin Scale       =       0.3333333333333333 [-]
	 SCS Opposite-Spin Scale   =       1.2000000000000000 [-]
	 SCS Same-Spin Energy      =      -0.1463595638945879 [Eh]
	 SCS Opposite-Spin Energy  =      -1.6203165726916733 [Eh]
	 SCS Correlation Energy    =      -1.7666761365862611 [Eh]
	 SCS Total Energy          =    -445.3516862684891748 [Eh]
	-----------------------------------------------------------

  Dipole Moment: [D]
     X:     0.5172      Y:    -2.4807      Z:     0.0003     Total:     2.5341

*** Psi4 exiting successfully. Buy a developer a beer!
