                               Psi4 1.4a3.dev225

  ==> Input File <==

--------------------------------------------------------------------------
#psi4
#
memory 32 gb

molecule  {
0 1
  F       -0.0963580     2.2498010    -0.0002150
  O        1.7683730     0.3991100    -0.0000070
  C        0.4770520    -0.0443510     0.0000100
  C       -0.5052370     0.9594120    -0.0001040
  C        0.0533398    -1.3973069     0.0001256
  C       -1.8569270     0.6655340    -0.0001050
  C       -1.3077240    -1.6845900     0.0001240
  C       -2.2644630    -0.6734790     0.0000110
  C        2.7793550    -0.6059020     0.0001420
  H        0.7856920    -2.1838160     0.0002110
  H       -2.5691860     1.4853780    -0.0001950
  H       -1.6154480    -2.7269510     0.0002140
  H       -3.3233590    -0.9156310     0.0000120
  H        2.7155550    -1.2340820    -0.8948950
  H        2.7154750    -1.2338950     0.8953060
  H        3.7232780    -0.0625150     0.0001270
units angstrom
no_reorient  #important for SAPT in psi4, default
symmetry c1  #important for SAPT in psi4, default
}

set PROPERTIES_ORIGIN ["COM"]
properties('MP2/aug-cc-pvtz', properties = ['dipole'])
--------------------------------------------------------------------------

    Molecular point group: c1
  Charge       = 0
  Multiplicity = 1
  Basis Set: AUG-CC-PVTZ
    Blend: AUG-CC-PVTZ
  Basis Set: (AUG-CC-PVTZ AUX)
    Blend: AUG-CC-PVTZ-JKFIT

    Orbital Energies [Eh]
    ---------------------

    Doubly Occupied:

       1A    -26.301798     2A    -20.595287     3A    -11.322632
       4A    -11.315136     5A    -11.291399     6A    -11.248999
       7A    -11.247950     8A    -11.245936     9A    -11.242094
      10A     -1.615796    11A     -1.415530    12A     -1.157381
      13A     -1.028449    14A     -1.027151    15A     -0.950208
      16A     -0.848089    17A     -0.831377    18A     -0.745478
      19A     -0.709730    20A     -0.704657    21A     -0.689004
      22A     -0.656346    23A     -0.641849    24A     -0.628642
      25A     -0.622813    26A     -0.581902    27A     -0.547742
      28A     -0.529746    29A     -0.521507    30A     -0.500687
      31A     -0.478121    32A     -0.348707    33A     -0.319230

  @DF-RHF Final Energy:  -443.58804841090233

   => Energetics <=

    Nuclear Repulsion Energy =            430.5703523557972403
    One-Electron Energy =               -1460.4940597863312632
    Two-Electron Energy =                 586.3356590196317484
    Total Energy =                       -443.5880484109022746
  Basis Set: (AUG-CC-PVTZ AUX)
    Blend: AUG-CC-PVTZ-RI
    Molecular point group: c1

    Geometry (in Angstrom), charge = 0, multiplicity = 1:

       Center              X                  Y                   Z               Mass
    ------------   -----------------  -----------------  -----------------  -----------------
         F           -0.075811192933     2.179725523298    -0.000207325806    18.998403162730
         O            1.788919807067     0.329034523298     0.000000674194    15.994914619570
         C            0.497598807067    -0.114426476702     0.000017674194    12.000000000000
         C           -0.484690192933     0.889336523298    -0.000096325806    12.000000000000
         C            0.073886607067    -1.467382376702     0.000133274194    12.000000000000
         C           -1.836380192933     0.595458523298    -0.000097325806    12.000000000000
         C           -1.287177192933    -1.754665476702     0.000131674194    12.000000000000
         C           -2.243916192933    -0.743554476702     0.000018674194    12.000000000000
         C            2.799901807067    -0.675977476702     0.000149674194    12.000000000000
         H            0.806238807067    -2.253891476702     0.000218674194     1.007825032230
         H           -2.548639192933     1.415302523298    -0.000187325806     1.007825032230
         H           -1.594901192933    -2.797026476702     0.000221674194     1.007825032230
         H           -3.302812192933    -0.985706476702     0.000019674194     1.007825032230
         H            2.736101807067    -1.304157476702    -0.894887325806     1.007825032230
         H            2.736021807067    -1.303970476702     0.895313674194     1.007825032230
         H            3.743824807067    -0.132590476702     0.000134674194     1.007825032230

  Basis Set: AUG-CC-PVTZ
    Blend: AUG-CC-PVTZ
  Basis Set: (AUG-CC-PVTZ AUX)
    Blend: AUG-CC-PVTZ-JKFIT
	 Reference Energy          =    -443.5880484109023314 [Eh]
	 Singles Energy            =      -0.0000000000000000 [Eh]
	 Same-Spin Energy          =      -0.4390707087801326 [Eh]
	 Opposite-Spin Energy      =      -1.3499539885004710 [Eh]
	 Correlation Energy        =      -1.7890246972806036 [Eh]
	 Total Energy              =    -445.3770731081829126 [Eh]

	 ================> DF-SCS-MP2 Energies <==================
	-----------------------------------------------------------
	 SCS Same-Spin Scale       =       0.3333333333333333 [-]
	 SCS Opposite-Spin Scale   =       1.2000000000000000 [-]
	 SCS Same-Spin Energy      =      -0.1463569029267109 [Eh]
	 SCS Opposite-Spin Energy  =      -1.6199447862005651 [Eh]
	 SCS Correlation Energy    =      -1.7663016891272760 [Eh]
	 SCS Total Energy          =    -445.3543501000295919 [Eh]
	-----------------------------------------------------------

  Dipole Moment: [D]
     X:     0.5048      Y:    -2.4940      Z:     0.0003     Total:     2.5446

*** Psi4 exiting successfully. Buy a developer a beer!
