                               Psi4 1.4a3.dev225

  ==> Input File <==

--------------------------------------------------------------------------
#psi4
#
memory 32 gb

molecule  {
0 1
  F       -0.0963580     2.2498010    -0.0002150
  O        1.7683730     0.3991100    -0.0000070
  C        0.4770520    -0.0443510     0.0000100
  C       -0.5052370     0.9594120    -0.0001040
  C        0.0593170    -1.3782210     0.0001240
  C       -1.8569270     0.6655340    -0.0001050
  C       -1.3077240    -1.6845900     0.0001240
  C       -2.2644630    -0.6734790     0.0000110
  C        2.7793550    -0.6059020     0.0001420
  H        0.7856920    -2.1838160     0.0002110
  H       -2.5691860     1.4853780    -0.0001950
  H       -1.6154480    -2.7269510     0.0002140
  H       -3.3233590    -0.9156310     0.0000120
  H        2.7155550    -1.2340820    -0.8948950
  H        2.7166414    -1.2224284     0.8789611
  H        3.7232780    -0.0625150     0.0001270
units angstrom
no_reorient  #important for SAPT in psi4, default
symmetry c1  #important for SAPT in psi4, default
}

set PROPERTIES_ORIGIN ["COM"]
properties('MP2/aug-cc-pvtz', properties = ['dipole'])
--------------------------------------------------------------------------

    Molecular point group: c1
  Charge       = 0
  Multiplicity = 1
  Basis Set: AUG-CC-PVTZ
    Blend: AUG-CC-PVTZ
  Basis Set: (AUG-CC-PVTZ AUX)
    Blend: AUG-CC-PVTZ-JKFIT

    Orbital Energies [Eh]
    ---------------------

    Doubly Occupied:

       1A    -26.302075     2A    -20.594273     3A    -11.323232
       4A    -11.313100     5A    -11.288602     6A    -11.248554
       7A    -11.247640     8A    -11.246462     9A    -11.242292
      10A     -1.616045    11A     -1.415138    12A     -1.158233
      13A     -1.029285    14A     -1.026807    15A     -0.951931
      16A     -0.848980    17A     -0.831337    18A     -0.745570
      19A     -0.709395    20A     -0.705712    21A     -0.689319
      22A     -0.657649    23A     -0.642170    24A     -0.628328
      25A     -0.621312    26A     -0.581018    27A     -0.548427
      28A     -0.531487    29A     -0.519312    30A     -0.502487
      31A     -0.478026    32A     -0.348064    33A     -0.320770

  @DF-RHF Final Energy:  -443.58880484094931

   => Energetics <=

    Nuclear Repulsion Energy =            430.9427620444524223
    One-Electron Energy =               -1461.2370672731121886
    Two-Electron Energy =                 586.7055003877105719
    Total Energy =                       -443.5888048409492512
  Basis Set: (AUG-CC-PVTZ AUX)
    Blend: AUG-CC-PVTZ-RI
    Molecular point group: c1

    Geometry (in Angstrom), charge = 0, multiplicity = 1:

       Center              X                  Y                   Z               Mass
    ------------   -----------------  -----------------  -----------------  -----------------
         F           -0.076389558899     2.177816830189    -0.000076486862    18.998403162730
         O            1.788341441101     0.327125830189     0.000131513138    15.994914619570
         C            0.497020441101    -0.116335169811     0.000148513138    12.000000000000
         C           -0.485268558899     0.887427830189     0.000034513138    12.000000000000
         C            0.079285441101    -1.450205169811     0.000262513138    12.000000000000
         C           -1.836958558899     0.593549830189     0.000033513138    12.000000000000
         C           -1.287755558899    -1.756574169811     0.000262513138    12.000000000000
         C           -2.244494558899    -0.745463169811     0.000149513138    12.000000000000
         C            2.799323441101    -0.677886169811     0.000280513138    12.000000000000
         H            0.805660441101    -2.255800169811     0.000349513138     1.007825032230
         H           -2.549217558899     1.413393830189    -0.000056486862     1.007825032230
         H           -1.595479558899    -2.798935169811     0.000352513138     1.007825032230
         H           -3.303390558899    -0.987615169811     0.000150513138     1.007825032230
         H            2.735523441101    -1.306066169811    -0.894756486862     1.007825032230
         H            2.736609841101    -1.294412569811     0.879099613138     1.007825032230
         H            3.743246441101    -0.134499169811     0.000265513138     1.007825032230

  Basis Set: AUG-CC-PVTZ
    Blend: AUG-CC-PVTZ
  Basis Set: (AUG-CC-PVTZ AUX)
    Blend: AUG-CC-PVTZ-JKFIT
	 Reference Energy          =    -443.5888048409493081 [Eh]
	 Singles Energy            =      -0.0000000000000000 [Eh]
	 Same-Spin Energy          =      -0.4390073179171167 [Eh]
	 Opposite-Spin Energy      =      -1.3497204157605607 [Eh]
	 Correlation Energy        =      -1.7887277336776775 [Eh]
	 Total Energy              =    -445.3775325746269687 [Eh]

	 ================> DF-SCS-MP2 Energies <==================
	-----------------------------------------------------------
	 SCS Same-Spin Scale       =       0.3333333333333333 [-]
	 SCS Opposite-Spin Scale   =       1.2000000000000000 [-]
	 SCS Same-Spin Energy      =      -0.1463357726390389 [Eh]
	 SCS Opposite-Spin Energy  =      -1.6196644989126727 [Eh]
	 SCS Correlation Energy    =      -1.7660002715517116 [Eh]
	 SCS Total Energy          =    -445.3548051125010261 [Eh]
	-----------------------------------------------------------

  Dipole Moment: [D]
     X:     0.4898      Y:    -2.5035      Z:     0.0091     Total:     2.5510

*** Psi4 exiting successfully. Buy a developer a beer!
