                               Psi4 1.4a3.dev225

  ==> Input File <==

--------------------------------------------------------------------------
#psi4
#
memory 32 gb

molecule  {
0 1
  F       -0.0963580     2.2498010    -0.0002150
  O        1.7683730     0.3991100    -0.0000070
  C        0.4770520    -0.0443510     0.0000100
  C       -0.3653529     0.8164699    -0.0000878
  C        0.0593170    -1.3782210     0.0001240
  C       -1.8569270     0.6655340    -0.0001050
  C       -1.3077240    -1.6845900     0.0001240
  C       -2.2644630    -0.6734790     0.0000110
  C        2.7793550    -0.6059020     0.0001420
  H        0.7856920    -2.1838160     0.0002110
  H       -2.5691860     1.4853780    -0.0001950
  H       -1.6154480    -2.7269510     0.0002140
  H       -3.3233590    -0.9156310     0.0000120
  H        2.7155550    -1.2340820    -0.8948950
  H        2.7154750    -1.2338950     0.8953060
  H        3.7232780    -0.0625150     0.0001270
units angstrom
no_reorient  #important for SAPT in psi4, default
symmetry c1  #important for SAPT in psi4, default
}

set PROPERTIES_ORIGIN ["COM"]
properties('MP2/aug-cc-pvtz', properties = ['dipole'])
--------------------------------------------------------------------------

    Molecular point group: c1
  Charge       = 0
  Multiplicity = 1
  Basis Set: AUG-CC-PVTZ
    Blend: AUG-CC-PVTZ
  Basis Set: (AUG-CC-PVTZ AUX)
    Blend: AUG-CC-PVTZ-JKFIT

    Orbital Energies [Eh]
    ---------------------

    Doubly Occupied:

       1A    -26.273423     2A    -20.590253     3A    -11.309986
       4A    -11.290675     5A    -11.287869     6A    -11.267040
       7A    -11.257082     8A    -11.254017     9A    -11.248188
      10A     -1.559445    11A     -1.416925    12A     -1.179324
      13A     -1.063829    14A     -1.015584    15A     -0.949787
      16A     -0.866570    17A     -0.816487    18A     -0.737663
      19A     -0.702184    20A     -0.682303    21A     -0.673750
      22A     -0.653727    23A     -0.638290    24A     -0.612580
      25A     -0.610269    26A     -0.582112    27A     -0.548864
      28A     -0.543328    29A     -0.524929    30A     -0.501860
      31A     -0.478356    32A     -0.356612    33A     -0.337597

  @DF-RHF Final Energy:  -443.52584460363391

   => Energetics <=

    Nuclear Repulsion Energy =            432.4956923501399046
    One-Electron Energy =               -1464.3812588970017714
    Two-Electron Energy =                 588.3597219432278962
    Total Energy =                       -443.5258446036339137
  Basis Set: (AUG-CC-PVTZ AUX)
    Blend: AUG-CC-PVTZ-RI
    Molecular point group: c1

    Geometry (in Angstrom), charge = 0, multiplicity = 1:

       Center              X                  Y                   Z               Mass
    ------------   -----------------  -----------------  -----------------  -----------------
         F           -0.089697445063     2.191516851231    -0.000208715751    18.998403162730
         O            1.775033554937     0.340825851231    -0.000000715751    15.994914619570
         C            0.483712554937    -0.102635148769     0.000016284249    12.000000000000
         C           -0.358692345063     0.758185751231    -0.000081515751    12.000000000000
         C            0.065977554937    -1.436505148769     0.000130284249    12.000000000000
         C           -1.850266445063     0.607249851231    -0.000098715751    12.000000000000
         C           -1.301063445063    -1.742874148769     0.000130284249    12.000000000000
         C           -2.257802445063    -0.731763148769     0.000017284249    12.000000000000
         C            2.786015554937    -0.664186148769     0.000148284249    12.000000000000
         H            0.792352554937    -2.242100148769     0.000217284249     1.007825032230
         H           -2.562525445063     1.427093851231    -0.000188715751     1.007825032230
         H           -1.608787445063    -2.785235148769     0.000220284249     1.007825032230
         H           -3.316698445063    -0.973915148769     0.000018284249     1.007825032230
         H            2.722215554937    -1.292366148769    -0.894888715751     1.007825032230
         H            2.722135554937    -1.292179148769     0.895312284249     1.007825032230
         H            3.729938554937    -0.120799148769     0.000133284249     1.007825032230

  Basis Set: AUG-CC-PVTZ
    Blend: AUG-CC-PVTZ
  Basis Set: (AUG-CC-PVTZ AUX)
    Blend: AUG-CC-PVTZ-JKFIT
	 Reference Energy          =    -443.5258446036339137 [Eh]
	 Singles Energy            =      -0.0000000000000000 [Eh]
	 Same-Spin Energy          =      -0.4381826064674781 [Eh]
	 Opposite-Spin Energy      =      -1.3526390435224063 [Eh]
	 Correlation Energy        =      -1.7908216499898844 [Eh]
	 Total Energy              =    -445.3166662536237936 [Eh]

	 ================> DF-SCS-MP2 Energies <==================
	-----------------------------------------------------------
	 SCS Same-Spin Scale       =       0.3333333333333333 [-]
	 SCS Opposite-Spin Scale   =       1.2000000000000000 [-]
	 SCS Same-Spin Energy      =      -0.1460608688224927 [Eh]
	 SCS Opposite-Spin Energy  =      -1.6231668522268874 [Eh]
	 SCS Correlation Energy    =      -1.7692277210493801 [Eh]
	 SCS Total Energy          =    -445.2950723246833036 [Eh]
	-----------------------------------------------------------

  Dipole Moment: [D]
     X:     0.1908      Y:    -3.2316      Z:     0.0003     Total:     3.2372

*** Psi4 exiting successfully. Buy a developer a beer!
