                               Psi4 1.4a3.dev225

  ==> Input File <==

--------------------------------------------------------------------------
#psi4
#
memory 32 gb

molecule  {
0 1
  F       -0.0963580     2.2498010    -0.0002150
  O        1.7683730     0.3991100    -0.0000070
  C        0.4770520    -0.0443510     0.0000100
  C       -0.5052370     0.9594120    -0.0001040
  C        0.0593170    -1.3782210     0.0001240
  C       -1.8569270     0.6655340    -0.0001050
  C       -1.3077240    -1.6845900     0.0001240
  C       -2.2644630    -0.6734790     0.0000110
  C        2.7793550    -0.6059020     0.0001420
  H        0.7856920    -2.1838160     0.0002110
  H       -2.5691860     1.4853780    -0.0001950
  H       -1.6154480    -2.7269510     0.0002140
  H       -3.3233590    -0.9156310     0.0000120
  H        2.7155550    -1.2340820    -0.8948950
  H        2.7125590    -1.2625615     0.9361683
  H        3.7232780    -0.0625150     0.0001270
units angstrom
no_reorient  #important for SAPT in psi4, default
symmetry c1  #important for SAPT in psi4, default
}

set PROPERTIES_ORIGIN ["COM"]
properties('MP2/aug-cc-pvtz', properties = ['dipole'])
--------------------------------------------------------------------------

    Molecular point group: c1
  Charge       = 0
  Multiplicity = 1
  Basis Set: AUG-CC-PVTZ
    Blend: AUG-CC-PVTZ
  Basis Set: (AUG-CC-PVTZ AUX)
    Blend: AUG-CC-PVTZ-JKFIT

    Orbital Energies [Eh]
    ---------------------

    Doubly Occupied:

       1A    -26.302321     2A    -20.595679     3A    -11.323511
       4A    -11.313273     5A    -11.296897     6A    -11.248638
       7A    -11.247689     8A    -11.246500     9A    -11.242480
      10A     -1.616298    11A     -1.415908    12A     -1.158352
      13A     -1.028972    14A     -1.026536    15A     -0.947214
      16A     -0.848730    17A     -0.830288    18A     -0.745353
      19A     -0.709420    20A     -0.704605    21A     -0.689168
      22A     -0.653100    23A     -0.641592    24A     -0.628870
      25A     -0.621350    26A     -0.581240    27A     -0.547692
      28A     -0.527402    29A     -0.519443    30A     -0.501733
      31A     -0.476590    32A     -0.348130    33A     -0.321057

  @DF-RHF Final Energy:  -443.58650944690186

   => Energetics <=

    Nuclear Repulsion Energy =            430.6510387299395575
    One-Electron Energy =               -1460.6630314643139172
    Two-Electron Energy =                 586.4254832874725025
    Total Energy =                       -443.5865094469019141
  Basis Set: (AUG-CC-PVTZ AUX)
    Blend: AUG-CC-PVTZ-RI
    Molecular point group: c1

    Geometry (in Angstrom), charge = 0, multiplicity = 1:

       Center              X                  Y                   Z               Mass
    ------------   -----------------  -----------------  -----------------  -----------------
         F           -0.076356917827     2.178137716780    -0.000533890435    18.998403162730
         O            1.788374082173     0.327446716780    -0.000325890435    15.994914619570
         C            0.497053082173    -0.116014283220    -0.000308890435    12.000000000000
         C           -0.485235917827     0.887748716780    -0.000422890435    12.000000000000
         C            0.079318082173    -1.449884283220    -0.000194890435    12.000000000000
         C           -1.836925917827     0.593870716780    -0.000423890435    12.000000000000
         C           -1.287722917827    -1.756253283220    -0.000194890435    12.000000000000
         C           -2.244461917827    -0.745142283220    -0.000307890435    12.000000000000
         C            2.799356082173    -0.677565283220    -0.000176890435    12.000000000000
         H            0.805693082173    -2.255479283220    -0.000107890435     1.007825032230
         H           -2.549184917827     1.413714716780    -0.000513890435     1.007825032230
         H           -1.595446917827    -2.798614283220    -0.000104890435     1.007825032230
         H           -3.303357917827    -0.987294283220    -0.000306890435     1.007825032230
         H            2.735556082173    -1.305745283220    -0.895213890435     1.007825032230
         H            2.732560082173    -1.334224783220     0.935849409565     1.007825032230
         H            3.743279082173    -0.134178283220    -0.000191890435     1.007825032230

  Basis Set: AUG-CC-PVTZ
    Blend: AUG-CC-PVTZ
  Basis Set: (AUG-CC-PVTZ AUX)
    Blend: AUG-CC-PVTZ-JKFIT
	 Reference Energy          =    -443.5865094469018572 [Eh]
	 Singles Energy            =      -0.0000000000000000 [Eh]
	 Same-Spin Energy          =      -0.4391012513466853 [Eh]
	 Opposite-Spin Energy      =      -1.3502598785416695 [Eh]
	 Correlation Energy        =      -1.7893611298883547 [Eh]
	 Total Energy              =    -445.3758705767901915 [Eh]

	 ================> DF-SCS-MP2 Energies <==================
	-----------------------------------------------------------
	 SCS Same-Spin Scale       =       0.3333333333333333 [-]
	 SCS Opposite-Spin Scale   =       1.2000000000000000 [-]
	 SCS Same-Spin Energy      =      -0.1463670837822284 [Eh]
	 SCS Opposite-Spin Energy  =      -1.6203118542500035 [Eh]
	 SCS Correlation Energy    =      -1.7666789380322319 [Eh]
	 SCS Total Energy          =    -445.3531883849340716 [Eh]
	-----------------------------------------------------------

  Dipole Moment: [D]
     X:     0.4632      Y:    -2.4747      Z:    -0.0243     Total:     2.5178

*** Psi4 exiting successfully. Buy a developer a beer!
