                               Psi4 1.4a3.dev225

  ==> Input File <==

--------------------------------------------------------------------------
#psi4
#
memory 32 gb

molecule  {
0 1
  F       -0.0963580     2.2498010    -0.0002150
  O        1.7683730     0.3991100    -0.0000070
  C        0.4770520    -0.0443510     0.0000100
  C       -0.5052370     0.9594120    -0.0001040
  C        0.0593170    -1.3782210     0.0001240
  C       -1.8569270     0.6655340    -0.0001050
  C       -1.2101445    -1.6627214     0.0001240
  C       -2.2644630    -0.6734790     0.0000110
  C        2.7793550    -0.6059020     0.0001420
  H        0.7856920    -2.1838160     0.0002110
  H       -2.5691860     1.4853780    -0.0001950
  H       -1.6154480    -2.7269510     0.0002140
  H       -3.3233590    -0.9156310     0.0000120
  H        2.7155550    -1.2340820    -0.8948950
  H        2.7154750    -1.2338950     0.8953060
  H        3.7232780    -0.0625150     0.0001270
units angstrom
no_reorient  #important for SAPT in psi4, default
symmetry c1  #important for SAPT in psi4, default
}

set PROPERTIES_ORIGIN ["COM"]
properties('MP2/aug-cc-pvtz', properties = ['dipole'])
--------------------------------------------------------------------------

    Molecular point group: c1
  Charge       = 0
  Multiplicity = 1
  Basis Set: AUG-CC-PVTZ
    Blend: AUG-CC-PVTZ
  Basis Set: (AUG-CC-PVTZ AUX)
    Blend: AUG-CC-PVTZ-JKFIT

    Orbital Energies [Eh]
    ---------------------

    Doubly Occupied:

       1A    -26.300114     2A    -20.594717     3A    -11.319388
       4A    -11.312664     5A    -11.291497     6A    -11.248762
       7A    -11.246641     8A    -11.245658     9A    -11.237780
      10A     -1.614148    11A     -1.415456    12A     -1.164897
      13A     -1.041741    14A     -1.021879    15A     -0.946995
      16A     -0.841836    17A     -0.837677    18A     -0.746435
      19A     -0.709616    20A     -0.702462    21A     -0.688113
      22A     -0.656337    23A     -0.638102    24A     -0.631677
      25A     -0.622009    26A     -0.583170    27A     -0.545781
      28A     -0.533292    29A     -0.524403    30A     -0.487384
      31A     -0.479622    32A     -0.361626    33A     -0.311928

  @DF-RHF Final Energy:  -443.57499338490669

   => Energetics <=

    Nuclear Repulsion Energy =            432.0812693526298176
    One-Electron Energy =               -1463.5049065376833823
    Two-Electron Energy =                 587.8486438001468741
    Total Energy =                       -443.5749933849067475
  Basis Set: (AUG-CC-PVTZ AUX)
    Blend: AUG-CC-PVTZ-RI
    Molecular point group: c1

    Geometry (in Angstrom), charge = 0, multiplicity = 1:

       Center              X                  Y                   Z               Mass
    ------------   -----------------  -----------------  -----------------  -----------------
         F           -0.085669972787     2.175826582916    -0.000207173483    18.998403162730
         O            1.779061027213     0.325135582916     0.000000826517    15.994914619570
         C            0.487740027213    -0.118325417084     0.000017826517    12.000000000000
         C           -0.494548972787     0.885437582916    -0.000096173483    12.000000000000
         C            0.070005027213    -1.452195417084     0.000131826517    12.000000000000
         C           -1.846238972787     0.591559582916    -0.000097173483    12.000000000000
         C           -1.199456472787    -1.736695817084     0.000131826517    12.000000000000
         C           -2.253774972787    -0.747453417084     0.000018826517    12.000000000000
         C            2.790043027213    -0.679876417084     0.000149826517    12.000000000000
         H            0.796380027213    -2.257790417084     0.000218826517     1.007825032230
         H           -2.558497972787     1.411403582916    -0.000187173483     1.007825032230
         H           -1.604759972787    -2.800925417084     0.000221826517     1.007825032230
         H           -3.312670972787    -0.989605417084     0.000019826517     1.007825032230
         H            2.726243027213    -1.308056417084    -0.894887173483     1.007825032230
         H            2.726163027213    -1.307869417084     0.895313826517     1.007825032230
         H            3.733966027213    -0.136489417084     0.000134826517     1.007825032230

  Basis Set: AUG-CC-PVTZ
    Blend: AUG-CC-PVTZ
  Basis Set: (AUG-CC-PVTZ AUX)
    Blend: AUG-CC-PVTZ-JKFIT
	 Reference Energy          =    -443.5749933849066906 [Eh]
	 Singles Energy            =      -0.0000000000000000 [Eh]
	 Same-Spin Energy          =      -0.4392279575875477 [Eh]
	 Opposite-Spin Energy      =      -1.3503529884388872 [Eh]
	 Correlation Energy        =      -1.7895809460264349 [Eh]
	 Total Energy              =    -445.3645743309331237 [Eh]

	 ================> DF-SCS-MP2 Energies <==================
	-----------------------------------------------------------
	 SCS Same-Spin Scale       =       0.3333333333333333 [-]
	 SCS Opposite-Spin Scale   =       1.2000000000000000 [-]
	 SCS Same-Spin Energy      =      -0.1464093191958492 [Eh]
	 SCS Opposite-Spin Energy  =      -1.6204235861266645 [Eh]
	 SCS Correlation Energy    =      -1.7668329053225138 [Eh]
	 SCS Total Energy          =    -445.3418262902292213 [Eh]
	-----------------------------------------------------------

  Dipole Moment: [D]
     X:     0.4952      Y:    -2.5186      Z:     0.0003     Total:     2.5668

*** Psi4 exiting successfully. Buy a developer a beer!
