                               Psi4 1.4a3.dev225

  ==> Input File <==

--------------------------------------------------------------------------
#psi4
#
memory 32 gb

molecule  {
0 1
  F       -0.0963580     2.2498010    -0.0002150
  O        1.7683730     0.3991100    -0.0000070
  C        0.4770520    -0.0443510     0.0000100
  C       -0.6451211     1.1023541    -0.0001202
  C        0.0593170    -1.3782210     0.0001240
  C       -1.8569270     0.6655340    -0.0001050
  C       -1.3077240    -1.6845900     0.0001240
  C       -2.2644630    -0.6734790     0.0000110
  C        2.7793550    -0.6059020     0.0001420
  H        0.7856920    -2.1838160     0.0002110
  H       -2.5691860     1.4853780    -0.0001950
  H       -1.6154480    -2.7269510     0.0002140
  H       -3.3233590    -0.9156310     0.0000120
  H        2.7155550    -1.2340820    -0.8948950
  H        2.7154750    -1.2338950     0.8953060
  H        3.7232780    -0.0625150     0.0001270
units angstrom
no_reorient  #important for SAPT in psi4, default
symmetry c1  #important for SAPT in psi4, default
}

set PROPERTIES_ORIGIN ["COM"]
properties('MP2/aug-cc-pvtz', properties = ['dipole'])
--------------------------------------------------------------------------

    Molecular point group: c1
  Charge       = 0
  Multiplicity = 1
  Basis Set: AUG-CC-PVTZ
    Blend: AUG-CC-PVTZ
  Basis Set: (AUG-CC-PVTZ AUX)
    Blend: AUG-CC-PVTZ-JKFIT

    Orbital Energies [Eh]
    ---------------------

    Doubly Occupied:

       1A    -26.330315     2A    -20.597737     3A    -11.333167
       4A    -11.323258     5A    -11.290252     6A    -11.243053
       7A    -11.236718     8A    -11.235970     9A    -11.231503
      10A     -1.673380    11A     -1.414077    12A     -1.149783
      13A     -1.042640    14A     -1.004982    15A     -0.950425
      16A     -0.854386    17A     -0.830928    18A     -0.763668
      19A     -0.727793    20A     -0.725486    21A     -0.710009
      22A     -0.657199    23A     -0.642825    24A     -0.631282
      25A     -0.618268    26A     -0.570875    27A     -0.546932
      28A     -0.521903    29A     -0.514571    30A     -0.477859
      31A     -0.469945    32A     -0.362565    33A     -0.299017

  @DF-RHF Final Energy:  -443.54803938504858

   => Energetics <=

    Nuclear Repulsion Energy =            429.7167911693012456
    One-Electron Energy =               -1458.5641168204467704
    Two-Electron Energy =                 585.2992862660970559
    Total Energy =                       -443.5480393850485825
  Basis Set: (AUG-CC-PVTZ AUX)
    Blend: AUG-CC-PVTZ-RI
    Molecular point group: c1

    Geometry (in Angstrom), charge = 0, multiplicity = 1:

       Center              X                  Y                   Z               Mass
    ------------   -----------------  -----------------  -----------------  -----------------
         F           -0.063063020694     2.164300172913    -0.000205631214    18.998403162730
         O            1.801667979306     0.313609172913     0.000002368786    15.994914619570
         C            0.510346979306    -0.129851827087     0.000019368786    12.000000000000
         C           -0.611826120694     1.016853272913    -0.000110831214    12.000000000000
         C            0.092611979306    -1.463721827087     0.000133368786    12.000000000000
         C           -1.823632020694     0.580033172913    -0.000095631214    12.000000000000
         C           -1.274429020694    -1.770090827087     0.000133368786    12.000000000000
         C           -2.231168020694    -0.758979827087     0.000020368786    12.000000000000
         C            2.812649979306    -0.691402827087     0.000151368786    12.000000000000
         H            0.818986979306    -2.269316827087     0.000220368786     1.007825032230
         H           -2.535891020694     1.399877172913    -0.000185631214     1.007825032230
         H           -1.582153020694    -2.812451827087     0.000223368786     1.007825032230
         H           -3.290064020694    -1.001131827087     0.000021368786     1.007825032230
         H            2.748849979306    -1.319582827087    -0.894885631214     1.007825032230
         H            2.748769979306    -1.319395827087     0.895315368786     1.007825032230
         H            3.756572979306    -0.148015827087     0.000136368786     1.007825032230

  Basis Set: AUG-CC-PVTZ
    Blend: AUG-CC-PVTZ
  Basis Set: (AUG-CC-PVTZ AUX)
    Blend: AUG-CC-PVTZ-JKFIT
	 Reference Energy          =    -443.5480393850485825 [Eh]
	 Singles Energy            =      -0.0000000000000000 [Eh]
	 Same-Spin Energy          =      -0.4380867579756731 [Eh]
	 Opposite-Spin Energy      =      -1.3503055276163156 [Eh]
	 Correlation Energy        =      -1.7883922855919887 [Eh]
	 Total Energy              =    -445.3364316706405930 [Eh]

	 ================> DF-SCS-MP2 Energies <==================
	-----------------------------------------------------------
	 SCS Same-Spin Scale       =       0.3333333333333333 [-]
	 SCS Opposite-Spin Scale   =       1.2000000000000000 [-]
	 SCS Same-Spin Energy      =      -0.1460289193252244 [Eh]
	 SCS Opposite-Spin Energy  =      -1.6203666331395787 [Eh]
	 SCS Correlation Energy    =      -1.7663955524648032 [Eh]
	 SCS Total Energy          =    -445.3144349375133970 [Eh]
	-----------------------------------------------------------

  Dipole Moment: [D]
     X:     0.6377      Y:    -1.7770      Z:     0.0002     Total:     1.8880

*** Psi4 exiting successfully. Buy a developer a beer!
