                               Psi4 1.4a3.dev225

  ==> Input File <==

--------------------------------------------------------------------------
#psi4
#
memory 32 gb

molecule  {
0 1
  F       -0.0073410     2.2181357    -0.0002102
  O        1.7683730     0.3991100    -0.0000070
  C        0.4770520    -0.0443510     0.0000100
  C       -0.5052370     0.9594120    -0.0001040
  C        0.0593170    -1.3782210     0.0001240
  C       -1.8569270     0.6655340    -0.0001050
  C       -1.3077240    -1.6845900     0.0001240
  C       -2.2644630    -0.6734790     0.0000110
  C        2.7793550    -0.6059020     0.0001420
  H        0.7856920    -2.1838160     0.0002110
  H       -2.5691860     1.4853780    -0.0001950
  H       -1.6154480    -2.7269510     0.0002140
  H       -3.3233590    -0.9156310     0.0000120
  H        2.7155550    -1.2340820    -0.8948950
  H        2.7154750    -1.2338950     0.8953060
  H        3.7232780    -0.0625150     0.0001270
units angstrom
no_reorient  #important for SAPT in psi4, default
symmetry c1  #important for SAPT in psi4, default
}

set PROPERTIES_ORIGIN ["COM"]
properties('MP2/aug-cc-pvtz', properties = ['dipole'])
--------------------------------------------------------------------------

    Molecular point group: c1
  Charge       = 0
  Multiplicity = 1
  Basis Set: AUG-CC-PVTZ
    Blend: AUG-CC-PVTZ
  Basis Set: (AUG-CC-PVTZ AUX)
    Blend: AUG-CC-PVTZ-JKFIT

    Orbital Energies [Eh]
    ---------------------

    Doubly Occupied:

       1A    -26.301670     2A    -20.593915     3A    -11.323535
       4A    -11.311115     5A    -11.290407     6A    -11.250551
       7A    -11.247264     8A    -11.245932     9A    -11.242944
      10A     -1.616133    11A     -1.414371    12A     -1.158274
      13A     -1.029018    14A     -1.026582    15A     -0.950092
      16A     -0.849885    17A     -0.829549    18A     -0.745025
      19A     -0.710222    20A     -0.705473    21A     -0.689444
      22A     -0.654985    23A     -0.641320    24A     -0.626085
      25A     -0.621446    26A     -0.582223    27A     -0.548658
      28A     -0.529425    29A     -0.518835    30A     -0.500943
      31A     -0.477791    32A     -0.348719    33A     -0.320217

  @DF-RHF Final Energy:  -443.58719505570377

   => Energetics <=

    Nuclear Repulsion Energy =            431.5560438634419143
    One-Electron Energy =               -1462.4823811666258280
    Two-Electron Energy =                 587.3391422474802539
    Total Energy =                       -443.5871950557037735
  Basis Set: (AUG-CC-PVTZ AUX)
    Blend: AUG-CC-PVTZ-RI
    Molecular point group: c1

    Geometry (in Angstrom), charge = 0, multiplicity = 1:

       Center              X                  Y                   Z               Mass
    ------------   -----------------  -----------------  -----------------  -----------------
         F           -0.000780182028     2.151015915263    -0.000203096955    18.998403162730
         O            1.774933817972     0.331990215263     0.000000103045    15.994914619570
         C            0.483612817972    -0.111470784737     0.000017103045    12.000000000000
         C           -0.498676182028     0.892292215263    -0.000096896955    12.000000000000
         C            0.065877817972    -1.445340784737     0.000131103045    12.000000000000
         C           -1.850366182028     0.598414215263    -0.000097896955    12.000000000000
         C           -1.301163182028    -1.751709784737     0.000131103045    12.000000000000
         C           -2.257902182028    -0.740598784737     0.000018103045    12.000000000000
         C            2.785915817972    -0.673021784737     0.000149103045    12.000000000000
         H            0.792252817972    -2.250935784737     0.000218103045     1.007825032230
         H           -2.562625182028     1.418258215263    -0.000187896955     1.007825032230
         H           -1.608887182028    -2.794070784737     0.000221103045     1.007825032230
         H           -3.316798182028    -0.982750784737     0.000019103045     1.007825032230
         H            2.722115817972    -1.301201784737    -0.894887896955     1.007825032230
         H            2.722035817972    -1.301014784737     0.895313103045     1.007825032230
         H            3.729838817972    -0.129634784737     0.000134103045     1.007825032230

  Basis Set: AUG-CC-PVTZ
    Blend: AUG-CC-PVTZ
  Basis Set: (AUG-CC-PVTZ AUX)
    Blend: AUG-CC-PVTZ-JKFIT
	 Reference Energy          =    -443.5871950557037735 [Eh]
	 Singles Energy            =      -0.0000000000000000 [Eh]
	 Same-Spin Energy          =      -0.4391864808697031 [Eh]
	 Opposite-Spin Energy      =      -1.3500983106900977 [Eh]
	 Correlation Energy        =      -1.7892847915598007 [Eh]
	 Total Energy              =    -445.3764798472635675 [Eh]

	 ================> DF-SCS-MP2 Energies <==================
	-----------------------------------------------------------
	 SCS Same-Spin Scale       =       0.3333333333333333 [-]
	 SCS Opposite-Spin Scale   =       1.2000000000000000 [-]
	 SCS Same-Spin Energy      =      -0.1463954936232344 [Eh]
	 SCS Opposite-Spin Energy  =      -1.6201179728281172 [Eh]
	 SCS Correlation Energy    =      -1.7665134664513515 [Eh]
	 SCS Total Energy          =    -445.3537085221551024 [Eh]
	-----------------------------------------------------------

  Dipole Moment: [D]
     X:     0.4090      Y:    -2.4496      Z:     0.0003     Total:     2.4835

*** Psi4 exiting successfully. Buy a developer a beer!
