                               Psi4 1.4a3.dev225

  ==> Input File <==

--------------------------------------------------------------------------
#psi4
#
memory 32 gb

molecule  {
0 1
  F       -0.0963580     2.2498010    -0.0002150
  O        1.8076533     0.2617009     0.0000068
  C        0.4770520    -0.0443510     0.0000100
  C       -0.5052370     0.9594120    -0.0001040
  C        0.0593170    -1.3782210     0.0001240
  C       -1.8569270     0.6655340    -0.0001050
  C       -1.3077240    -1.6845900     0.0001240
  C       -2.2644630    -0.6734790     0.0000110
  C        2.7793550    -0.6059020     0.0001420
  H        0.7856920    -2.1838160     0.0002110
  H       -2.5691860     1.4853780    -0.0001950
  H       -1.6154480    -2.7269510     0.0002140
  H       -3.3233590    -0.9156310     0.0000120
  H        2.7155550    -1.2340820    -0.8948950
  H        2.7154750    -1.2338950     0.8953060
  H        3.7232780    -0.0625150     0.0001270
units angstrom
no_reorient  #important for SAPT in psi4, default
symmetry c1  #important for SAPT in psi4, default
}

set PROPERTIES_ORIGIN ["COM"]
properties('MP2/aug-cc-pvtz', properties = ['dipole'])
--------------------------------------------------------------------------

    Molecular point group: c1
  Charge       = 0
  Multiplicity = 1
  Basis Set: AUG-CC-PVTZ
    Blend: AUG-CC-PVTZ
  Basis Set: (AUG-CC-PVTZ AUX)
    Blend: AUG-CC-PVTZ-JKFIT

    Orbital Energies [Eh]
    ---------------------

    Doubly Occupied:

       1A    -26.305969     2A    -20.586534     3A    -11.330397
       4A    -11.319833     5A    -11.279227     6A    -11.252578
       7A    -11.248741     8A    -11.247322     9A    -11.245484
      10A     -1.619975    11A     -1.450245    12A     -1.164308
      13A     -1.043650    14A     -1.029281    15A     -0.948667
      16A     -0.854577    17A     -0.830958    18A     -0.754302
      19A     -0.717603    20A     -0.711913    21A     -0.696471
      22A     -0.675522    23A     -0.650970    24A     -0.647254
      25A     -0.622964    26A     -0.591521    27A     -0.545887
      28A     -0.524195    29A     -0.523584    30A     -0.482120
      31A     -0.467650    32A     -0.350168    33A     -0.324009

  @DF-RHF Final Energy:  -443.57865317504377

   => Energetics <=

    Nuclear Repulsion Energy =            432.1996275140287480
    One-Electron Energy =               -1463.4688002860427787
    Two-Electron Energy =                 587.6905195969701481
    Total Energy =                       -443.5786531750437689
  Basis Set: (AUG-CC-PVTZ AUX)
    Blend: AUG-CC-PVTZ-RI
    Molecular point group: c1

    Geometry (in Angstrom), charge = 0, multiplicity = 1:

       Center              X                  Y                   Z               Mass
    ------------   -----------------  -----------------  -----------------  -----------------
         F           -0.081364719591     2.195345085447    -0.000208924638    18.998403162730
         O            1.822646580409     0.207244985447     0.000012875362    15.994914619570
         C            0.492045280409    -0.098806914553     0.000016075362    12.000000000000
         C           -0.490243719591     0.904956085447    -0.000097924638    12.000000000000
         C            0.074310280409    -1.432676914553     0.000130075362    12.000000000000
         C           -1.841933719591     0.611078085447    -0.000098924638    12.000000000000
         C           -1.292730719591    -1.739045914553     0.000130075362    12.000000000000
         C           -2.249469719591    -0.727934914553     0.000017075362    12.000000000000
         C            2.794348280409    -0.660357914553     0.000148075362    12.000000000000
         H            0.800685280409    -2.238271914553     0.000217075362     1.007825032230
         H           -2.554192719591     1.430922085447    -0.000188924638     1.007825032230
         H           -1.600454719591    -2.781406914553     0.000220075362     1.007825032230
         H           -3.308365719591    -0.970086914553     0.000018075362     1.007825032230
         H            2.730548280409    -1.288537914553    -0.894888924638     1.007825032230
         H            2.730468280409    -1.288350914553     0.895312075362     1.007825032230
         H            3.738271280409    -0.116970914553     0.000133075362     1.007825032230

  Basis Set: AUG-CC-PVTZ
    Blend: AUG-CC-PVTZ
  Basis Set: (AUG-CC-PVTZ AUX)
    Blend: AUG-CC-PVTZ-JKFIT
	 Reference Energy          =    -443.5786531750437689 [Eh]
	 Singles Energy            =      -0.0000000000000000 [Eh]
	 Same-Spin Energy          =      -0.4384846496288609 [Eh]
	 Opposite-Spin Energy      =      -1.3467491474145610 [Eh]
	 Correlation Energy        =      -1.7852337970434218 [Eh]
	 Total Energy              =    -445.3638869720871867 [Eh]

	 ================> DF-SCS-MP2 Energies <==================
	-----------------------------------------------------------
	 SCS Same-Spin Scale       =       0.3333333333333333 [-]
	 SCS Opposite-Spin Scale   =       1.2000000000000000 [-]
	 SCS Same-Spin Energy      =      -0.1461615498762870 [Eh]
	 SCS Opposite-Spin Energy  =      -1.6160989768974732 [Eh]
	 SCS Correlation Energy    =      -1.7622605267737601 [Eh]
	 SCS Total Energy          =    -445.3409137018175556 [Eh]
	-----------------------------------------------------------

  Dipole Moment: [D]
     X:     0.0516      Y:    -2.1673      Z:     0.0002     Total:     2.1679

*** Psi4 exiting successfully. Buy a developer a beer!
