                               Psi4 1.4a3.dev225

  ==> Input File <==

--------------------------------------------------------------------------
#psi4
#
memory 32 gb

molecule  {
0 1
  F       -0.0963580     2.2498010    -0.0002150
  O        1.7521330     0.3815483     0.0436243
  C        0.4770520    -0.0443510     0.0000100
  C       -0.5052370     0.9594120    -0.0001040
  C        0.0593170    -1.3782210     0.0001240
  C       -1.8569270     0.6655340    -0.0001050
  C       -1.3077240    -1.6845900     0.0001240
  C       -2.2644630    -0.6734790     0.0000110
  C        2.7793550    -0.6059020     0.0001420
  H        0.7856920    -2.1838160     0.0002110
  H       -2.5691860     1.4853780    -0.0001950
  H       -1.6154480    -2.7269510     0.0002140
  H       -3.3233590    -0.9156310     0.0000120
  H        2.7155550    -1.2340820    -0.8948950
  H        2.7154750    -1.2338950     0.8953060
  H        3.7232780    -0.0625150     0.0001270
units angstrom
no_reorient  #important for SAPT in psi4, default
symmetry c1  #important for SAPT in psi4, default
}

set PROPERTIES_ORIGIN ["COM"]
properties('MP2/aug-cc-pvtz', properties = ['dipole'])
--------------------------------------------------------------------------

    Molecular point group: c1
  Charge       = 0
  Multiplicity = 1
  Basis Set: AUG-CC-PVTZ
    Blend: AUG-CC-PVTZ
  Basis Set: (AUG-CC-PVTZ AUX)
    Blend: AUG-CC-PVTZ-JKFIT

    Orbital Energies [Eh]
    ---------------------

    Doubly Occupied:

       1A    -26.301514     2A    -20.594691     3A    -11.321726
       4A    -11.312330     5A    -11.292947     6A    -11.247881
       7A    -11.246307     8A    -11.244781     9A    -11.240705
      10A     -1.615547    11A     -1.423219    12A     -1.157078
      13A     -1.029551    14A     -1.026168    15A     -0.952631
      16A     -0.849037    17A     -0.830009    18A     -0.745916
      19A     -0.710269    20A     -0.706887    21A     -0.689506
      22A     -0.658745    23A     -0.641779    24A     -0.630836
      25A     -0.620494    26A     -0.581048    27A     -0.548289
      28A     -0.532319    29A     -0.520132    30A     -0.500178
      31A     -0.477547    32A     -0.347107    33A     -0.318427

  @DF-RHF Final Energy:  -443.58929676638644

   => Energetics <=

    Nuclear Repulsion Energy =            431.4026235266476306
    One-Electron Energy =               -1462.1526429548468968
    Two-Electron Energy =                 587.1607226618127697
    Total Energy =                       -443.5892967663864965
  Basis Set: (AUG-CC-PVTZ AUX)
    Blend: AUG-CC-PVTZ-RI
    Molecular point group: c1

    Geometry (in Angstrom), charge = 0, multiplicity = 1:

       Center              X                  Y                   Z               Mass
    ------------   -----------------  -----------------  -----------------  -----------------
         F           -0.074319452685     2.180137009826    -0.005743781785    18.998403162730
         O            1.774171547315     0.311884309826     0.038095518215    15.994914619570
         C            0.499090547315    -0.114014990174    -0.005518781785    12.000000000000
         C           -0.483198452685     0.889748009826    -0.005632781785    12.000000000000
         C            0.081355547315    -1.447884990174    -0.005404781785    12.000000000000
         C           -1.834888452685     0.595870009826    -0.005633781785    12.000000000000
         C           -1.285685452685    -1.754253990174    -0.005404781785    12.000000000000
         C           -2.242424452685    -0.743142990174    -0.005517781785    12.000000000000
         C            2.801393547315    -0.675565990174    -0.005386781785    12.000000000000
         H            0.807730547315    -2.253479990174    -0.005317781785     1.007825032230
         H           -2.547147452685     1.415714009826    -0.005723781785     1.007825032230
         H           -1.593409452685    -2.796614990174    -0.005314781785     1.007825032230
         H           -3.301320452685    -0.985294990174    -0.005516781785     1.007825032230
         H            2.737593547315    -1.303745990174    -0.900423781785     1.007825032230
         H            2.737513547315    -1.303558990174     0.889777218215     1.007825032230
         H            3.745316547315    -0.132178990174    -0.005401781785     1.007825032230

  Basis Set: AUG-CC-PVTZ
    Blend: AUG-CC-PVTZ
  Basis Set: (AUG-CC-PVTZ AUX)
    Blend: AUG-CC-PVTZ-JKFIT
	 Reference Energy          =    -443.5892967663864397 [Eh]
	 Singles Energy            =      -0.0000000000000000 [Eh]
	 Same-Spin Energy          =      -0.4389213322107532 [Eh]
	 Opposite-Spin Energy      =      -1.3492645158338497 [Eh]
	 Correlation Energy        =      -1.7881858480446029 [Eh]
	 Total Energy              =    -445.3774826144310168 [Eh]

	 ================> DF-SCS-MP2 Energies <==================
	-----------------------------------------------------------
	 SCS Same-Spin Scale       =       0.3333333333333333 [-]
	 SCS Opposite-Spin Scale   =       1.2000000000000000 [-]
	 SCS Same-Spin Energy      =      -0.1463071107369177 [Eh]
	 SCS Opposite-Spin Energy  =      -1.6191174190006195 [Eh]
	 SCS Correlation Energy    =      -1.7654245297375373 [Eh]
	 SCS Total Energy          =    -445.3547212961239552 [Eh]
	-----------------------------------------------------------

  Dipole Moment: [D]
     X:     0.6281      Y:    -2.4612      Z:    -0.0490     Total:     2.5405

*** Psi4 exiting successfully. Buy a developer a beer!
