                               Psi4 1.4a3.dev225

  ==> Input File <==

--------------------------------------------------------------------------
#psi4
#
memory 32 gb

molecule  {
0 1
  F       -0.0963580     2.2498010    -0.0002150
  O        1.7683730     0.3991100    -0.0000070
  C        0.4770520    -0.0443510     0.0000100
  C       -0.5052370     0.9594120    -0.0001040
  C        0.0294308    -1.4736506     0.0001322
  C       -1.8569270     0.6655340    -0.0001050
  C       -1.3077240    -1.6845900     0.0001240
  C       -2.2644630    -0.6734790     0.0000110
  C        2.7793550    -0.6059020     0.0001420
  H        0.7856920    -2.1838160     0.0002110
  H       -2.5691860     1.4853780    -0.0001950
  H       -1.6154480    -2.7269510     0.0002140
  H       -3.3233590    -0.9156310     0.0000120
  H        2.7155550    -1.2340820    -0.8948950
  H        2.7154750    -1.2338950     0.8953060
  H        3.7232780    -0.0625150     0.0001270
units angstrom
no_reorient  #important for SAPT in psi4, default
symmetry c1  #important for SAPT in psi4, default
}

set PROPERTIES_ORIGIN ["COM"]
properties('MP2/aug-cc-pvtz', properties = ['dipole'])
--------------------------------------------------------------------------

    Molecular point group: c1
  Charge       = 0
  Multiplicity = 1
  Basis Set: AUG-CC-PVTZ
    Blend: AUG-CC-PVTZ
  Basis Set: (AUG-CC-PVTZ AUX)
    Blend: AUG-CC-PVTZ-JKFIT

    Orbital Energies [Eh]
    ---------------------

    Doubly Occupied:

       1A    -26.300375     2A    -20.597414     3A    -11.321806
       4A    -11.319632     5A    -11.292780     6A    -11.250800
       7A    -11.249894     8A    -11.243153     9A    -11.241137
      10A     -1.614478    11A     -1.416084    12A     -1.154713
      13A     -1.034953    14A     -1.020953    15A     -0.949221
      16A     -0.847373    17A     -0.830537    18A     -0.745807
      19A     -0.710961    20A     -0.702224    21A     -0.687930
      22A     -0.656556    23A     -0.645354    24A     -0.631012
      25A     -0.623567    26A     -0.584569    27A     -0.546374
      28A     -0.528070    29A     -0.527713    30A     -0.491260
      31A     -0.479917    32A     -0.353178    33A     -0.312341

  @DF-RHF Final Energy:  -443.57663557614791

   => Energetics <=

    Nuclear Repulsion Energy =            429.4764771059126360
    One-Electron Energy =               -1458.2819528361399080
    Two-Electron Energy =                 585.2288401540794212
    Total Energy =                       -443.5766355761478508
  Basis Set: (AUG-CC-PVTZ AUX)
    Blend: AUG-CC-PVTZ-RI
    Molecular point group: c1

    Geometry (in Angstrom), charge = 0, multiplicity = 1:

       Center              X                  Y                   Z               Mass
    ------------   -----------------  -----------------  -----------------  -----------------
         F           -0.073535014110     2.186993577722    -0.000207954137    18.998403162730
         O            1.791195985890     0.336302577722     0.000000045863    15.994914619570
         C            0.499874985890    -0.107158422278     0.000017045863    12.000000000000
         C           -0.482414014110     0.896604577722    -0.000096954137    12.000000000000
         C            0.052253785890    -1.536458022278     0.000139245863    12.000000000000
         C           -1.834104014110     0.602726577722    -0.000097954137    12.000000000000
         C           -1.284901014110    -1.747397422278     0.000131045863    12.000000000000
         C           -2.241640014110    -0.736286422278     0.000018045863    12.000000000000
         C            2.802177985890    -0.668709422278     0.000149045863    12.000000000000
         H            0.808514985890    -2.246623422278     0.000218045863     1.007825032230
         H           -2.546363014110     1.422570577722    -0.000187954137     1.007825032230
         H           -1.592625014110    -2.789758422278     0.000221045863     1.007825032230
         H           -3.300536014110    -0.978438422278     0.000019045863     1.007825032230
         H            2.738377985890    -1.296889422278    -0.894887954137     1.007825032230
         H            2.738297985890    -1.296702422278     0.895313045863     1.007825032230
         H            3.746100985890    -0.125322422278     0.000134045863     1.007825032230

  Basis Set: AUG-CC-PVTZ
    Blend: AUG-CC-PVTZ
  Basis Set: (AUG-CC-PVTZ AUX)
    Blend: AUG-CC-PVTZ-JKFIT
	 Reference Energy          =    -443.5766355761479076 [Eh]
	 Singles Energy            =      -0.0000000000000000 [Eh]
	 Same-Spin Energy          =      -0.4391269295178517 [Eh]
	 Opposite-Spin Energy      =      -1.3507150491262836 [Eh]
	 Correlation Energy        =      -1.7898419786441353 [Eh]
	 Total Energy              =    -445.3664775547920271 [Eh]

	 ================> DF-SCS-MP2 Energies <==================
	-----------------------------------------------------------
	 SCS Same-Spin Scale       =       0.3333333333333333 [-]
	 SCS Opposite-Spin Scale   =       1.2000000000000000 [-]
	 SCS Same-Spin Energy      =      -0.1463756431726172 [Eh]
	 SCS Opposite-Spin Energy  =      -1.6208580589515402 [Eh]
	 SCS Correlation Energy    =      -1.7672337021241575 [Eh]
	 SCS Total Energy          =    -445.3438692782720523 [Eh]
	-----------------------------------------------------------

  Dipole Moment: [D]
     X:     0.5761      Y:    -2.4957      Z:     0.0003     Total:     2.5614

*** Psi4 exiting successfully. Buy a developer a beer!
