                               Psi4 1.4a3.dev225

  ==> Input File <==

--------------------------------------------------------------------------
#psi4
#
memory 32 gb

molecule  {
0 1
  F       -0.0963580     2.2498010    -0.0002150
  O        1.7858447     0.4154473    -0.0436381
  C        0.4770520    -0.0443510     0.0000100
  C       -0.5052370     0.9594120    -0.0001040
  C        0.0593170    -1.3782210     0.0001240
  C       -1.8569270     0.6655340    -0.0001050
  C       -1.3077240    -1.6845900     0.0001240
  C       -2.2644630    -0.6734790     0.0000110
  C        2.7793550    -0.6059020     0.0001420
  H        0.7856920    -2.1838160     0.0002110
  H       -2.5691860     1.4853780    -0.0001950
  H       -1.6154480    -2.7269510     0.0002140
  H       -3.3233590    -0.9156310     0.0000120
  H        2.7155550    -1.2340820    -0.8948950
  H        2.7154750    -1.2338950     0.8953060
  H        3.7232780    -0.0625150     0.0001270
units angstrom
no_reorient  #important for SAPT in psi4, default
symmetry c1  #important for SAPT in psi4, default
}

set PROPERTIES_ORIGIN ["COM"]
properties('MP2/aug-cc-pvtz', properties = ['dipole'])
--------------------------------------------------------------------------

    Molecular point group: c1
  Charge       = 0
  Multiplicity = 1
  Basis Set: AUG-CC-PVTZ
    Blend: AUG-CC-PVTZ
  Basis Set: (AUG-CC-PVTZ AUX)
    Blend: AUG-CC-PVTZ-JKFIT

    Orbital Energies [Eh]
    ---------------------

    Doubly Occupied:

       1A    -26.302819     2A    -20.594535     3A    -11.325022
       4A    -11.313980     5A    -11.288949     6A    -11.249575
       7A    -11.249333     8A    -11.247719     9A    -11.244104
      10A     -1.616727    11A     -1.407072    12A     -1.159530
      13A     -1.029557    14A     -1.026700    15A     -0.947893
      16A     -0.848854    17A     -0.832121    18A     -0.745218
      19A     -0.708687    20A     -0.703382    21A     -0.689135
      22A     -0.653528    23A     -0.642273    24A     -0.625959
      25A     -0.622215    26A     -0.581208    27A     -0.548102
      28A     -0.528475    29A     -0.518169    30A     -0.504360
      31A     -0.477204    32A     -0.349116    33A     -0.323450

  @DF-RHF Final Energy:  -443.58671183120600

   => Energetics <=

    Nuclear Repulsion Energy =            430.2586308563640500
    One-Electron Energy =               -1459.8807483741741180
    Two-Electron Energy =                 586.0354056866040082
    Total Energy =                       -443.5867118312060029
  Basis Set: (AUG-CC-PVTZ AUX)
    Blend: AUG-CC-PVTZ-RI
    Molecular point group: c1

    Geometry (in Angstrom), charge = 0, multiplicity = 1:

       Center              X                  Y                   Z               Mass
    ------------   -----------------  -----------------  -----------------  -----------------
         F           -0.078597310052     2.175835384964     0.005329409440    18.998403162730
         O            1.803605389948     0.341481684964    -0.038093690560    15.994914619570
         C            0.494812689948    -0.118316615036     0.005554409440    12.000000000000
         C           -0.487476310052     0.885446384964     0.005440409440    12.000000000000
         C            0.077077689948    -1.452186615036     0.005668409440    12.000000000000
         C           -1.839166310052     0.591568384964     0.005439409440    12.000000000000
         C           -1.289963310052    -1.758555615036     0.005668409440    12.000000000000
         C           -2.246702310052    -0.747444615036     0.005555409440    12.000000000000
         C            2.797115689948    -0.679867615036     0.005686409440    12.000000000000
         H            0.803452689948    -2.257781615036     0.005755409440     1.007825032230
         H           -2.551425310052     1.411412384964     0.005349409440     1.007825032230
         H           -1.597687310052    -2.800916615036     0.005758409440     1.007825032230
         H           -3.305598310052    -0.989596615036     0.005556409440     1.007825032230
         H            2.733315689948    -1.308047615036    -0.889350590560     1.007825032230
         H            2.733235689948    -1.307860615036     0.900850409440     1.007825032230
         H            3.741038689948    -0.136480615036     0.005671409440     1.007825032230

  Basis Set: AUG-CC-PVTZ
    Blend: AUG-CC-PVTZ
  Basis Set: (AUG-CC-PVTZ AUX)
    Blend: AUG-CC-PVTZ-JKFIT
	 Reference Energy          =    -443.5867118312060029 [Eh]
	 Singles Energy            =      -0.0000000000000000 [Eh]
	 Same-Spin Energy          =      -0.4391806494831222 [Eh]
	 Opposite-Spin Energy      =      -1.3505682380607824 [Eh]
	 Correlation Energy        =      -1.7897488875439045 [Eh]
	 Total Energy              =    -445.3764607187499109 [Eh]

	 ================> DF-SCS-MP2 Energies <==================
	-----------------------------------------------------------
	 SCS Same-Spin Scale       =       0.3333333333333333 [-]
	 SCS Opposite-Spin Scale   =       1.2000000000000000 [-]
	 SCS Same-Spin Energy      =      -0.1463935498277074 [Eh]
	 SCS Opposite-Spin Energy  =      -1.6206818856729388 [Eh]
	 SCS Correlation Energy    =      -1.7670754355006462 [Eh]
	 SCS Total Energy          =    -445.3537872667066608 [Eh]
	-----------------------------------------------------------

  Dipole Moment: [D]
     X:     0.3250      Y:    -2.5305      Z:     0.0515     Total:     2.5518

*** Psi4 exiting successfully. Buy a developer a beer!
