                               Psi4 1.4a3.dev225

  ==> Input File <==

--------------------------------------------------------------------------
#psi4
#
memory 32 gb

molecule  {
0 1
  F       -0.1189407     2.2567404    -0.0002161
  O        1.7683730     0.3991100    -0.0000070
  C        0.4770520    -0.0443510     0.0000100
  C       -0.5052370     0.9594120    -0.0001040
  C        0.0593170    -1.3782210     0.0001240
  C       -1.8569270     0.6655340    -0.0001050
  C       -1.3077240    -1.6845900     0.0001240
  C       -2.2644630    -0.6734790     0.0000110
  C        2.7793550    -0.6059020     0.0001420
  H        0.7856920    -2.1838160     0.0002110
  H       -2.5691860     1.4853780    -0.0001950
  H       -1.6154480    -2.7269510     0.0002140
  H       -3.3233590    -0.9156310     0.0000120
  H        2.7155550    -1.2340820    -0.8948950
  H        2.7154750    -1.2338950     0.8953060
  H        3.7232780    -0.0625150     0.0001270
units angstrom
no_reorient  #important for SAPT in psi4, default
symmetry c1  #important for SAPT in psi4, default
}

set PROPERTIES_ORIGIN ["COM"]
properties('MP2/aug-cc-pvtz', properties = ['dipole'])
--------------------------------------------------------------------------

    Molecular point group: c1
  Charge       = 0
  Multiplicity = 1
  Basis Set: AUG-CC-PVTZ
    Blend: AUG-CC-PVTZ
  Basis Set: (AUG-CC-PVTZ AUX)
    Blend: AUG-CC-PVTZ-JKFIT

    Orbital Energies [Eh]
    ---------------------

    Doubly Occupied:

       1A    -26.302210     2A    -20.594811     3A    -11.323246
       4A    -11.313645     5A    -11.291138     6A    -11.248075
       7A    -11.247778     8A    -11.246543     9A    -11.242166
      10A     -1.616145    11A     -1.415559    12A     -1.158243
      13A     -1.029179    14A     -1.026739    15A     -0.950532
      16A     -0.848648    17A     -0.831387    18A     -0.745573
      19A     -0.709214    20A     -0.705276    21A     -0.689248
      22A     -0.656559    23A     -0.642282    24A     -0.628930
      25A     -0.621237    26A     -0.580763    27A     -0.547989
      28A     -0.530558    29A     -0.519419    30A     -0.502616
      31A     -0.477641    32A     -0.347902    33A     -0.320993

  @DF-RHF Final Energy:  -443.58872689672870

   => Energetics <=

    Nuclear Repulsion Energy =            430.7046063160143490
    One-Electron Energy =               -1460.7621817909623587
    Two-Electron Energy =                 586.4688485782191947
    Total Energy =                       -443.5887268967287582
  Basis Set: (AUG-CC-PVTZ AUX)
    Blend: AUG-CC-PVTZ-RI
    Molecular point group: c1

    Geometry (in Angstrom), charge = 0, multiplicity = 1:

       Center              X                  Y                   Z               Mass
    ------------   -----------------  -----------------  -----------------  -----------------
         F           -0.095559190474     2.183801981779    -0.000208107687    18.998403162730
         O            1.791754509526     0.326171581779     0.000000992313    15.994914619570
         C            0.500433509526    -0.117289418221     0.000017992313    12.000000000000
         C           -0.481855490474     0.886473581779    -0.000096007687    12.000000000000
         C            0.082698509526    -1.451159418221     0.000131992313    12.000000000000
         C           -1.833545490474     0.592595581779    -0.000097007687    12.000000000000
         C           -1.284342490474    -1.757528418221     0.000131992313    12.000000000000
         C           -2.241081490474    -0.746417418221     0.000018992313    12.000000000000
         C            2.802736509526    -0.678840418221     0.000149992313    12.000000000000
         H            0.809073509526    -2.256754418221     0.000218992313     1.007825032230
         H           -2.545804490474     1.412439581779    -0.000187007687     1.007825032230
         H           -1.592066490474    -2.799889418221     0.000221992313     1.007825032230
         H           -3.299977490474    -0.988569418221     0.000019992313     1.007825032230
         H            2.738936509526    -1.307020418221    -0.894887007687     1.007825032230
         H            2.738856509526    -1.306833418221     0.895313992313     1.007825032230
         H            3.746659509526    -0.135453418221     0.000134992313     1.007825032230

  Basis Set: AUG-CC-PVTZ
    Blend: AUG-CC-PVTZ
  Basis Set: (AUG-CC-PVTZ AUX)
    Blend: AUG-CC-PVTZ-JKFIT
	 Reference Energy          =    -443.5887268967287014 [Eh]
	 Singles Energy            =      -0.0000000000000000 [Eh]
	 Same-Spin Energy          =      -0.4390082649997519 [Eh]
	 Opposite-Spin Energy      =      -1.3498330901766831 [Eh]
	 Correlation Energy        =      -1.7888413551764351 [Eh]
	 Total Energy              =    -445.3775682519051315 [Eh]

	 ================> DF-SCS-MP2 Energies <==================
	-----------------------------------------------------------
	 SCS Same-Spin Scale       =       0.3333333333333333 [-]
	 SCS Opposite-Spin Scale   =       1.2000000000000000 [-]
	 SCS Same-Spin Energy      =      -0.1463360883332506 [Eh]
	 SCS Opposite-Spin Energy  =      -1.6197997082120197 [Eh]
	 SCS Correlation Energy    =      -1.7661357965452702 [Eh]
	 SCS Total Energy          =    -445.3548626932739580 [Eh]
	-----------------------------------------------------------

  Dipole Moment: [D]
     X:     0.5016      Y:    -2.5054      Z:     0.0003     Total:     2.5551

*** Psi4 exiting successfully. Buy a developer a beer!
