                               Psi4 1.4a3.dev225

  ==> Input File <==

--------------------------------------------------------------------------
#psi4
#
memory 32 gb

molecule  {
0 1
  F       -0.0963580     2.2498010    -0.0002150
  O        1.7521098     0.4439063    -0.0000116
  C        0.4770520    -0.0443510     0.0000100
  C       -0.5052370     0.9594120    -0.0001040
  C        0.0593170    -1.3782210     0.0001240
  C       -1.8569270     0.6655340    -0.0001050
  C       -1.3077240    -1.6845900     0.0001240
  C       -2.2644630    -0.6734790     0.0000110
  C        2.7793550    -0.6059020     0.0001420
  H        0.7856920    -2.1838160     0.0002110
  H       -2.5691860     1.4853780    -0.0001950
  H       -1.6154480    -2.7269510     0.0002140
  H       -3.3233590    -0.9156310     0.0000120
  H        2.7155550    -1.2340820    -0.8948950
  H        2.7154750    -1.2338950     0.8953060
  H        3.7232780    -0.0625150     0.0001270
units angstrom
no_reorient  #important for SAPT in psi4, default
symmetry c1  #important for SAPT in psi4, default
}

set PROPERTIES_ORIGIN ["COM"]
properties('MP2/aug-cc-pvtz', properties = ['dipole'])
--------------------------------------------------------------------------

    Molecular point group: c1
  Charge       = 0
  Multiplicity = 1
  Basis Set: AUG-CC-PVTZ
    Blend: AUG-CC-PVTZ
  Basis Set: (AUG-CC-PVTZ AUX)
    Blend: AUG-CC-PVTZ-JKFIT

    Orbital Energies [Eh]
    ---------------------

    Doubly Occupied:

       1A    -26.300967     2A    -20.596787     3A    -11.321127
       4A    -11.311529     5A    -11.295283     6A    -11.247477
       7A    -11.247304     8A    -11.246152     9A    -11.241389
      10A     -1.614984    11A     -1.405927    12A     -1.156528
      13A     -1.026888    14A     -1.024063    15A     -0.951623
      16A     -0.847554    17A     -0.830617    18A     -0.743045
      19A     -0.707744    20A     -0.702381    21A     -0.687724
      22A     -0.650594    23A     -0.640008    24A     -0.622556
      25A     -0.620786    26A     -0.576399    27A     -0.549947
      28A     -0.533368    29A     -0.519670    30A     -0.504195
      31A     -0.479468    32A     -0.347464    33A     -0.319669

  @DF-RHF Final Energy:  -443.58478917498707

   => Energetics <=

    Nuclear Repulsion Energy =            430.5031792820204259
    One-Electron Energy =               -1460.4335033826721428
    Two-Electron Energy =                 586.3455349256646514
    Total Energy =                       -443.5847891749870087
  Basis Set: (AUG-CC-PVTZ AUX)
    Blend: AUG-CC-PVTZ-RI
    Molecular point group: c1

    Geometry (in Angstrom), charge = 0, multiplicity = 1:

       Center              X                  Y                   Z               Mass
    ------------   -----------------  -----------------  -----------------  -----------------
         F           -0.074316508714     2.172224070708    -0.000206589764    18.998403162730
         O            1.774151291286     0.366329370708    -0.000003189764    15.994914619570
         C            0.499093491286    -0.121927929292     0.000018410236    12.000000000000
         C           -0.483195508714     0.881835070708    -0.000095589764    12.000000000000
         C            0.081358491286    -1.455797929292     0.000132410236    12.000000000000
         C           -1.834885508714     0.587957070708    -0.000096589764    12.000000000000
         C           -1.285682508714    -1.762166929292     0.000132410236    12.000000000000
         C           -2.242421508714    -0.751055929292     0.000019410236    12.000000000000
         C            2.801396491286    -0.683478929292     0.000150410236    12.000000000000
         H            0.807733491286    -2.261392929292     0.000219410236     1.007825032230
         H           -2.547144508714     1.407801070708    -0.000186589764     1.007825032230
         H           -1.593406508714    -2.804527929292     0.000222410236     1.007825032230
         H           -3.301317508714    -0.993207929292     0.000020410236     1.007825032230
         H            2.737596491286    -1.311658929292    -0.894886589764     1.007825032230
         H            2.737516491286    -1.311471929292     0.895314410236     1.007825032230
         H            3.745319491286    -0.140091929292     0.000135410236     1.007825032230

  Basis Set: AUG-CC-PVTZ
    Blend: AUG-CC-PVTZ
  Basis Set: (AUG-CC-PVTZ AUX)
    Blend: AUG-CC-PVTZ-JKFIT
	 Reference Energy          =    -443.5847891749870655 [Eh]
	 Singles Energy            =      -0.0000000000000000 [Eh]
	 Same-Spin Energy          =      -0.4394541302151742 [Eh]
	 Opposite-Spin Energy      =      -1.3513883942107250 [Eh]
	 Correlation Energy        =      -1.7908425244258992 [Eh]
	 Total Energy              =    -445.3756316994129634 [Eh]

	 ================> DF-SCS-MP2 Energies <==================
	-----------------------------------------------------------
	 SCS Same-Spin Scale       =       0.3333333333333333 [-]
	 SCS Opposite-Spin Scale   =       1.2000000000000000 [-]
	 SCS Same-Spin Energy      =      -0.1464847100717247 [Eh]
	 SCS Opposite-Spin Energy  =      -1.6216660730528700 [Eh]
	 SCS Correlation Energy    =      -1.7681507831245948 [Eh]
	 SCS Total Energy          =    -445.3529399581116763 [Eh]
	-----------------------------------------------------------

  Dipole Moment: [D]
     X:     0.6071      Y:    -2.5851      Z:     0.0003     Total:     2.6554

*** Psi4 exiting successfully. Buy a developer a beer!
