                               Psi4 1.3.2 release

  ==> Input File <==

--------------------------------------------------------------------------
#psi4
#
memory 32 gb

molecule  {
0 1
  O       -0.8411900    -0.2286010    -0.2822800
  C        2.0174600     0.2824600    -0.5354820
  C       -2.0964812    -0.2746648     0.4048328
  C        1.3918360    -0.8685520     0.1861030
  C        2.7655740     1.2103670     0.4230210
  C        0.0229245    -1.0751235     0.3647286
  C       -3.0226980     0.6919650    -0.4518750
  H        2.7145670    -0.0909720    -1.2924960
  H        1.2438280     0.8410150    -1.0636660
  H       -2.5250500    -1.2529680     0.3825710
  H       -2.0263210     0.1331820     1.3936400
  H        2.0399100    -1.6071390     0.6510050
  H        3.2481390     2.0275410    -0.1185540
  H        2.0757450     1.6393580     1.1523020
  H        3.5397370     0.6653480     0.9697790
  H       -0.3482160    -1.8932280     0.8773390
  H       -4.0255760     0.7295450    -0.0161740
  H       -2.6128620     1.7059100    -0.4684560
  H       -3.0981720     0.3293290    -1.4847820
units angstrom
no_reorient  #important for SAPT in psi4, default
symmetry c1  #important for SAPT in psi4, default
}

set PROPERTIES_ORIGIN ["COM"]
properties('MP2/aug-cc-pvtz', properties = ['dipole'])
--------------------------------------------------------------------------

    Molecular point group: c1
  Charge       = 0
  Multiplicity = 1
  Basis Set: AUG-CC-PVTZ
    Blend: AUG-CC-PVTZ
  Basis Set: (AUG-CC-PVTZ AUX)
    Blend: AUG-CC-PVTZ-JKFIT

    Orbital Energies [Eh]
    ---------------------

    Doubly Occupied:

       1A    -20.577325     2A    -11.283433     3A    -11.280110
       4A    -11.222047     5A    -11.221704     6A    -11.216023
       7A    -11.207886     8A     -1.398701     9A     -1.066230
      10A     -1.014781    11A     -0.956894    12A     -0.853557
      13A     -0.851503    14A     -0.757388    15A     -0.692090
      16A     -0.663422    17A     -0.636530    18A     -0.598040
      19A     -0.557943    20A     -0.556397    21A     -0.541739
      22A     -0.523815    23A     -0.512130    24A     -0.491442
      25A     -0.483647    26A     -0.477035    27A     -0.467095
      28A     -0.314737

  @DF-RHF Final Energy:  -309.12463814213760

   => Energetics <=

    Nuclear Repulsion Energy =            301.3182554966542739
    One-Electron Energy =               -1016.0384982327365151
    Two-Electron Energy =                 405.5956045939446426
    Total Energy =                       -309.1246381421375986
  Basis Set: (AUG-CC-PVTZ AUX)
    Blend: AUG-CC-PVTZ-RI
    Molecular point group: c1

    Geometry (in Angstrom), charge = 0, multiplicity = 1:

       Center              X                  Y                   Z               Mass
    ------------   -----------------  -----------------  -----------------  -----------------
         O           -0.838353686151    -0.220539546619    -0.293980532751    15.994914619570
         C            2.020296313849     0.290521453381    -0.547182532751    12.000000000000
         C           -2.093644886151    -0.266603346619     0.393132267249    12.000000000000
         C            1.394672313849    -0.860490546619     0.174402467249    12.000000000000
         C            2.768410313849     1.218428453381     0.411320467249    12.000000000000
         C            0.025760813849    -1.067062046619     0.353028067249    12.000000000000
         C           -3.019861686151     0.700026453381    -0.463575532751    12.000000000000
         H            2.717403313849    -0.082910546619    -1.304196532751     1.007825032230
         H            1.246664313849     0.849076453381    -1.075366532751     1.007825032230
         H           -2.522213686151    -1.244906546619     0.370870467249     1.007825032230
         H           -2.023484686151     0.141243453381     1.381939467249     1.007825032230
         H            2.042746313849    -1.599077546619     0.639304467249     1.007825032230
         H            3.250975313849     2.035602453381    -0.130254532751     1.007825032230
         H            2.078581313849     1.647419453381     1.140601467249     1.007825032230
         H            3.542573313849     0.673409453381     0.958078467249     1.007825032230
         H           -0.345379686151    -1.885166546619     0.865638467249     1.007825032230
         H           -4.022739686151     0.737606453381    -0.027874532751     1.007825032230
         H           -2.610025686151     1.713971453381    -0.480156532751     1.007825032230
         H           -3.095335686151     0.337390453381    -1.496482532751     1.007825032230

  Basis Set: AUG-CC-PVTZ
    Blend: AUG-CC-PVTZ
  Basis Set: (AUG-CC-PVTZ AUX)
    Blend: AUG-CC-PVTZ-JKFIT
	 Reference Energy          =    -309.1246381421375986 [Eh]
	 Singles Energy            =      -0.0000000000000000 [Eh]
	 Same-Spin Energy          =      -0.3145818388939365 [Eh]
	 Opposite-Spin Energy      =      -1.1019930833949367 [Eh]
	 Correlation Energy        =      -1.4165749222888733 [Eh]
	 Total Energy              =    -310.5412130644264721 [Eh]

	 ================> DF-SCS-MP2 Energies <==================
	-----------------------------------------------------------
	 SCS Same-Spin Scale       =       0.3333333333333333 [-]
	 SCS Opposite-Spin Scale   =       1.2000000000000000 [-]
	 SCS Same-Spin Energy      =      -0.1048606129646455 [Eh]
	 SCS Opposite-Spin Energy  =      -1.3223917000739240 [Eh]
	 SCS Correlation Energy    =      -1.4272523130385695 [Eh]
	 SCS Total Energy          =    -310.5518904551761921 [Eh]
	-----------------------------------------------------------

  Dipole Moment: [D]
     X:    -1.0828      Y:    -0.2909      Z:     0.7696     Total:     1.3599

*** Psi4 exiting successfully. Buy a developer a beer!
