                               Psi4 1.3.2 release

  ==> Input File <==

--------------------------------------------------------------------------
#psi4
#
memory 32 gb

molecule  {
0 1
  O       -0.8411900    -0.2286010    -0.2822800
  C        1.9696702     0.3005203    -0.5462198
  C       -2.1232200    -0.2252560     0.3552070
  C        1.3918360    -0.8685520     0.1861030
  C        2.7655740     1.2103670     0.4230210
  C        0.0661219    -1.0180570     0.2924552
  C       -3.0226980     0.6919650    -0.4518750
  H        2.7145670    -0.0909720    -1.2924960
  H        1.2438280     0.8410150    -1.0636660
  H       -2.5250500    -1.2529680     0.3825710
  H       -2.0263210     0.1331820     1.3936400
  H        2.0399100    -1.6071390     0.6510050
  H        3.2481390     2.0275410    -0.1185540
  H        2.0757450     1.6393580     1.1523020
  H        3.5397370     0.6653480     0.9697790
  H       -0.3482160    -1.8932280     0.8773390
  H       -4.0255760     0.7295450    -0.0161740
  H       -2.6128620     1.7059100    -0.4684560
  H       -3.0981720     0.3293290    -1.4847820
units angstrom
no_reorient  #important for SAPT in psi4, default
symmetry c1  #important for SAPT in psi4, default
}

set PROPERTIES_ORIGIN ["COM"]
properties('MP2/aug-cc-pvtz', properties = ['dipole'])
--------------------------------------------------------------------------

    Molecular point group: c1
  Charge       = 0
  Multiplicity = 1
  Basis Set: AUG-CC-PVTZ
    Blend: AUG-CC-PVTZ
  Basis Set: (AUG-CC-PVTZ AUX)
    Blend: AUG-CC-PVTZ-JKFIT

    Orbital Energies [Eh]
    ---------------------

    Doubly Occupied:

       1A    -20.577536     2A    -11.290557     3A    -11.279187
       4A    -11.223657     5A    -11.211985     6A    -11.209350
       7A    -11.206435     8A     -1.411098     9A     -1.074739
      10A     -1.027693    11A     -0.962732    12A     -0.854812
      13A     -0.840910    14A     -0.758245    15A     -0.684338
      16A     -0.657386    17A     -0.650200    18A     -0.593778
      19A     -0.563376    20A     -0.558158    21A     -0.542121
      22A     -0.531700    23A     -0.506956    24A     -0.501632
      25A     -0.484524    26A     -0.472957    27A     -0.461543
      28A     -0.319878

  @DF-RHF Final Energy:  -309.13587842348693

   => Energetics <=

    Nuclear Repulsion Energy =            302.9887215476031770
    One-Electron Energy =               -1019.3342355462408477
    Two-Electron Energy =                 407.2096355751507417
    Total Energy =                       -309.1358784234869290
  Basis Set: (AUG-CC-PVTZ AUX)
    Blend: AUG-CC-PVTZ-RI
    Molecular point group: c1

    Geometry (in Angstrom), charge = 0, multiplicity = 1:

       Center              X                  Y                   Z               Mass
    ------------   -----------------  -----------------  -----------------  -----------------
         O           -0.834597278405    -0.235470557641    -0.278078216394    15.994914619570
         C            1.976262921595     0.293650742359    -0.542018016394    12.000000000000
         C           -2.116627278405    -0.232125557641     0.359408783606    12.000000000000
         C            1.398428721595    -0.875421557641     0.190304783606    12.000000000000
         C            2.772166721595     1.203497442359     0.427222783606    12.000000000000
         C            0.072714621595    -1.024926557641     0.296656983606    12.000000000000
         C           -3.016105278405     0.685095442359    -0.447673216394    12.000000000000
         H            2.721159721595    -0.097841557641    -1.288294216394     1.007825032230
         H            1.250420721595     0.834145442359    -1.059464216394     1.007825032230
         H           -2.518457278405    -1.259837557641     0.386772783606     1.007825032230
         H           -2.019728278405     0.126312442359     1.397841783606     1.007825032230
         H            2.046502721595    -1.614008557641     0.655206783606     1.007825032230
         H            3.254731721595     2.020671442359    -0.114352216394     1.007825032230
         H            2.082337721595     1.632488442359     1.156503783606     1.007825032230
         H            3.546329721595     0.658478442359     0.973980783606     1.007825032230
         H           -0.341623278405    -1.900097557641     0.881540783606     1.007825032230
         H           -4.018983278405     0.722675442359    -0.011972216394     1.007825032230
         H           -2.606269278405     1.699040442359    -0.464254216394     1.007825032230
         H           -3.091579278405     0.322459442359    -1.480580216394     1.007825032230

  Basis Set: AUG-CC-PVTZ
    Blend: AUG-CC-PVTZ
  Basis Set: (AUG-CC-PVTZ AUX)
    Blend: AUG-CC-PVTZ-JKFIT
	 Reference Energy          =    -309.1358784234869290 [Eh]
	 Singles Energy            =      -0.0000000000000000 [Eh]
	 Same-Spin Energy          =      -0.3139489437145966 [Eh]
	 Opposite-Spin Energy      =      -1.0987591166570529 [Eh]
	 Correlation Energy        =      -1.4127080603716495 [Eh]
	 Total Energy              =    -310.5485864838585712 [Eh]

	 ================> DF-SCS-MP2 Energies <==================
	-----------------------------------------------------------
	 SCS Same-Spin Scale       =       0.3333333333333333 [-]
	 SCS Opposite-Spin Scale   =       1.2000000000000000 [-]
	 SCS Same-Spin Energy      =      -0.1046496479048655 [Eh]
	 SCS Opposite-Spin Energy  =      -1.3185109399884636 [Eh]
	 SCS Correlation Energy    =      -1.4231605878933291 [Eh]
	 SCS Total Energy          =    -310.5590390113802641 [Eh]
	-----------------------------------------------------------

  Dipole Moment: [D]
     X:    -1.3333      Y:    -0.1005      Z:     0.6776     Total:     1.4990

*** Psi4 exiting successfully. Buy a developer a beer!
