                               Psi4 1.3.2 release

  ==> Input File <==

--------------------------------------------------------------------------
#psi4
#
memory 32 gb

molecule  {
0 1
  O       -0.8247972    -0.2601836    -0.2471883
  C        2.0174600     0.2824600    -0.5354820
  C       -2.1232200    -0.2252560     0.3552070
  C        1.3918360    -0.8685520     0.1861030
  C        2.7655740     1.2103670     0.4230210
  C        0.0733200    -1.0572940     0.3167640
  C       -3.0620678     0.6816373    -0.4179978
  H        2.7145670    -0.0909720    -1.2924960
  H        1.2438280     0.8410150    -1.0636660
  H       -2.5250500    -1.2529680     0.3825710
  H       -2.0263210     0.1331820     1.3936400
  H        2.0399100    -1.6071390     0.6510050
  H        3.2481390     2.0275410    -0.1185540
  H        2.0757450     1.6393580     1.1523020
  H        3.5397370     0.6653480     0.9697790
  H       -0.3482160    -1.8932280     0.8773390
  H       -4.0255760     0.7295450    -0.0161740
  H       -2.6128620     1.7059100    -0.4684560
  H       -3.0981720     0.3293290    -1.4847820
units angstrom
no_reorient  #important for SAPT in psi4, default
symmetry c1  #important for SAPT in psi4, default
}

set PROPERTIES_ORIGIN ["COM"]
properties('MP2/aug-cc-pvtz', properties = ['dipole'])
--------------------------------------------------------------------------

    Molecular point group: c1
  Charge       = 0
  Multiplicity = 1
  Basis Set: AUG-CC-PVTZ
    Blend: AUG-CC-PVTZ
  Basis Set: (AUG-CC-PVTZ AUX)
    Blend: AUG-CC-PVTZ-JKFIT

    Orbital Energies [Eh]
    ---------------------

    Doubly Occupied:

       1A    -20.573954     2A    -11.290846     3A    -11.276212
       4A    -11.225686     5A    -11.212774     6A    -11.207790
       7A    -11.205713     8A     -1.410740     9A     -1.074181
      10A     -1.029906    11A     -0.965809    12A     -0.857540
      13A     -0.840374    14A     -0.758238    15A     -0.688741
      16A     -0.657502    17A     -0.646154    18A     -0.597672
      19A     -0.571845    20A     -0.557885    21A     -0.546710
      22A     -0.531795    23A     -0.506683    24A     -0.498656
      25A     -0.476687    26A     -0.473290    27A     -0.461824
      28A     -0.319141

  @DF-RHF Final Energy:  -309.13746556352720

   => Energetics <=

    Nuclear Repulsion Energy =            302.5999399149202418
    One-Electron Energy =               -1018.5461119071023859
    Two-Electron Energy =                 406.8087064286549435
    Total Energy =                       -309.1374655635272006
  Basis Set: (AUG-CC-PVTZ AUX)
    Blend: AUG-CC-PVTZ-RI
    Molecular point group: c1

    Geometry (in Angstrom), charge = 0, multiplicity = 1:

       Center              X                  Y                   Z               Mass
    ------------   -----------------  -----------------  -----------------  -----------------
         O           -0.822696675024    -0.253898231285    -0.256857939942    15.994914619570
         C            2.019560524976     0.288745368715    -0.545151639942    12.000000000000
         C           -2.121119475024    -0.218970631285     0.345537360058    12.000000000000
         C            1.393936524976    -0.862266631285     0.176433360058    12.000000000000
         C            2.767674524976     1.216652368715     0.413351360058    12.000000000000
         C            0.075420524976    -1.051008631285     0.307094360058    12.000000000000
         C           -3.059967275024     0.687922668715    -0.427667439942    12.000000000000
         H            2.716667524976    -0.084686631285    -1.302165639942     1.007825032230
         H            1.245928524976     0.847300368715    -1.073335639942     1.007825032230
         H           -2.522949475024    -1.246682631285     0.372901360058     1.007825032230
         H           -2.024220475024     0.139467368715     1.383970360058     1.007825032230
         H            2.042010524976    -1.600853631285     0.641335360058     1.007825032230
         H            3.250239524976     2.033826368715    -0.128223639942     1.007825032230
         H            2.077845524976     1.645643368715     1.142632360058     1.007825032230
         H            3.541837524976     0.671633368715     0.960109360058     1.007825032230
         H           -0.346115475024    -1.886942631285     0.867669360058     1.007825032230
         H           -4.023475475024     0.735830368715    -0.025843639942     1.007825032230
         H           -2.610761475024     1.712195368715    -0.478125639942     1.007825032230
         H           -3.096071475024     0.335614368715    -1.494451639942     1.007825032230

  Basis Set: AUG-CC-PVTZ
    Blend: AUG-CC-PVTZ
  Basis Set: (AUG-CC-PVTZ AUX)
    Blend: AUG-CC-PVTZ-JKFIT
	 Reference Energy          =    -309.1374655635272006 [Eh]
	 Singles Energy            =      -0.0000000000000000 [Eh]
	 Same-Spin Energy          =      -0.3136905266747713 [Eh]
	 Opposite-Spin Energy      =      -1.0980502450495497 [Eh]
	 Correlation Energy        =      -1.4117407717243209 [Eh]
	 Total Energy              =    -310.5492063352515402 [Eh]

	 ================> DF-SCS-MP2 Energies <==================
	-----------------------------------------------------------
	 SCS Same-Spin Scale       =       0.3333333333333333 [-]
	 SCS Opposite-Spin Scale   =       1.2000000000000000 [-]
	 SCS Same-Spin Energy      =      -0.1045635088915904 [Eh]
	 SCS Opposite-Spin Energy  =      -1.3176602940594597 [Eh]
	 SCS Correlation Energy    =      -1.4222238029510501 [Eh]
	 SCS Total Energy          =    -310.5596893664782669 [Eh]
	-----------------------------------------------------------

  Dipole Moment: [D]
     X:    -1.4069      Y:    -0.0759      Z:     0.6513     Total:     1.5522

*** Psi4 exiting successfully. Buy a developer a beer!
