                               Psi4 1.4a3.dev225

  ==> Input File <==

--------------------------------------------------------------------------
#psi4
#
memory 32 gb

molecule  {
0 1
  O        0.9059480     0.1295110    -0.3069180
  C       -1.9753050    -0.3336000    -0.5537270
  C        2.0766603     0.1871827     0.4255315
  C       -1.3184330     0.9429980    -0.1246110
  C       -2.9908880    -0.8293550     0.4787900
  C        0.0027760     1.1130440     0.0171530
  C        3.0576820    -0.8509900    -0.1177330
  H       -2.4824890    -0.1840060    -1.5158280
  H       -1.2045440    -1.0918590    -0.7184600
  H        2.5525890     1.1965710     0.3749050
  H        1.9047370    -0.0062780     1.5110790
  H       -1.9523440     1.7996160     0.0958850
  H       -3.4787570    -1.7495600     0.1429400
  H       -2.4987140    -1.0317260     1.4340660
  H       -3.7695180    -0.0804100     0.6542360
  H        0.4396010     2.0570360     0.3475940
  H        4.0048870    -0.8497230     0.4289840
  H        2.6101410    -1.8440700    -0.0412770
  H        3.2577670    -0.6398860    -1.1701900
units angstrom
no_reorient  #important for SAPT in psi4, default
symmetry c1  #important for SAPT in psi4, default
}

set PROPERTIES_ORIGIN ["COM"]
properties('MP2/aug-cc-pvtz', properties = ['dipole'])
--------------------------------------------------------------------------

    Molecular point group: c1
  Charge       = 0
  Multiplicity = 1
  Basis Set: AUG-CC-PVTZ
    Blend: AUG-CC-PVTZ
  Basis Set: (AUG-CC-PVTZ AUX)
    Blend: AUG-CC-PVTZ-JKFIT

    Orbital Energies [Eh]
    ---------------------

    Doubly Occupied:

       1A    -20.576407     2A    -11.284058     3A    -11.281193
       4A    -11.218745     5A    -11.218045     6A    -11.217958
       7A    -11.210420     8A     -1.409985     9A     -1.076973
      10A     -1.022613    11A     -0.968652    12A     -0.853766
      13A     -0.839899    14A     -0.761143    15A     -0.689481
      16A     -0.656022    17A     -0.642788    18A     -0.602512
      19A     -0.565919    20A     -0.560711    21A     -0.540385
      22A     -0.532490    23A     -0.509247    24A     -0.493651
      25A     -0.481803    26A     -0.471081    27A     -0.457471
      28A     -0.330636

  @DF-RHF Final Energy:  -309.13977158913224

   => Energetics <=

    Nuclear Repulsion Energy =            301.9436592858971835
    One-Electron Energy =               -1017.2187596351441243
    Two-Electron Energy =                 406.1353287601147031
    Total Energy =                       -309.1397715891322378
  Basis Set: (AUG-CC-PVTZ AUX)
    Blend: AUG-CC-PVTZ-RI
    Molecular point group: c1

    Geometry (in Angstrom), charge = 0, multiplicity = 1:

       Center              X                  Y                   Z               Mass
    ------------   -----------------  -----------------  -----------------  -----------------
         O            0.904958885976     0.105736029733    -0.288451702125    15.994914619570
         C           -1.976294114024    -0.357374970267    -0.535260702125    12.000000000000
         C            2.075671185976     0.163407729733     0.443997797875    12.000000000000
         C           -1.319422114024     0.919223029733    -0.106144702125    12.000000000000
         C           -2.991877114024    -0.853129970267     0.497256297875    12.000000000000
         C            0.001786885976     1.089269029733     0.035619297875    12.000000000000
         C            3.056692885976    -0.874764970267    -0.099266702125    12.000000000000
         H           -2.483478114024    -0.207780970267    -1.497361702125     1.007825032230
         H           -1.205533114024    -1.115633970267    -0.699993702125     1.007825032230
         H            2.551599885976     1.172796029733     0.393371297875     1.007825032230
         H            1.903747885976    -0.030052970267     1.529545297875     1.007825032230
         H           -1.953333114024     1.775841029733     0.114351297875     1.007825032230
         H           -3.479746114024    -1.773334970267     0.161406297875     1.007825032230
         H           -2.499703114024    -1.055500970267     1.452532297875     1.007825032230
         H           -3.770507114024    -0.104184970267     0.672702297875     1.007825032230
         H            0.438611885976     2.033261029733     0.366060297875     1.007825032230
         H            4.003897885976    -0.873497970267     0.447450297875     1.007825032230
         H            2.609151885976    -1.867844970267    -0.022810702125     1.007825032230
         H            3.256777885976    -0.663660970267    -1.151723702125     1.007825032230

  Basis Set: AUG-CC-PVTZ
    Blend: AUG-CC-PVTZ
  Basis Set: (AUG-CC-PVTZ AUX)
    Blend: AUG-CC-PVTZ-JKFIT
	 Reference Energy          =    -309.1397715891322378 [Eh]
	 Singles Energy            =      -0.0000000000000000 [Eh]
	 Same-Spin Energy          =      -0.3136217668080995 [Eh]
	 Opposite-Spin Energy      =      -1.0984691648366023 [Eh]
	 Correlation Energy        =      -1.4120909316447019 [Eh]
	 Total Energy              =    -310.5518625207769219 [Eh]

	 ================> DF-SCS-MP2 Energies <==================
	-----------------------------------------------------------
	 SCS Same-Spin Scale       =       0.3333333333333333 [-]
	 SCS Opposite-Spin Scale   =       1.2000000000000000 [-]
	 SCS Same-Spin Energy      =      -0.1045405889360332 [Eh]
	 SCS Opposite-Spin Energy  =      -1.3181629978039227 [Eh]
	 SCS Correlation Energy    =      -1.4227035867399558 [Eh]
	 SCS Total Energy          =    -310.5624751758721800 [Eh]
	-----------------------------------------------------------

  Dipole Moment: [D]
     X:     0.7475      Y:     0.3151      Z:     0.6687     Total:     1.0513

*** Psi4 exiting successfully. Buy a developer a beer!
