                               Psi4 1.3.2 release

  ==> Input File <==

--------------------------------------------------------------------------
#psi4
#
memory 32 gb

molecule  {
0 1
  O       -0.8411900    -0.2286010    -0.2822800
  C        2.0174600     0.2824600    -0.5354820
  C       -1.9441384    -0.2257232     0.2661590
  C        1.3918360    -0.8685520     0.1861030
  C        2.7655740     1.2103670     0.4230210
  C        0.0733200    -1.0572940     0.3167640
  C       -3.0226980     0.6919650    -0.4518750
  H        2.7145670    -0.0909720    -1.2924960
  H        1.2438280     0.8410150    -1.0636660
  H       -2.5250500    -1.2529680     0.3825710
  H       -2.0263210     0.1331820     1.3936400
  H        2.0399100    -1.6071390     0.6510050
  H        3.2481390     2.0275410    -0.1185540
  H        2.0757450     1.6393580     1.1523020
  H        3.5397370     0.6653480     0.9697790
  H       -0.3482160    -1.8932280     0.8773390
  H       -4.0255760     0.7295450    -0.0161740
  H       -2.6128620     1.7059100    -0.4684560
  H       -3.0981720     0.3293290    -1.4847820
units angstrom
no_reorient  #important for SAPT in psi4, default
symmetry c1  #important for SAPT in psi4, default
}

set PROPERTIES_ORIGIN ["COM"]
properties('MP2/aug-cc-pvtz', properties = ['dipole'])
--------------------------------------------------------------------------

    Molecular point group: c1
  Charge       = 0
  Multiplicity = 1
  Basis Set: AUG-CC-PVTZ
    Blend: AUG-CC-PVTZ
  Basis Set: (AUG-CC-PVTZ AUX)
    Blend: AUG-CC-PVTZ-JKFIT

    Orbital Energies [Eh]
    ---------------------

    Doubly Occupied:

       1A    -20.591517     2A    -11.290675     3A    -11.290441
       4A    -11.228958     5A    -11.224094     6A    -11.215292
       7A    -11.214341     8A     -1.482940     9A     -1.090710
      10A     -1.018753    11A     -0.967313    12A     -0.868115
      13A     -0.839651    14A     -0.780441    15A     -0.702738
      16A     -0.674701    17A     -0.662555    18A     -0.614030
      19A     -0.574917    20A     -0.566382    21A     -0.545293
      22A     -0.539939    23A     -0.517540    24A     -0.488712
      25A     -0.484787    26A     -0.443248    27A     -0.426982
      28A     -0.338709

  @DF-RHF Final Energy:  -309.09820130473486

   => Energetics <=

    Nuclear Repulsion Energy =            305.3807830113846649
    One-Electron Energy =               -1023.5904233348340995
    Two-Electron Energy =                 409.1114390187145773
    Total Energy =                       -309.0982013047348573
  Basis Set: (AUG-CC-PVTZ AUX)
    Blend: AUG-CC-PVTZ-RI
    Molecular point group: c1

    Geometry (in Angstrom), charge = 0, multiplicity = 1:

       Center              X                  Y                   Z               Mass
    ------------   -----------------  -----------------  -----------------  -----------------
         O           -0.862660693881    -0.228544968603    -0.271603798648    15.994914619570
         C            1.995989306119     0.282516031397    -0.524805798648    12.000000000000
         C           -1.965609093881    -0.225667168603     0.276835201352    12.000000000000
         C            1.370365306119    -0.868495968603     0.196779201352    12.000000000000
         C            2.744103306119     1.210423031397     0.433697201352    12.000000000000
         C            0.051849306119    -1.057237968603     0.327440201352    12.000000000000
         C           -3.044168693881     0.692021031397    -0.441198798648    12.000000000000
         H            2.693096306119    -0.090915968603    -1.281819798648     1.007825032230
         H            1.222357306119     0.841071031397    -1.052989798648     1.007825032230
         H           -2.546520693881    -1.252911968603     0.393247201352     1.007825032230
         H           -2.047791693881     0.133238031397     1.404316201352     1.007825032230
         H            2.018439306119    -1.607082968603     0.661681201352     1.007825032230
         H            3.226668306119     2.027597031397    -0.107877798648     1.007825032230
         H            2.054274306119     1.639414031397     1.162978201352     1.007825032230
         H            3.518266306119     0.665404031397     0.980455201352     1.007825032230
         H           -0.369686693881    -1.893171968603     0.888015201352     1.007825032230
         H           -4.047046693881     0.729601031397    -0.005497798648     1.007825032230
         H           -2.634332693881     1.705966031397    -0.457779798648     1.007825032230
         H           -3.119642693881     0.329385031397    -1.474105798648     1.007825032230

  Basis Set: AUG-CC-PVTZ
    Blend: AUG-CC-PVTZ
  Basis Set: (AUG-CC-PVTZ AUX)
    Blend: AUG-CC-PVTZ-JKFIT
	 Reference Energy          =    -309.0982013047348573 [Eh]
	 Singles Energy            =      -0.0000000000000000 [Eh]
	 Same-Spin Energy          =      -0.3143191203716662 [Eh]
	 Opposite-Spin Energy      =      -1.0984555742743027 [Eh]
	 Correlation Energy        =      -1.4127746946459689 [Eh]
	 Total Energy              =    -310.5109759993808325 [Eh]

	 ================> DF-SCS-MP2 Energies <==================
	-----------------------------------------------------------
	 SCS Same-Spin Scale       =       0.3333333333333333 [-]
	 SCS Opposite-Spin Scale   =       1.2000000000000000 [-]
	 SCS Same-Spin Energy      =      -0.1047730401238887 [Eh]
	 SCS Opposite-Spin Energy  =      -1.3181466891291633 [Eh]
	 SCS Correlation Energy    =      -1.4229197292530520 [Eh]
	 SCS Total Energy          =    -310.5211210339879244 [Eh]
	-----------------------------------------------------------

  Dipole Moment: [D]
     X:     0.2104      Y:    -0.2692      Z:     0.3953     Total:     0.5225

*** Psi4 exiting successfully. Buy a developer a beer!
