                               Psi4 1.3.2 release

  ==> Input File <==

--------------------------------------------------------------------------
#psi4
#
memory 32 gb

molecule  {
0 1
  O       -0.8411900    -0.2286010    -0.2822800
  C        2.0055817     0.2871074    -0.5382494
  C       -2.1232200    -0.2252560     0.3552070
  C        1.3918360    -0.8685520     0.1861030
  C        2.7655740     1.2103670     0.4230210
  C        0.0713695    -1.0475044     0.3107006
  C       -3.0226980     0.6919650    -0.4518750
  H        2.7145670    -0.0909720    -1.2924960
  H        1.2438280     0.8410150    -1.0636660
  H       -2.5250500    -1.2529680     0.3825710
  H       -2.0263210     0.1331820     1.3936400
  H        2.0399100    -1.6071390     0.6510050
  H        3.2481390     2.0275410    -0.1185540
  H        2.0757450     1.6393580     1.1523020
  H        3.5397370     0.6653480     0.9697790
  H       -0.3482160    -1.8932280     0.8773390
  H       -4.0255760     0.7295450    -0.0161740
  H       -2.6128620     1.7059100    -0.4684560
  H       -3.0981720     0.3293290    -1.4847820
units angstrom
no_reorient  #important for SAPT in psi4, default
symmetry c1  #important for SAPT in psi4, default
}

set PROPERTIES_ORIGIN ["COM"]
properties('MP2/aug-cc-pvtz', properties = ['dipole'])
--------------------------------------------------------------------------

    Molecular point group: c1
  Charge       = 0
  Multiplicity = 1
  Basis Set: AUG-CC-PVTZ
    Blend: AUG-CC-PVTZ
  Basis Set: (AUG-CC-PVTZ AUX)
    Blend: AUG-CC-PVTZ-JKFIT

    Orbital Energies [Eh]
    ---------------------

    Doubly Occupied:

       1A    -20.573576     2A    -11.287437     3A    -11.278349
       4A    -11.221733     5A    -11.213965     6A    -11.212288
       7A    -11.207112     8A     -1.397575     9A     -1.074580
      10A     -1.025670    11A     -0.965760    12A     -0.851945
      13A     -0.841506    14A     -0.755191    15A     -0.683739
      16A     -0.655213    17A     -0.644364    18A     -0.596566
      19A     -0.561342    20A     -0.557132    21A     -0.542319
      22A     -0.528514    23A     -0.507497    24A     -0.502792
      25A     -0.477334    26A     -0.475852    27A     -0.464633
      28A     -0.324182

  @DF-RHF Final Energy:  -309.14079341571681

   => Energetics <=

    Nuclear Repulsion Energy =            302.3420363371879489
    One-Electron Energy =               -1018.1093282695258040
    Two-Electron Energy =                 406.6264985166210977
    Total Energy =                       -309.1407934157168143
  Basis Set: (AUG-CC-PVTZ AUX)
    Blend: AUG-CC-PVTZ-RI
    Molecular point group: c1

    Geometry (in Angstrom), charge = 0, multiplicity = 1:

       Center              X                  Y                   Z               Mass
    ------------   -----------------  -----------------  -----------------  -----------------
         O           -0.839531987642    -0.230331885553    -0.281221320845    15.994914619570
         C            2.007239712358     0.285376514447    -0.537190720845    12.000000000000
         C           -2.121561987642    -0.226986885553     0.356265679155    12.000000000000
         C            1.393494012358    -0.870282885553     0.187161679155    12.000000000000
         C            2.767232012358     1.208636114447     0.424079679155    12.000000000000
         C            0.073027512358    -1.049235285553     0.311759279155    12.000000000000
         C           -3.021039987642     0.690234114447    -0.450816320845    12.000000000000
         H            2.716225012358    -0.092702885553    -1.291437320845     1.007825032230
         H            1.245486012358     0.839284114447    -1.062607320845     1.007825032230
         H           -2.523391987642    -1.254698885553     0.383629679155     1.007825032230
         H           -2.024662987642     0.131451114447     1.394698679155     1.007825032230
         H            2.041568012358    -1.608869885553     0.652063679155     1.007825032230
         H            3.249797012358     2.025810114447    -0.117495320845     1.007825032230
         H            2.077403012358     1.637627114447     1.153360679155     1.007825032230
         H            3.541395012358     0.663617114447     0.970837679155     1.007825032230
         H           -0.346557987642    -1.894958885553     0.878397679155     1.007825032230
         H           -4.023917987642     0.727814114447    -0.015115320845     1.007825032230
         H           -2.611203987642     1.704179114447    -0.467397320845     1.007825032230
         H           -3.096513987642     0.327598114447    -1.483723320845     1.007825032230

  Basis Set: AUG-CC-PVTZ
    Blend: AUG-CC-PVTZ
  Basis Set: (AUG-CC-PVTZ AUX)
    Blend: AUG-CC-PVTZ-JKFIT
	 Reference Energy          =    -309.1407934157168143 [Eh]
	 Singles Energy            =      -0.0000000000000000 [Eh]
	 Same-Spin Energy          =      -0.3138281291428815 [Eh]
	 Opposite-Spin Energy      =      -1.0990199001242049 [Eh]
	 Correlation Energy        =      -1.4128480292670864 [Eh]
	 Total Energy              =    -310.5536414449838958 [Eh]

	 ================> DF-SCS-MP2 Energies <==================
	-----------------------------------------------------------
	 SCS Same-Spin Scale       =       0.3333333333333333 [-]
	 SCS Opposite-Spin Scale   =       1.2000000000000000 [-]
	 SCS Same-Spin Energy      =      -0.1046093763809605 [Eh]
	 SCS Opposite-Spin Energy  =      -1.3188238801490459 [Eh]
	 SCS Correlation Energy    =      -1.4234332565300065 [Eh]
	 SCS Total Energy          =    -310.5642266722468321 [Eh]
	-----------------------------------------------------------

  Dipole Moment: [D]
     X:    -1.1585      Y:    -0.1683      Z:     0.7134     Total:     1.3709

*** Psi4 exiting successfully. Buy a developer a beer!
