                               Psi4 1.3.2 release

  ==> Input File <==

--------------------------------------------------------------------------
#psi4
#
memory 32 gb

molecule  {
0 1
  O       -0.8411900    -0.2286010    -0.2822800
  C        2.0174600     0.2824600    -0.5354820
  C       -2.1232200    -0.2252560     0.3552070
  C        1.3918360    -0.8685520     0.1861030
  C        2.7655740     1.2103670     0.4230210
  C        0.0733200    -1.0572940     0.3167640
  C       -2.9634106     0.6315081    -0.3986777
  H        2.7145670    -0.0909720    -1.2924960
  H        1.2438280     0.8410150    -1.0636660
  H       -2.5250500    -1.2529680     0.3825710
  H       -2.0263210     0.1331820     1.3936400
  H        2.0399100    -1.6071390     0.6510050
  H        3.2481390     2.0275410    -0.1185540
  H        2.0757450     1.6393580     1.1523020
  H        3.5397370     0.6653480     0.9697790
  H       -0.3482160    -1.8932280     0.8773390
  H       -4.0255760     0.7295450    -0.0161740
  H       -2.6128620     1.7059100    -0.4684560
  H       -3.0981720     0.3293290    -1.4847820
units angstrom
no_reorient  #important for SAPT in psi4, default
symmetry c1  #important for SAPT in psi4, default
}

set PROPERTIES_ORIGIN ["COM"]
properties('MP2/aug-cc-pvtz', properties = ['dipole'])
--------------------------------------------------------------------------

    Molecular point group: c1
  Charge       = 0
  Multiplicity = 1
  Basis Set: AUG-CC-PVTZ
    Blend: AUG-CC-PVTZ
  Basis Set: (AUG-CC-PVTZ AUX)
    Blend: AUG-CC-PVTZ-JKFIT

    Orbital Energies [Eh]
    ---------------------

    Doubly Occupied:

       1A    -20.572484     2A    -11.282102     3A    -11.278247
       4A    -11.225863     5A    -11.214792     6A    -11.213506
       7A    -11.207406     8A     -1.395163     9A     -1.079817
      10A     -1.038709    11A     -0.968173    12A     -0.848533
      13A     -0.836505    14A     -0.756110    15A     -0.686855
      16A     -0.659014    17A     -0.645943    18A     -0.600259
      19A     -0.567363    20A     -0.557314    21A     -0.533294
      22A     -0.523910    23A     -0.507707    24A     -0.503540
      25A     -0.478616    26A     -0.470194    27A     -0.460602
      28A     -0.325913

  @DF-RHF Final Energy:  -309.12923962254871

   => Energetics <=

    Nuclear Repulsion Energy =            303.5644836421382138
    One-Electron Energy =               -1020.5115760270053897
    Two-Electron Energy =                 407.8178527623184095
    Total Energy =                       -309.1292396225487096
  Basis Set: (AUG-CC-PVTZ AUX)
    Blend: AUG-CC-PVTZ-RI
    Molecular point group: c1

    Geometry (in Angstrom), charge = 0, multiplicity = 1:

       Center              X                  Y                   Z               Mass
    ------------   -----------------  -----------------  -----------------  -----------------
         O           -0.848298145978    -0.221352592512    -0.288658087880    15.994914619570
         C            2.010351854022     0.289708407488    -0.541860087880    12.000000000000
         C           -2.130328145978    -0.218007592512     0.348828912120    12.000000000000
         C            1.384727854022    -0.861303592512     0.179724912120    12.000000000000
         C            2.758465854022     1.217615407488     0.416642912120    12.000000000000
         C            0.066211854022    -1.050045592512     0.310385912120    12.000000000000
         C           -2.970518745978     0.638756507488    -0.405055787880    12.000000000000
         H            2.707458854022    -0.083723592512    -1.298874087880     1.007825032230
         H            1.236719854022     0.848263407488    -1.070044087880     1.007825032230
         H           -2.532158145978    -1.245719592512     0.376192912120     1.007825032230
         H           -2.033429145978     0.140430407488     1.387261912120     1.007825032230
         H            2.032801854022    -1.599890592512     0.644626912120     1.007825032230
         H            3.241030854022     2.034789407488    -0.124932087880     1.007825032230
         H            2.068636854022     1.646606407488     1.145923912120     1.007825032230
         H            3.532628854022     0.672596407488     0.963400912120     1.007825032230
         H           -0.355324145978    -1.885979592512     0.870960912120     1.007825032230
         H           -4.032684145978     0.736793407488    -0.022552087880     1.007825032230
         H           -2.619970145978     1.713158407488    -0.474834087880     1.007825032230
         H           -3.105280145978     0.336577407488    -1.491160087880     1.007825032230

  Basis Set: AUG-CC-PVTZ
    Blend: AUG-CC-PVTZ
  Basis Set: (AUG-CC-PVTZ AUX)
    Blend: AUG-CC-PVTZ-JKFIT
	 Reference Energy          =    -309.1292396225487096 [Eh]
	 Singles Energy            =      -0.0000000000000000 [Eh]
	 Same-Spin Energy          =      -0.3147963378777574 [Eh]
	 Opposite-Spin Energy      =      -1.1002962456137055 [Eh]
	 Correlation Energy        =      -1.4150925834914629 [Eh]
	 Total Energy              =    -310.5443322060401670 [Eh]

	 ================> DF-SCS-MP2 Energies <==================
	-----------------------------------------------------------
	 SCS Same-Spin Scale       =       0.3333333333333333 [-]
	 SCS Opposite-Spin Scale   =       1.2000000000000000 [-]
	 SCS Same-Spin Energy      =      -0.1049321126259191 [Eh]
	 SCS Opposite-Spin Energy  =      -1.3203554947364466 [Eh]
	 SCS Correlation Energy    =      -1.4252876073623657 [Eh]
	 SCS Total Energy          =    -310.5545272299110593 [Eh]
	-----------------------------------------------------------

  Dipole Moment: [D]
     X:    -1.1346      Y:    -0.1753      Z:     0.7234     Total:     1.3570

*** Psi4 exiting successfully. Buy a developer a beer!
