                               Psi4 1.4a3.dev225

  ==> Input File <==

--------------------------------------------------------------------------
#psi4
#
memory 32 gb

molecule  {
0 1
  O        0.9059480     0.1295110    -0.3069180
  C       -1.9753050    -0.3336000    -0.5537270
  C        2.1190110     0.1892690     0.4520280
  C       -1.3184330     0.9429980    -0.1246110
  C       -2.9908880    -0.8293550     0.4787900
  C        0.0027760     1.1130440     0.0171530
  C        3.0576820    -0.8509900    -0.1177330
  H       -2.4824890    -0.1840060    -1.5158280
  H       -1.2045440    -1.0918590    -0.7184600
  H        2.5525890     1.1965710     0.3749050
  H        1.9047370    -0.0062780     1.5110790
  H       -1.9232184     1.7602579     0.0857541
  H       -3.4787570    -1.7495600     0.1429400
  H       -2.4987140    -1.0317260     1.4340660
  H       -3.7695180    -0.0804100     0.6542360
  H        0.4396010     2.0570360     0.3475940
  H        4.0048870    -0.8497230     0.4289840
  H        2.6101410    -1.8440700    -0.0412770
  H        3.2577670    -0.6398860    -1.1701900
units angstrom
no_reorient  #important for SAPT in psi4, default
symmetry c1  #important for SAPT in psi4, default
}

set PROPERTIES_ORIGIN ["COM"]
properties('MP2/aug-cc-pvtz', properties = ['dipole'])
--------------------------------------------------------------------------

    Molecular point group: c1
  Charge       = 0
  Multiplicity = 1
  Basis Set: AUG-CC-PVTZ
    Blend: AUG-CC-PVTZ
  Basis Set: (AUG-CC-PVTZ AUX)
    Blend: AUG-CC-PVTZ-JKFIT

    Orbital Energies [Eh]
    ---------------------

    Doubly Occupied:

       1A    -20.571501     2A    -11.284174     3A    -11.278092
       4A    -11.219393     5A    -11.215699     6A    -11.209054
       7A    -11.208863     8A     -1.391647     9A     -1.075057
      10A     -1.025899    11A     -0.968303    12A     -0.851598
      13A     -0.841323    14A     -0.759224    15A     -0.686148
      16A     -0.653158    17A     -0.641925    18A     -0.599217
      19A     -0.564886    20A     -0.561211    21A     -0.540523
      22A     -0.527686    23A     -0.507787    24A     -0.502041
      25A     -0.479333    26A     -0.475438    27A     -0.461501
      28A     -0.326949

  @DF-RHF Final Energy:  -309.14018583649084

   => Energetics <=

    Nuclear Repulsion Energy =            301.4538665937483870
    One-Electron Energy =               -1016.3328488755420267
    Two-Electron Energy =                 405.7387964453028530
    Total Energy =                       -309.1401858364908435
  Basis Set: (AUG-CC-PVTZ AUX)
    Blend: AUG-CC-PVTZ-RI
    Molecular point group: c1

    Geometry (in Angstrom), charge = 0, multiplicity = 1:

       Center              X                  Y                   Z               Mass
    ------------   -----------------  -----------------  -----------------  -----------------
         O            0.899588037008     0.105882204692    -0.291526449541    15.994914619570
         C           -1.981664962992    -0.357228795308    -0.538335449541    12.000000000000
         C            2.112651037008     0.165640204692     0.467419550459    12.000000000000
         C           -1.324792962992     0.919369204692    -0.109219449541    12.000000000000
         C           -2.997247962992    -0.852983795308     0.494181550459    12.000000000000
         C           -0.003583962992     1.089415204692     0.032544550459    12.000000000000
         C            3.051322037008    -0.874618795308    -0.102341449541    12.000000000000
         H           -2.488848962992    -0.207634795308    -1.500436449541     1.007825032230
         H           -1.210903962992    -1.115487795308    -0.703068449541     1.007825032230
         H            2.546229037008     1.172942204692     0.390296550459     1.007825032230
         H            1.898377037008    -0.029906795308     1.526470550459     1.007825032230
         H           -1.929578362992     1.736629104692     0.101145650459     1.007825032230
         H           -3.485116962992    -1.773188795308     0.158331550459     1.007825032230
         H           -2.505073962992    -1.055354795308     1.449457550459     1.007825032230
         H           -3.775877962992    -0.104038795308     0.669627550459     1.007825032230
         H            0.433241037008     2.033407204692     0.362985550459     1.007825032230
         H            3.998527037008    -0.873351795308     0.444375550459     1.007825032230
         H            2.603781037008    -1.867698795308    -0.025885449541     1.007825032230
         H            3.251407037008    -0.663514795308    -1.154798449541     1.007825032230

  Basis Set: AUG-CC-PVTZ
    Blend: AUG-CC-PVTZ
  Basis Set: (AUG-CC-PVTZ AUX)
    Blend: AUG-CC-PVTZ-JKFIT
	 Reference Energy          =    -309.1401858364908435 [Eh]
	 Singles Energy            =      -0.0000000000000000 [Eh]
	 Same-Spin Energy          =      -0.3136980320274099 [Eh]
	 Opposite-Spin Energy      =      -1.0988568113033712 [Eh]
	 Correlation Energy        =      -1.4125548433307811 [Eh]
	 Total Energy              =    -310.5527406798216248 [Eh]

	 ================> DF-SCS-MP2 Energies <==================
	-----------------------------------------------------------
	 SCS Same-Spin Scale       =       0.3333333333333333 [-]
	 SCS Opposite-Spin Scale   =       1.2000000000000000 [-]
	 SCS Same-Spin Energy      =      -0.1045660106758033 [Eh]
	 SCS Opposite-Spin Energy  =      -1.3186281735640455 [Eh]
	 SCS Correlation Energy    =      -1.4231941842398488 [Eh]
	 SCS Total Energy          =    -310.5633800207306763 [Eh]
	-----------------------------------------------------------

  Dipole Moment: [D]
     X:     1.0107      Y:     0.3096      Z:     0.7659     Total:     1.3053

*** Psi4 exiting successfully. Buy a developer a beer!
