                               Psi4 1.4a3.dev225

  ==> Input File <==

--------------------------------------------------------------------------
#psi4
#
memory 32 gb

molecule  {
0 1
  O        0.9059480     0.1295110    -0.3069180
  C       -1.9753050    -0.3336000    -0.5537270
  C        2.1359513     0.1901035     0.4626266
  C       -1.3184330     0.9429980    -0.1246110
  C       -2.9908880    -0.8293550     0.4787900
  C        0.0027760     1.1130440     0.0171530
  C        3.0576820    -0.8509900    -0.1177330
  H       -2.4824890    -0.1840060    -1.5158280
  H       -1.2045440    -1.0918590    -0.7184600
  H        2.5525890     1.1965710     0.3749050
  H        1.9047370    -0.0062780     1.5110790
  H       -1.9523440     1.7996160     0.0958850
  H       -3.4787570    -1.7495600     0.1429400
  H       -2.4987140    -1.0317260     1.4340660
  H       -3.7695180    -0.0804100     0.6542360
  H        0.4396010     2.0570360     0.3475940
  H        4.0048870    -0.8497230     0.4289840
  H        2.6101410    -1.8440700    -0.0412770
  H        3.2577670    -0.6398860    -1.1701900
units angstrom
no_reorient  #important for SAPT in psi4, default
symmetry c1  #important for SAPT in psi4, default
}

set PROPERTIES_ORIGIN ["COM"]
properties('MP2/aug-cc-pvtz', properties = ['dipole'])
--------------------------------------------------------------------------

    Molecular point group: c1
  Charge       = 0
  Multiplicity = 1
  Basis Set: AUG-CC-PVTZ
    Blend: AUG-CC-PVTZ
  Basis Set: (AUG-CC-PVTZ AUX)
    Blend: AUG-CC-PVTZ-JKFIT

    Orbital Energies [Eh]
    ---------------------

    Doubly Occupied:

       1A    -20.569901     2A    -11.284727     3A    -11.277353
       4A    -11.220201     5A    -11.215556     6A    -11.213744
       7A    -11.208350     8A     -1.385330     9A     -1.072952
      10A     -1.027462    11A     -0.966615    12A     -0.850969
      13A     -0.841777    14A     -0.752388    15A     -0.683610
      16A     -0.652110    17A     -0.638994    18A     -0.598146
      19A     -0.562746    20A     -0.558366    21A     -0.540579
      22A     -0.524286    23A     -0.507714    24A     -0.505159
      25A     -0.478861    26A     -0.476026    27A     -0.461560
      28A     -0.325848

  @DF-RHF Final Energy:  -309.14031725744746

   => Energetics <=

    Nuclear Repulsion Energy =            300.9186866600358030
    One-Electron Energy =               -1015.3153508594803043
    Two-Electron Energy =                 405.2563469419970943
    Total Energy =                       -309.1403172574474638
  Basis Set: (AUG-CC-PVTZ AUX)
    Blend: AUG-CC-PVTZ-RI
    Molecular point group: c1

    Geometry (in Angstrom), charge = 0, multiplicity = 1:

       Center              X                  Y                   Z               Mass
    ------------   -----------------  -----------------  -----------------  -----------------
         O            0.897850279485     0.105385844750    -0.292899164111    15.994914619570
         C           -1.983402720515    -0.357725155250    -0.539708164111    12.000000000000
         C            2.127853579485     0.165978344750     0.476645435889    12.000000000000
         C           -1.326530720515     0.918872844750    -0.110592164111    12.000000000000
         C           -2.998985720515    -0.853480155250     0.492808835889    12.000000000000
         C           -0.005321720515     1.088918844750     0.031171835889    12.000000000000
         C            3.049584279485    -0.875115155250    -0.103714164111    12.000000000000
         H           -2.490586720515    -0.208131155250    -1.501809164111     1.007825032230
         H           -1.212641720515    -1.115984155250    -0.704441164111     1.007825032230
         H            2.544491279485     1.172445844750     0.388923835889     1.007825032230
         H            1.896639279485    -0.030403155250     1.525097835889     1.007825032230
         H           -1.960441720515     1.775490844750     0.109903835889     1.007825032230
         H           -3.486854720515    -1.773685155250     0.156958835889     1.007825032230
         H           -2.506811720515    -1.055851155250     1.448084835889     1.007825032230
         H           -3.777615720515    -0.104535155250     0.668254835889     1.007825032230
         H            0.431503279485     2.032910844750     0.361612835889     1.007825032230
         H            3.996789279485    -0.873848155250     0.443002835889     1.007825032230
         H            2.602043279485    -1.868195155250    -0.027258164111     1.007825032230
         H            3.249669279485    -0.664011155250    -1.156171164111     1.007825032230

  Basis Set: AUG-CC-PVTZ
    Blend: AUG-CC-PVTZ
  Basis Set: (AUG-CC-PVTZ AUX)
    Blend: AUG-CC-PVTZ-JKFIT
	 Reference Energy          =    -309.1403172574474638 [Eh]
	 Singles Energy            =      -0.0000000000000000 [Eh]
	 Same-Spin Energy          =      -0.3138470317936254 [Eh]
	 Opposite-Spin Energy      =      -1.0994448809451698 [Eh]
	 Correlation Energy        =      -1.4132919127387953 [Eh]
	 Total Energy              =    -310.5536091701862347 [Eh]

	 ================> DF-SCS-MP2 Energies <==================
	-----------------------------------------------------------
	 SCS Same-Spin Scale       =       0.3333333333333333 [-]
	 SCS Opposite-Spin Scale   =       1.2000000000000000 [-]
	 SCS Same-Spin Energy      =      -0.1046156772645418 [Eh]
	 SCS Opposite-Spin Energy  =      -1.3193338571342037 [Eh]
	 SCS Correlation Energy    =      -1.4239495343987454 [Eh]
	 SCS Total Energy          =    -310.5642667918461939 [Eh]
	-----------------------------------------------------------

  Dipole Moment: [D]
     X:     1.1196      Y:     0.2793      Z:     0.7953     Total:     1.4015

*** Psi4 exiting successfully. Buy a developer a beer!
