                               Psi4 1.4a3.dev225

  ==> Input File <==

--------------------------------------------------------------------------
#psi4
#
memory 32 gb

molecule  {
0 1
  O        0.9059480     0.1295110    -0.3069180
  C       -1.9753050    -0.3336000    -0.5537270
  C        2.1190110     0.1892690     0.4520280
  C       -1.3184330     0.9429980    -0.1246110
  C       -2.9908880    -0.8293550     0.4787900
  C        0.0027760     1.1130440     0.0171530
  C        3.0700936    -0.8647448    -0.1252667
  H       -2.4824890    -0.1840060    -1.5158280
  H       -1.2045440    -1.0918590    -0.7184600
  H        2.5525890     1.1965710     0.3749050
  H        1.9047370    -0.0062780     1.5110790
  H       -1.9523440     1.7996160     0.0958850
  H       -3.4787570    -1.7495600     0.1429400
  H       -2.4987140    -1.0317260     1.4340660
  H       -3.7695180    -0.0804100     0.6542360
  H        0.4396010     2.0570360     0.3475940
  H        4.0048870    -0.8497230     0.4289840
  H        2.6101410    -1.8440700    -0.0412770
  H        3.2577670    -0.6398860    -1.1701900
units angstrom
no_reorient  #important for SAPT in psi4, default
symmetry c1  #important for SAPT in psi4, default
}

set PROPERTIES_ORIGIN ["COM"]
properties('MP2/aug-cc-pvtz', properties = ['dipole'])
--------------------------------------------------------------------------

    Molecular point group: c1
  Charge       = 0
  Multiplicity = 1
  Basis Set: AUG-CC-PVTZ
    Blend: AUG-CC-PVTZ
  Basis Set: (AUG-CC-PVTZ AUX)
    Blend: AUG-CC-PVTZ-JKFIT

    Orbital Energies [Eh]
    ---------------------

    Doubly Occupied:

       1A    -20.571770     2A    -11.285090     3A    -11.278422
       4A    -11.218915     5A    -11.216372     6A    -11.214988
       7A    -11.208924     8A     -1.391605     9A     -1.073376
      10A     -1.023560    11A     -0.967030    12A     -0.852304
      13A     -0.841834    14A     -0.754565    15A     -0.684646
      16A     -0.652314    17A     -0.639311    18A     -0.599002
      19A     -0.563971    20A     -0.558992    21A     -0.542587
      22A     -0.528234    23A     -0.508633    24A     -0.498615
      25A     -0.479659    26A     -0.474496    27A     -0.461527
      28A     -0.327176

  @DF-RHF Final Energy:  -309.14084252207789

   => Energetics <=

    Nuclear Repulsion Energy =            300.9294379493883866
    One-Electron Energy =               -1015.3047237290371640
    Two-Electron Energy =                 405.2344432575708311
    Total Energy =                       -309.1408425220778895
  Basis Set: (AUG-CC-PVTZ AUX)
    Blend: AUG-CC-PVTZ-RI
    Molecular point group: c1

    Geometry (in Angstrom), charge = 0, multiplicity = 1:

       Center              X                  Y                   Z               Mass
    ------------   -----------------  -----------------  -----------------  -----------------
         O            0.898393241254     0.107135007232    -0.290725218901    15.994914619570
         C           -1.982859758746    -0.355975992768    -0.537534218901    12.000000000000
         C            2.111456241254     0.166893007232     0.468220781099    12.000000000000
         C           -1.325987758746     0.920622007232    -0.108418218901    12.000000000000
         C           -2.998442758746    -0.851730992768     0.494982781099    12.000000000000
         C           -0.004778758746     1.090668007232     0.033345781099    12.000000000000
         C            3.062538841254    -0.887120792768    -0.109073918901    12.000000000000
         H           -2.490043758746    -0.206381992768    -1.499635218901     1.007825032230
         H           -1.212098758746    -1.114234992768    -0.702267218901     1.007825032230
         H            2.545034241254     1.174195007232     0.391097781099     1.007825032230
         H            1.897182241254    -0.028653992768     1.527271781099     1.007825032230
         H           -1.959898758746     1.777240007232     0.112077781099     1.007825032230
         H           -3.486311758746    -1.771935992768     0.159132781099     1.007825032230
         H           -2.506268758746    -1.054101992768     1.450258781099     1.007825032230
         H           -3.777072758746    -0.102785992768     0.670428781099     1.007825032230
         H            0.432046241254     2.034660007232     0.363786781099     1.007825032230
         H            3.997332241254    -0.872098992768     0.445176781099     1.007825032230
         H            2.602586241254    -1.866445992768    -0.025084218901     1.007825032230
         H            3.250212241254    -0.662261992768    -1.153997218901     1.007825032230

  Basis Set: AUG-CC-PVTZ
    Blend: AUG-CC-PVTZ
  Basis Set: (AUG-CC-PVTZ AUX)
    Blend: AUG-CC-PVTZ-JKFIT
	 Reference Energy          =    -309.1408425220778895 [Eh]
	 Singles Energy            =      -0.0000000000000000 [Eh]
	 Same-Spin Energy          =      -0.3136456574129698 [Eh]
	 Opposite-Spin Energy      =      -1.0990518101747568 [Eh]
	 Correlation Energy        =      -1.4126974675877266 [Eh]
	 Total Energy              =    -310.5535399896656372 [Eh]

	 ================> DF-SCS-MP2 Energies <==================
	-----------------------------------------------------------
	 SCS Same-Spin Scale       =       0.3333333333333333 [-]
	 SCS Opposite-Spin Scale   =       1.2000000000000000 [-]
	 SCS Same-Spin Energy      =      -0.1045485524709899 [Eh]
	 SCS Opposite-Spin Energy  =      -1.3188621722097083 [Eh]
	 SCS Correlation Energy    =      -1.4234107246806982 [Eh]
	 SCS Total Energy          =    -310.5642532467585966 [Eh]
	-----------------------------------------------------------

  Dipole Moment: [D]
     X:     1.0099      Y:     0.2940      Z:     0.7615     Total:     1.2986

*** Psi4 exiting successfully. Buy a developer a beer!
