                               Psi4 1.3.2 release

  ==> Input File <==

--------------------------------------------------------------------------
#psi4
#
memory 32 gb

molecule  {
0 1
  O       -0.8411900    -0.2286010    -0.2822800
  C        2.0174600     0.2824600    -0.5354820
  C       -2.1232200    -0.2252560     0.3552070
  C        1.3918360    -0.8685520     0.1861030
  C        2.7655740     1.2103670     0.4230210
  C        0.0733200    -1.0572940     0.3167640
  C       -3.1412729     0.8128789    -0.5582697
  H        2.7145670    -0.0909720    -1.2924960
  H        1.2438280     0.8410150    -1.0636660
  H       -2.5250500    -1.2529680     0.3825710
  H       -2.0263210     0.1331820     1.3936400
  H        2.0399100    -1.6071390     0.6510050
  H        3.2481390     2.0275410    -0.1185540
  H        2.0757450     1.6393580     1.1523020
  H        3.5397370     0.6653480     0.9697790
  H       -0.3482160    -1.8932280     0.8773390
  H       -4.0255760     0.7295450    -0.0161740
  H       -2.6128620     1.7059100    -0.4684560
  H       -3.0981720     0.3293290    -1.4847820
units angstrom
no_reorient  #important for SAPT in psi4, default
symmetry c1  #important for SAPT in psi4, default
}

set PROPERTIES_ORIGIN ["COM"]
properties('MP2/aug-cc-pvtz', properties = ['dipole'])
--------------------------------------------------------------------------

    Molecular point group: c1
  Charge       = 0
  Multiplicity = 1
  Basis Set: AUG-CC-PVTZ
    Blend: AUG-CC-PVTZ
  Basis Set: (AUG-CC-PVTZ AUX)
    Blend: AUG-CC-PVTZ-JKFIT

    Orbital Energies [Eh]
    ---------------------

    Doubly Occupied:

       1A    -20.572313     2A    -11.292113     3A    -11.278097
       4A    -11.220739     5A    -11.214737     6A    -11.213180
       7A    -11.207392     8A     -1.390958     9A     -1.071291
      10A     -1.006689    11A     -0.964601    12A     -0.860249
      13A     -0.843427    14A     -0.752540    15A     -0.679948
      16A     -0.649764    17A     -0.638916    18A     -0.596610
      19A     -0.579971    20A     -0.574150    21A     -0.549833
      22A     -0.532132    23A     -0.512759    24A     -0.481675
      25A     -0.478228    26A     -0.467799    27A     -0.440375
      28A     -0.325240

  @DF-RHF Final Energy:  -309.11290724279172

   => Energetics <=

    Nuclear Repulsion Energy =            299.5227392074794466
    One-Electron Energy =               -1012.4798405392026552
    Two-Electron Energy =                 403.8441940889314310
    Total Energy =                       -309.1129072427917208
  Basis Set: (AUG-CC-PVTZ AUX)
    Blend: AUG-CC-PVTZ-RI
    Molecular point group: c1

    Geometry (in Angstrom), charge = 0, multiplicity = 1:

       Center              X                  Y                   Z               Mass
    ------------   -----------------  -----------------  -----------------  -----------------
         O           -0.826973609367    -0.243097775527    -0.269524041785    15.994914619570
         C            2.031676390633     0.267963224473    -0.522726041785    12.000000000000
         C           -2.109003609367    -0.239752775527     0.367962958215    12.000000000000
         C            1.406052390633    -0.883048775527     0.198858958215    12.000000000000
         C            2.779790390633     1.195870224473     0.435776958215    12.000000000000
         C            0.087536390633    -1.071790775527     0.329519958215    12.000000000000
         C           -3.127056509367     0.798382124473    -0.545513741785    12.000000000000
         H            2.728783390633    -0.105468775527    -1.279740041785     1.007825032230
         H            1.258044390633     0.826518224473    -1.050910041785     1.007825032230
         H           -2.510833609367    -1.267464775527     0.395326958215     1.007825032230
         H           -2.012104609367     0.118685224473     1.406395958215     1.007825032230
         H            2.054126390633    -1.621635775527     0.663760958215     1.007825032230
         H            3.262355390633     2.013044224473    -0.105798041785     1.007825032230
         H            2.089961390633     1.624861224473     1.165057958215     1.007825032230
         H            3.553953390633     0.650851224473     0.982534958215     1.007825032230
         H           -0.333999609367    -1.907724775527     0.890094958215     1.007825032230
         H           -4.011359609367     0.715048224473    -0.003418041785     1.007825032230
         H           -2.598645609367     1.691413224473    -0.455700041785     1.007825032230
         H           -3.083955609367     0.314832224473    -1.472026041785     1.007825032230

  Basis Set: AUG-CC-PVTZ
    Blend: AUG-CC-PVTZ
  Basis Set: (AUG-CC-PVTZ AUX)
    Blend: AUG-CC-PVTZ-JKFIT
	 Reference Energy          =    -309.1129072427917208 [Eh]
	 Singles Energy            =      -0.0000000000000000 [Eh]
	 Same-Spin Energy          =      -0.3138791342703767 [Eh]
	 Opposite-Spin Energy      =      -1.1006860698097878 [Eh]
	 Correlation Energy        =      -1.4145652040801644 [Eh]
	 Total Energy              =    -310.5274724468719114 [Eh]

	 ================> DF-SCS-MP2 Energies <==================
	-----------------------------------------------------------
	 SCS Same-Spin Scale       =       0.3333333333333333 [-]
	 SCS Opposite-Spin Scale   =       1.2000000000000000 [-]
	 SCS Same-Spin Energy      =      -0.1046263780901256 [Eh]
	 SCS Opposite-Spin Energy  =      -1.3208232837717453 [Eh]
	 SCS Correlation Energy    =      -1.4254496618618708 [Eh]
	 SCS Total Energy          =    -310.5383569046535968 [Eh]
	-----------------------------------------------------------

  Dipole Moment: [D]
     X:    -1.0080      Y:    -0.2412      Z:     0.7549     Total:     1.2822

*** Psi4 exiting successfully. Buy a developer a beer!
