                               Psi4 1.3.2 release

  ==> Input File <==

--------------------------------------------------------------------------
#psi4
#
memory 32 gb

molecule  {
0 1
  O       -0.8411900    -0.2286010    -0.2822800
  C        2.0174600     0.2824600    -0.5354820
  C       -2.1232200    -0.2252560     0.3552070
  C        1.3871593    -0.8730384     0.1747738
  C        2.7689600     1.2181679     0.4127334
  C        0.0733200    -1.0572940     0.3167640
  C       -3.0226980     0.6919650    -0.4518750
  H        2.7145670    -0.0909720    -1.2924960
  H        1.2438280     0.8410150    -1.0636660
  H       -2.5250500    -1.2529680     0.3825710
  H       -2.0263210     0.1331820     1.3936400
  H        2.0399100    -1.6071390     0.6510050
  H        3.2481390     2.0275410    -0.1185540
  H        2.0757450     1.6393580     1.1523020
  H        3.5397370     0.6653480     0.9697790
  H       -0.3482160    -1.8932280     0.8773390
  H       -4.0255760     0.7295450    -0.0161740
  H       -2.6128620     1.7059100    -0.4684560
  H       -3.0981720     0.3293290    -1.4847820
units angstrom
no_reorient  #important for SAPT in psi4, default
symmetry c1  #important for SAPT in psi4, default
}

set PROPERTIES_ORIGIN ["COM"]
properties('MP2/aug-cc-pvtz', properties = ['dipole'])
--------------------------------------------------------------------------

    Molecular point group: c1
  Charge       = 0
  Multiplicity = 1
  Basis Set: AUG-CC-PVTZ
    Blend: AUG-CC-PVTZ
  Basis Set: (AUG-CC-PVTZ AUX)
    Blend: AUG-CC-PVTZ-JKFIT

    Orbital Energies [Eh]
    ---------------------

    Doubly Occupied:

       1A    -20.572088     2A    -11.286382     3A    -11.277797
       4A    -11.221071     5A    -11.214742     6A    -11.213341
       7A    -11.207690     8A     -1.393209     9A     -1.074910
      10A     -1.024944    11A     -0.967569    12A     -0.851725
      13A     -0.841633    14A     -0.753897    15A     -0.683836
      16A     -0.654431    17A     -0.642275    18A     -0.597563
      19A     -0.559708    20A     -0.557810    21A     -0.542964
      22A     -0.526930    23A     -0.509369    24A     -0.502073
      25A     -0.479073    26A     -0.472836    27A     -0.463657
      28A     -0.326524

  @DF-RHF Final Energy:  -309.14083836762086

   => Energetics <=

    Nuclear Repulsion Energy =            302.1234277365813909
    One-Electron Energy =               -1017.6884388241963961
    Two-Electron Energy =                 406.4241727199940897
    Total Energy =                       -309.1408383676208587
  Basis Set: (AUG-CC-PVTZ AUX)
    Blend: AUG-CC-PVTZ-RI
    Molecular point group: c1

    Geometry (in Angstrom), charge = 0, multiplicity = 1:

       Center              X                  Y                   Z               Mass
    ------------   -----------------  -----------------  -----------------  -----------------
         O           -0.841035224542    -0.228998369915    -0.279688362343    15.994914619570
         C            2.017614775458     0.282062630085    -0.532890362343    12.000000000000
         C           -2.123065224542    -0.225653369915     0.357798637657    12.000000000000
         C            1.387314075458    -0.873435769915     0.177365437657    12.000000000000
         C            2.769114775458     1.217770530085     0.415325037657    12.000000000000
         C            0.073474775458    -1.057691369915     0.319355637657    12.000000000000
         C           -3.022543224542     0.691567630085    -0.449283362343    12.000000000000
         H            2.714721775458    -0.091369369915    -1.289904362343     1.007825032230
         H            1.243982775458     0.840617630085    -1.061074362343     1.007825032230
         H           -2.524895224542    -1.253365369915     0.385162637657     1.007825032230
         H           -2.026166224542     0.132784630085     1.396231637657     1.007825032230
         H            2.040064775458    -1.607536369915     0.653596637657     1.007825032230
         H            3.248293775458     2.027143630085    -0.115962362343     1.007825032230
         H            2.075899775458     1.638960630085     1.154893637657     1.007825032230
         H            3.539891775458     0.664950630085     0.972370637657     1.007825032230
         H           -0.348061224542    -1.893625369915     0.879930637657     1.007825032230
         H           -4.025421224542     0.729147630085    -0.013582362343     1.007825032230
         H           -2.612707224542     1.705512630085    -0.465864362343     1.007825032230
         H           -3.098017224542     0.328931630085    -1.482190362343     1.007825032230

  Basis Set: AUG-CC-PVTZ
    Blend: AUG-CC-PVTZ
  Basis Set: (AUG-CC-PVTZ AUX)
    Blend: AUG-CC-PVTZ-JKFIT
	 Reference Energy          =    -309.1408383676208587 [Eh]
	 Singles Energy            =      -0.0000000000000000 [Eh]
	 Same-Spin Energy          =      -0.3137691921425046 [Eh]
	 Opposite-Spin Energy      =      -1.0990853068809745 [Eh]
	 Correlation Energy        =      -1.4128544990234793 [Eh]
	 Total Energy              =    -310.5536928666443259 [Eh]

	 ================> DF-SCS-MP2 Energies <==================
	-----------------------------------------------------------
	 SCS Same-Spin Scale       =       0.3333333333333333 [-]
	 SCS Opposite-Spin Scale   =       1.2000000000000000 [-]
	 SCS Same-Spin Energy      =      -0.1045897307141682 [Eh]
	 SCS Opposite-Spin Energy  =      -1.3189023682571694 [Eh]
	 SCS Correlation Energy    =      -1.4234920989713378 [Eh]
	 SCS Total Energy          =    -310.5643304665921960 [Eh]
	-----------------------------------------------------------

  Dipole Moment: [D]
     X:    -1.0988      Y:    -0.1771      Z:     0.7369     Total:     1.3348

*** Psi4 exiting successfully. Buy a developer a beer!
