                               Psi4 1.3.2 release

  ==> Input File <==

--------------------------------------------------------------------------
#psi4
#
memory 32 gb

molecule  {
0 1
  O       -0.8322377    -0.2219170    -0.2865807
  C        2.0174600     0.2824600    -0.5354820
  C       -2.1232200    -0.2252560     0.3552070
  C        1.3918360    -0.8685520     0.1861030
  C        2.7655740     1.2103670     0.4230210
  C        0.0733200    -1.0572940     0.3167640
  C       -3.0226980     0.6919650    -0.4518750
  H        2.7145670    -0.0909720    -1.2924960
  H        1.2438280     0.8410150    -1.0636660
  H       -2.5250500    -1.2529680     0.3825710
  H       -2.0263210     0.1331820     1.3936400
  H        2.0399100    -1.6071390     0.6510050
  H        3.2481390     2.0275410    -0.1185540
  H        2.0757450     1.6393580     1.1523020
  H        3.5397370     0.6653480     0.9697790
  H       -0.3394205    -1.8960960     0.8795953
  H       -4.0255760     0.7295450    -0.0161740
  H       -2.6128620     1.7059100    -0.4684560
  H       -3.0981720     0.3293290    -1.4847820
units angstrom
no_reorient  #important for SAPT in psi4, default
symmetry c1  #important for SAPT in psi4, default
}

set PROPERTIES_ORIGIN ["COM"]
properties('MP2/aug-cc-pvtz', properties = ['dipole'])
--------------------------------------------------------------------------

    Molecular point group: c1
  Charge       = 0
  Multiplicity = 1
  Basis Set: AUG-CC-PVTZ
    Blend: AUG-CC-PVTZ
  Basis Set: (AUG-CC-PVTZ AUX)
    Blend: AUG-CC-PVTZ-JKFIT

    Orbital Energies [Eh]
    ---------------------

    Doubly Occupied:

       1A    -20.572793     2A    -11.287415     3A    -11.277506
       4A    -11.221458     5A    -11.214223     6A    -11.212569
       7A    -11.207078     8A     -1.390774     9A     -1.073985
      10A     -1.025005    11A     -0.966548    12A     -0.850587
      13A     -0.841796    14A     -0.752992    15A     -0.683089
      16A     -0.653976    17A     -0.641407    18A     -0.597006
      19A     -0.560657    20A     -0.556477    21A     -0.542462
      22A     -0.525922    23A     -0.509290    24A     -0.502849
      25A     -0.478646    26A     -0.474088    27A     -0.464407
      28A     -0.325028

  @DF-RHF Final Energy:  -309.14031547459786

   => Energetics <=

    Nuclear Repulsion Energy =            302.0383073667828739
    One-Electron Energy =               -1017.5371835179329310
    Two-Electron Energy =                 406.3585606765522016
    Total Energy =                       -309.1403154745978554
  Basis Set: (AUG-CC-PVTZ AUX)
    Blend: AUG-CC-PVTZ-RI
    Molecular point group: c1

    Geometry (in Angstrom), charge = 0, multiplicity = 1:

       Center              X                  Y                   Z               Mass
    ------------   -----------------  -----------------  -----------------  -----------------
         O           -0.833756877813    -0.222956255495    -0.285916213007    15.994914619570
         C            2.015940822187     0.281420744505    -0.534817513007    12.000000000000
         C           -2.124739177813    -0.226295255495     0.355871486993    12.000000000000
         C            1.390316822187    -0.869591255495     0.186767486993    12.000000000000
         C            2.764054822187     1.209327744505     0.423685486993    12.000000000000
         C            0.071800822187    -1.058333255495     0.317428486993    12.000000000000
         C           -3.024217177813     0.690925744505    -0.451210513007    12.000000000000
         H            2.713047822187    -0.092011255495    -1.291831513007     1.007825032230
         H            1.242308822187     0.839975744505    -1.063001513007     1.007825032230
         H           -2.526569177813    -1.254007255495     0.383235486993     1.007825032230
         H           -2.027840177813     0.132142744505     1.394304486993     1.007825032230
         H            2.038390822187    -1.608178255495     0.651669486993     1.007825032230
         H            3.246619822187     2.026501744505    -0.117889513007     1.007825032230
         H            2.074225822187     1.638318744505     1.152966486993     1.007825032230
         H            3.538217822187     0.664308744505     0.970443486993     1.007825032230
         H           -0.340939677813    -1.897135255495     0.880259786993     1.007825032230
         H           -4.027095177813     0.728505744505    -0.015509513007     1.007825032230
         H           -2.614381177813     1.704870744505    -0.467791513007     1.007825032230
         H           -3.099691177813     0.328289744505    -1.484117513007     1.007825032230

  Basis Set: AUG-CC-PVTZ
    Blend: AUG-CC-PVTZ
  Basis Set: (AUG-CC-PVTZ AUX)
    Blend: AUG-CC-PVTZ-JKFIT
	 Reference Energy          =    -309.1403154745978554 [Eh]
	 Singles Energy            =      -0.0000000000000000 [Eh]
	 Same-Spin Energy          =      -0.3139072129578989 [Eh]
	 Opposite-Spin Energy      =      -1.0995142886896745 [Eh]
	 Correlation Energy        =      -1.4134215016475733 [Eh]
	 Total Energy              =    -310.5537369762454318 [Eh]

	 ================> DF-SCS-MP2 Energies <==================
	-----------------------------------------------------------
	 SCS Same-Spin Scale       =       0.3333333333333333 [-]
	 SCS Opposite-Spin Scale   =       1.2000000000000000 [-]
	 SCS Same-Spin Energy      =      -0.1046357376526330 [Eh]
	 SCS Opposite-Spin Energy  =      -1.3194171464276094 [Eh]
	 SCS Correlation Energy    =      -1.4240528840802424 [Eh]
	 SCS Total Energy          =    -310.5643683586781094 [Eh]
	-----------------------------------------------------------

  Dipole Moment: [D]
     X:    -1.1488      Y:    -0.2003      Z:     0.7389     Total:     1.3805

*** Psi4 exiting successfully. Buy a developer a beer!
