                               Psi4 1.3.2 release

  ==> Input File <==

--------------------------------------------------------------------------
#psi4
#
memory 32 gb

molecule  {
0 1
  O       -0.8411900    -0.2286010    -0.2822800
  C        2.0174600     0.2824600    -0.5354820
  C       -2.1232200    -0.2252560     0.3552070
  C        1.3734187    -0.8859685     0.1404652
  C        2.7787736     1.2411409     0.3814403
  C        0.0733200    -1.0572940     0.3167640
  C       -3.0226980     0.6919650    -0.4518750
  H        2.7145670    -0.0909720    -1.2924960
  H        1.2438280     0.8410150    -1.0636660
  H       -2.5250500    -1.2529680     0.3825710
  H       -2.0263210     0.1331820     1.3936400
  H        2.0399100    -1.6071390     0.6510050
  H        3.2481390     2.0275410    -0.1185540
  H        2.0757450     1.6393580     1.1523020
  H        3.5397370     0.6653480     0.9697790
  H       -0.3482160    -1.8932280     0.8773390
  H       -4.0255760     0.7295450    -0.0161740
  H       -2.6128620     1.7059100    -0.4684560
  H       -3.0981720     0.3293290    -1.4847820
units angstrom
no_reorient  #important for SAPT in psi4, default
symmetry c1  #important for SAPT in psi4, default
}

set PROPERTIES_ORIGIN ["COM"]
properties('MP2/aug-cc-pvtz', properties = ['dipole'])
--------------------------------------------------------------------------

    Molecular point group: c1
  Charge       = 0
  Multiplicity = 1
  Basis Set: AUG-CC-PVTZ
    Blend: AUG-CC-PVTZ
  Basis Set: (AUG-CC-PVTZ AUX)
    Blend: AUG-CC-PVTZ-JKFIT

    Orbital Energies [Eh]
    ---------------------

    Doubly Occupied:

       1A    -20.571713     2A    -11.286357     3A    -11.277073
       4A    -11.221050     5A    -11.214893     6A    -11.213594
       7A    -11.208998     8A     -1.393346     9A     -1.075735
      10A     -1.024812    11A     -0.969957    12A     -0.852953
      13A     -0.842197    14A     -0.752100    15A     -0.684281
      16A     -0.654551    17A     -0.641737    18A     -0.598167
      19A     -0.561707    20A     -0.556152    21A     -0.545069
      22A     -0.525275    23A     -0.510940    24A     -0.501918
      25A     -0.478437    26A     -0.471789    27A     -0.460111
      28A     -0.329086

  @DF-RHF Final Energy:  -309.13676429245390

   => Energetics <=

    Nuclear Repulsion Energy =            302.0993166720857630
    One-Electron Energy =               -1017.6241679064982009
    Two-Electron Energy =                 406.3880869419584769
    Total Energy =                       -309.1367642924539041
  Basis Set: (AUG-CC-PVTZ AUX)
    Blend: AUG-CC-PVTZ-RI
    Molecular point group: c1

    Geometry (in Angstrom), charge = 0, multiplicity = 1:

       Center              X                  Y                   Z               Mass
    ------------   -----------------  -----------------  -----------------  -----------------
         O           -0.840564402703    -0.230202448512    -0.271823143837    15.994914619570
         C            2.018085597297     0.280858551488    -0.525025143837    12.000000000000
         C           -2.122594402703    -0.226857448512     0.365663856163    12.000000000000
         C            1.374044297297    -0.887569948512     0.150922056163    12.000000000000
         C            2.779399197297     1.239539451488     0.391897156163    12.000000000000
         C            0.073945597297    -1.058895448512     0.327220856163    12.000000000000
         C           -3.022072402703     0.690363551488    -0.441418143837    12.000000000000
         H            2.715192597297    -0.092573448512    -1.282039143837     1.007825032230
         H            1.244453597297     0.839413551488    -1.053209143837     1.007825032230
         H           -2.524424402703    -1.254569448512     0.393027856163     1.007825032230
         H           -2.025695402703     0.131580551488     1.404096856163     1.007825032230
         H            2.040535597297    -1.608740448512     0.661461856163     1.007825032230
         H            3.248764597297     2.025939551488    -0.108097143837     1.007825032230
         H            2.076370597297     1.637756551488     1.162758856163     1.007825032230
         H            3.540362597297     0.663746551488     0.980235856163     1.007825032230
         H           -0.347590402703    -1.894829448512     0.887795856163     1.007825032230
         H           -4.024950402703     0.727943551488    -0.005717143837     1.007825032230
         H           -2.612236402703     1.704308551488    -0.457999143837     1.007825032230
         H           -3.097546402703     0.327727551488    -1.474325143837     1.007825032230

  Basis Set: AUG-CC-PVTZ
    Blend: AUG-CC-PVTZ
  Basis Set: (AUG-CC-PVTZ AUX)
    Blend: AUG-CC-PVTZ-JKFIT
	 Reference Energy          =    -309.1367642924539041 [Eh]
	 Singles Energy            =      -0.0000000000000000 [Eh]
	 Same-Spin Energy          =      -0.3137281492679885 [Eh]
	 Opposite-Spin Energy      =      -1.0990466048653555 [Eh]
	 Correlation Energy        =      -1.4127747541333440 [Eh]
	 Total Energy              =    -310.5495390465872561 [Eh]

	 ================> DF-SCS-MP2 Energies <==================
	-----------------------------------------------------------
	 SCS Same-Spin Scale       =       0.3333333333333333 [-]
	 SCS Opposite-Spin Scale   =       1.2000000000000000 [-]
	 SCS Same-Spin Energy      =      -0.1045760497559962 [Eh]
	 SCS Opposite-Spin Energy  =      -1.3188559258384267 [Eh]
	 SCS Correlation Energy    =      -1.4234319755944229 [Eh]
	 SCS Total Energy          =    -310.5601962680483439 [Eh]
	-----------------------------------------------------------

  Dipole Moment: [D]
     X:    -1.1063      Y:    -0.1441      Z:     0.7704     Total:     1.3558

*** Psi4 exiting successfully. Buy a developer a beer!
