                               Psi4 1.3.2 release

  ==> Input File <==

--------------------------------------------------------------------------
#psi4
#
memory 32 gb

molecule  {
0 1
  O       -0.8411900    -0.2286010    -0.2822800
  C        2.0174600     0.2824600    -0.5354820
  C       -2.1232200    -0.2252560     0.3552070
  C        1.3918360    -0.8685520     0.1861030
  C        2.7655740     1.2103670     0.4230210
  C        0.1718380    -1.0431914     0.3070012
  C       -3.0226980     0.6919650    -0.4518750
  H        2.7145670    -0.0909720    -1.2924960
  H        1.2438280     0.8410150    -1.0636660
  H       -2.5250500    -1.2529680     0.3825710
  H       -2.0263210     0.1331820     1.3936400
  H        2.0399100    -1.6071390     0.6510050
  H        3.2481390     2.0275410    -0.1185540
  H        2.0757450     1.6393580     1.1523020
  H        3.5397370     0.6653480     0.9697790
  H       -0.3482160    -1.8932280     0.8773390
  H       -4.0255760     0.7295450    -0.0161740
  H       -2.6128620     1.7059100    -0.4684560
  H       -3.0981720     0.3293290    -1.4847820
units angstrom
no_reorient  #important for SAPT in psi4, default
symmetry c1  #important for SAPT in psi4, default
}

set PROPERTIES_ORIGIN ["COM"]
properties('MP2/aug-cc-pvtz', properties = ['dipole'])
--------------------------------------------------------------------------

    Molecular point group: c1
  Charge       = 0
  Multiplicity = 1
  Basis Set: AUG-CC-PVTZ
    Blend: AUG-CC-PVTZ
  Basis Set: (AUG-CC-PVTZ AUX)
    Blend: AUG-CC-PVTZ-JKFIT

    Orbital Energies [Eh]
    ---------------------

    Doubly Occupied:

       1A    -20.561561     2A    -11.281849     3A    -11.271740
       4A    -11.218023     5A    -11.217406     6A    -11.209746
       7A    -11.203719     8A     -1.366957     9A     -1.093456
      10A     -1.019975    11A     -0.982487    12A     -0.848604
      13A     -0.837447    14A     -0.745870    15A     -0.677227
      16A     -0.645338    17A     -0.642335    18A     -0.597648
      19A     -0.564401    20A     -0.549905    21A     -0.537914
      22A     -0.528110    23A     -0.511907    24A     -0.497368
      25A     -0.481119    26A     -0.467818    27A     -0.451284
      28A     -0.353623

  @DF-RHF Final Energy:  -309.12562265332548

   => Energetics <=

    Nuclear Repulsion Energy =            302.4756299611320856
    One-Electron Energy =               -1018.4728277405179142
    Two-Electron Energy =                 406.8715751260603497
    Total Energy =                       -309.1256226533254790
  Basis Set: (AUG-CC-PVTZ AUX)
    Blend: AUG-CC-PVTZ-RI
    Molecular point group: c1

    Geometry (in Angstrom), charge = 0, multiplicity = 1:

       Center              X                  Y                   Z               Mass
    ------------   -----------------  -----------------  -----------------  -----------------
         O           -0.853001640569    -0.230291793161    -0.281109580088    15.994914619570
         C            2.005648359431     0.280769206839    -0.534311580088    12.000000000000
         C           -2.135031640569    -0.226946793161     0.356377419912    12.000000000000
         C            1.380024359431    -0.870242793161     0.187273419912    12.000000000000
         C            2.753762359431     1.208676206839     0.424191419912    12.000000000000
         C            0.160026359431    -1.044882193161     0.308171619912    12.000000000000
         C           -3.034509640569     0.690274206839    -0.450704580088    12.000000000000
         H            2.702755359431    -0.092662793161    -1.291325580088     1.007825032230
         H            1.232016359431     0.839324206839    -1.062495580088     1.007825032230
         H           -2.536861640569    -1.254658793161     0.383741419912     1.007825032230
         H           -2.038132640569     0.131491206839     1.394810419912     1.007825032230
         H            2.028098359431    -1.608829793161     0.652175419912     1.007825032230
         H            3.236327359431     2.025850206839    -0.117383580088     1.007825032230
         H            2.063933359431     1.637667206839     1.153472419912     1.007825032230
         H            3.527925359431     0.663657206839     0.970949419912     1.007825032230
         H           -0.360027640569    -1.894918793161     0.878509419912     1.007825032230
         H           -4.037387640569     0.727854206839    -0.015003580088     1.007825032230
         H           -2.624673640569     1.704219206839    -0.467285580088     1.007825032230
         H           -3.109983640569     0.327638206839    -1.483611580088     1.007825032230

  Basis Set: AUG-CC-PVTZ
    Blend: AUG-CC-PVTZ
  Basis Set: (AUG-CC-PVTZ AUX)
    Blend: AUG-CC-PVTZ-JKFIT
	 Reference Energy          =    -309.1256226533254790 [Eh]
	 Singles Energy            =      -0.0000000000000000 [Eh]
	 Same-Spin Energy          =      -0.3132361591179604 [Eh]
	 Opposite-Spin Energy      =      -1.0978813558881875 [Eh]
	 Correlation Energy        =      -1.4111175150061479 [Eh]
	 Total Energy              =    -310.5367401683316189 [Eh]

	 ================> DF-SCS-MP2 Energies <==================
	-----------------------------------------------------------
	 SCS Same-Spin Scale       =       0.3333333333333333 [-]
	 SCS Opposite-Spin Scale   =       1.2000000000000000 [-]
	 SCS Same-Spin Energy      =      -0.1044120530393201 [Eh]
	 SCS Opposite-Spin Energy  =      -1.3174576270658249 [Eh]
	 SCS Correlation Energy    =      -1.4218696801051451 [Eh]
	 SCS Total Energy          =    -310.5474923334306254 [Eh]
	-----------------------------------------------------------

  Dipole Moment: [D]
     X:    -0.6281      Y:    -0.2412      Z:     0.7806     Total:     1.0305

*** Psi4 exiting successfully. Buy a developer a beer!
