                               Psi4 1.4a3.dev225

  ==> Input File <==

--------------------------------------------------------------------------
#psi4
#
memory 32 gb

molecule  {
0 1
  O        0.9059480     0.1295110    -0.3069180
  C       -1.9753050    -0.3336000    -0.5537270
  C        2.1190110     0.1892690     0.4520280
  C       -1.3184330     0.9429980    -0.1246110
  C       -2.9908880    -0.8293550     0.4787900
  C        0.0027760     1.1130440     0.0171530
  C        3.0576820    -0.8509900    -0.1177330
  H       -2.4593898    -0.1908191    -1.4720101
  H       -1.2045440    -1.0918590    -0.7184600
  H        2.5525890     1.1965710     0.3749050
  H        1.9047370    -0.0062780     1.5110790
  H       -1.9523440     1.7996160     0.0958850
  H       -3.4787570    -1.7495600     0.1429400
  H       -2.4987140    -1.0317260     1.4340660
  H       -3.7695180    -0.0804100     0.6542360
  H        0.4396010     2.0570360     0.3475940
  H        4.0048870    -0.8497230     0.4289840
  H        2.6101410    -1.8440700    -0.0412770
  H        3.2577670    -0.6398860    -1.1701900
units angstrom
no_reorient  #important for SAPT in psi4, default
symmetry c1  #important for SAPT in psi4, default
}

set PROPERTIES_ORIGIN ["COM"]
properties('MP2/aug-cc-pvtz', properties = ['dipole'])
--------------------------------------------------------------------------

    Molecular point group: c1
  Charge       = 0
  Multiplicity = 1
  Basis Set: AUG-CC-PVTZ
    Blend: AUG-CC-PVTZ
  Basis Set: (AUG-CC-PVTZ AUX)
    Blend: AUG-CC-PVTZ-JKFIT

    Orbital Energies [Eh]
    ---------------------

    Doubly Occupied:

       1A    -20.571525     2A    -11.284160     3A    -11.278061
       4A    -11.219393     5A    -11.214683     6A    -11.209965
       7A    -11.208392     8A     -1.391658     9A     -1.074902
      10A     -1.026573    11A     -0.967423    12A     -0.852745
      13A     -0.842324    14A     -0.756409    15A     -0.685715
      16A     -0.652935    17A     -0.639812    18A     -0.603024
      19A     -0.563474    20A     -0.558845    21A     -0.540181
      22A     -0.526467    23A     -0.508958    24A     -0.501983
      25A     -0.482655    26A     -0.474193    27A     -0.461165
      28A     -0.327343

  @DF-RHF Final Energy:  -309.14013407416462

   => Energetics <=

    Nuclear Repulsion Energy =            301.4454846991163208
    One-Electron Energy =               -1016.3213148624570294
    Two-Electron Energy =                 405.7356960891760309
    Total Energy =                       -309.1401340741646209
  Basis Set: (AUG-CC-PVTZ AUX)
    Blend: AUG-CC-PVTZ-RI
    Molecular point group: c1

    Geometry (in Angstrom), charge = 0, multiplicity = 1:

       Center              X                  Y                   Z               Mass
    ------------   -----------------  -----------------  -----------------  -----------------
         O            0.899648718681     0.105554499087    -0.292069676585    15.994914619570
         C           -1.981604281319    -0.357556500913    -0.538878676585    12.000000000000
         C            2.112711718681     0.165312499087     0.466876323415    12.000000000000
         C           -1.324732281319     0.919041499087    -0.109762676585    12.000000000000
         C           -2.997187281319    -0.853311500913     0.493638323415    12.000000000000
         C           -0.003523281319     1.089087499087     0.032001323415    12.000000000000
         C            3.051382718681    -0.874946500913    -0.102884676585    12.000000000000
         H           -2.465689081319    -0.214775600913    -1.457161776585     1.007825032230
         H           -1.210843281319    -1.115815500913    -0.703611676585     1.007825032230
         H            2.546289718681     1.172614499087     0.389753323415     1.007825032230
         H            1.898437718681    -0.030234500913     1.525927323415     1.007825032230
         H           -1.958643281319     1.775659499087     0.110733323415     1.007825032230
         H           -3.485056281319    -1.773516500913     0.157788323415     1.007825032230
         H           -2.505013281319    -1.055682500913     1.448914323415     1.007825032230
         H           -3.775817281319    -0.104366500913     0.669084323415     1.007825032230
         H            0.433301718681     2.033079499087     0.362442323415     1.007825032230
         H            3.998587718681    -0.873679500913     0.443832323415     1.007825032230
         H            2.603841718681    -1.868026500913    -0.026428676585     1.007825032230
         H            3.251467718681    -0.663842500913    -1.155341676585     1.007825032230

  Basis Set: AUG-CC-PVTZ
    Blend: AUG-CC-PVTZ
  Basis Set: (AUG-CC-PVTZ AUX)
    Blend: AUG-CC-PVTZ-JKFIT
	 Reference Energy          =    -309.1401340741646209 [Eh]
	 Singles Energy            =      -0.0000000000000000 [Eh]
	 Same-Spin Energy          =      -0.3137650674103764 [Eh]
	 Opposite-Spin Energy      =      -1.0988516961606298 [Eh]
	 Correlation Energy        =      -1.4126167635710063 [Eh]
	 Total Energy              =    -310.5527508377356298 [Eh]

	 ================> DF-SCS-MP2 Energies <==================
	-----------------------------------------------------------
	 SCS Same-Spin Scale       =       0.3333333333333333 [-]
	 SCS Opposite-Spin Scale   =       1.2000000000000000 [-]
	 SCS Same-Spin Energy      =      -0.1045883558034588 [Eh]
	 SCS Opposite-Spin Energy  =      -1.3186220353927558 [Eh]
	 SCS Correlation Energy    =      -1.4232103911962146 [Eh]
	 SCS Total Energy          =    -310.5633444653608422 [Eh]
	-----------------------------------------------------------

  Dipole Moment: [D]
     X:     0.9999      Y:     0.2874      Z:     0.7322     Total:     1.2722

*** Psi4 exiting successfully. Buy a developer a beer!
