                               Psi4 1.3.2 release

  ==> Input File <==

--------------------------------------------------------------------------
#psi4
#
memory 32 gb

molecule  {
0 1
  O       -0.8411900    -0.2286010    -0.2822800
  C        2.0174600     0.2824600    -0.5354820
  C       -2.3023016    -0.2247888     0.4442550
  C        1.3918360    -0.8685520     0.1861030
  C        2.7655740     1.2103670     0.4230210
  C        0.0733200    -1.0572940     0.3167640
  C       -3.0226980     0.6919650    -0.4518750
  H        2.7145670    -0.0909720    -1.2924960
  H        1.2438280     0.8410150    -1.0636660
  H       -2.5250500    -1.2529680     0.3825710
  H       -2.0263210     0.1331820     1.3936400
  H        2.0399100    -1.6071390     0.6510050
  H        3.2481390     2.0275410    -0.1185540
  H        2.0757450     1.6393580     1.1523020
  H        3.5397370     0.6653480     0.9697790
  H       -0.3482160    -1.8932280     0.8773390
  H       -4.0255760     0.7295450    -0.0161740
  H       -2.6128620     1.7059100    -0.4684560
  H       -3.0981720     0.3293290    -1.4847820
units angstrom
no_reorient  #important for SAPT in psi4, default
symmetry c1  #important for SAPT in psi4, default
}

set PROPERTIES_ORIGIN ["COM"]
properties('MP2/aug-cc-pvtz', properties = ['dipole'])
--------------------------------------------------------------------------

    Molecular point group: c1
  Charge       = 0
  Multiplicity = 1
  Basis Set: AUG-CC-PVTZ
    Blend: AUG-CC-PVTZ
  Basis Set: (AUG-CC-PVTZ AUX)
    Blend: AUG-CC-PVTZ-JKFIT

    Orbital Energies [Eh]
    ---------------------

    Doubly Occupied:

       1A    -20.551192     2A    -11.297038     3A    -11.267331
       4A    -11.229871     5A    -11.206784     6A    -11.201545
       7A    -11.200630     8A     -1.339252     9A     -1.068423
      10A     -1.038896    11A     -0.958517    12A     -0.859231
      13A     -0.836893    14A     -0.732702    15A     -0.677532
      16A     -0.654900    17A     -0.627160    18A     -0.590432
      19A     -0.569688    20A     -0.555704    21A     -0.540967
      22A     -0.519673    23A     -0.512107    24A     -0.497086
      25A     -0.479476    26A     -0.467380    27A     -0.450312
      28A     -0.311452

  @DF-RHF Final Energy:  -309.11128885715755

   => Energetics <=

    Nuclear Repulsion Energy =            299.4058421334304967
    One-Electron Energy =               -1012.5499137364038233
    Two-Electron Energy =                 404.0327827458157799
    Total Energy =                       -309.1112888571575468
  Basis Set: (AUG-CC-PVTZ AUX)
    Blend: AUG-CC-PVTZ-RI
    Molecular point group: c1

    Geometry (in Angstrom), charge = 0, multiplicity = 1:

       Center              X                  Y                   Z               Mass
    ------------   -----------------  -----------------  -----------------  -----------------
         O           -0.819719248328    -0.228656997105    -0.292956354375    15.994914619570
         C            2.038930751672     0.282404002895    -0.546158354375    12.000000000000
         C           -2.280830848328    -0.224844797105     0.433578645625    12.000000000000
         C            1.413306751672    -0.868607997105     0.175426645625    12.000000000000
         C            2.787044751672     1.210311002895     0.412344645625    12.000000000000
         C            0.094790751672    -1.057349997105     0.306087645625    12.000000000000
         C           -3.001227248328     0.691909002895    -0.462551354375    12.000000000000
         H            2.736037751672    -0.091027997105    -1.303172354375     1.007825032230
         H            1.265298751672     0.840959002895    -1.074342354375     1.007825032230
         H           -2.503579248328    -1.253023997105     0.371894645625     1.007825032230
         H           -2.004850248328     0.133126002895     1.382963645625     1.007825032230
         H            2.061380751672    -1.607194997105     0.640328645625     1.007825032230
         H            3.269609751672     2.027485002895    -0.129230354375     1.007825032230
         H            2.097215751672     1.639302002895     1.141625645625     1.007825032230
         H            3.561207751672     0.665292002895     0.959102645625     1.007825032230
         H           -0.326745248328    -1.893283997105     0.866662645625     1.007825032230
         H           -4.004105248328     0.729489002895    -0.026850354375     1.007825032230
         H           -2.591391248328     1.705854002895    -0.479132354375     1.007825032230
         H           -3.076701248328     0.329273002895    -1.495458354375     1.007825032230

  Basis Set: AUG-CC-PVTZ
    Blend: AUG-CC-PVTZ
  Basis Set: (AUG-CC-PVTZ AUX)
    Blend: AUG-CC-PVTZ-JKFIT
	 Reference Energy          =    -309.1112888571575468 [Eh]
	 Singles Energy            =      -0.0000000000000000 [Eh]
	 Same-Spin Energy          =      -0.3156613264607688 [Eh]
	 Opposite-Spin Energy      =      -1.1038933198302932 [Eh]
	 Correlation Energy        =      -1.4195546462910620 [Eh]
	 Total Energy              =    -310.5308435034486365 [Eh]

	 ================> DF-SCS-MP2 Energies <==================
	-----------------------------------------------------------
	 SCS Same-Spin Scale       =       0.3333333333333333 [-]
	 SCS Opposite-Spin Scale   =       1.2000000000000000 [-]
	 SCS Same-Spin Energy      =      -0.1052204421535896 [Eh]
	 SCS Opposite-Spin Energy  =      -1.3246719837963516 [Eh]
	 SCS Correlation Energy    =      -1.4298924259499413 [Eh]
	 SCS Total Energy          =    -310.5411812831075054 [Eh]
	-----------------------------------------------------------

  Dipole Moment: [D]
     X:    -2.0497      Y:    -0.0748      Z:     0.8981     Total:     2.2391

*** Psi4 exiting successfully. Buy a developer a beer!
