                               Psi4 1.3.2 release

  ==> Input File <==

--------------------------------------------------------------------------
#psi4
#
memory 32 gb

molecule  {
0 1
  O       -0.8411900    -0.2286010    -0.2822800
  C        2.0174600     0.2824600    -0.5354820
  C       -2.1232200    -0.2252560     0.3552070
  C        1.3918360    -0.8685520     0.1861030
  C        2.7655740     1.2103670     0.4230210
  C        0.0695176    -1.0378374     0.3044111
  C       -3.0226980     0.6919650    -0.4518750
  H        2.7145670    -0.0909720    -1.2924960
  H        1.2438280     0.8410150    -1.0636660
  H       -2.5250500    -1.2529680     0.3825710
  H       -2.0263210     0.1331820     1.3936400
  H        2.0550419    -1.5975396     0.6447745
  H        3.2481390     2.0275410    -0.1185540
  H        2.0757450     1.6393580     1.1523020
  H        3.5397370     0.6653480     0.9697790
  H       -0.3482160    -1.8932280     0.8773390
  H       -4.0255760     0.7295450    -0.0161740
  H       -2.6128620     1.7059100    -0.4684560
  H       -3.0981720     0.3293290    -1.4847820
units angstrom
no_reorient  #important for SAPT in psi4, default
symmetry c1  #important for SAPT in psi4, default
}

set PROPERTIES_ORIGIN ["COM"]
properties('MP2/aug-cc-pvtz', properties = ['dipole'])
--------------------------------------------------------------------------

    Molecular point group: c1
  Charge       = 0
  Multiplicity = 1
  Basis Set: AUG-CC-PVTZ
    Blend: AUG-CC-PVTZ
  Basis Set: (AUG-CC-PVTZ AUX)
    Blend: AUG-CC-PVTZ-JKFIT

    Orbital Energies [Eh]
    ---------------------

    Doubly Occupied:

       1A    -20.575017     2A    -11.288534     3A    -11.279430
       4A    -11.222370     5A    -11.213014     6A    -11.211294
       7A    -11.206463     8A     -1.402087     9A     -1.074608
      10A     -1.026931    11A     -0.965360    12A     -0.852995
      13A     -0.840857    14A     -0.755243    15A     -0.684208
      16A     -0.655975    17A     -0.645911    18A     -0.597478
      19A     -0.561164    20A     -0.557468    21A     -0.542856
      22A     -0.529490    23A     -0.508423    24A     -0.503314
      25A     -0.477032    26A     -0.475161    27A     -0.462490
      28A     -0.323548

  @DF-RHF Final Energy:  -309.14061336180544

   => Energetics <=

    Nuclear Repulsion Energy =            302.4745456202603577
    One-Electron Energy =               -1018.3528778158336081
    Two-Electron Energy =                 406.7377188337677580
    Total Energy =                       -309.1406133618054355
  Basis Set: (AUG-CC-PVTZ AUX)
    Blend: AUG-CC-PVTZ-RI
    Molecular point group: c1

    Geometry (in Angstrom), charge = 0, multiplicity = 1:

       Center              X                  Y                   Z               Mass
    ------------   -----------------  -----------------  -----------------  -----------------
         O           -0.840886455748    -0.231030362357    -0.280736307072    15.994914619570
         C            2.017763544252     0.280030637643    -0.533938307072    12.000000000000
         C           -2.122916455748    -0.227685362357     0.356750692928    12.000000000000
         C            1.392139544252    -0.870981362357     0.187646692928    12.000000000000
         C            2.765877544252     1.207937637643     0.424564692928    12.000000000000
         C            0.069821144252    -1.040266762357     0.305954792928    12.000000000000
         C           -3.022394455748     0.689535637643    -0.450331307072    12.000000000000
         H            2.714870544252    -0.093401362357    -1.290952307072     1.007825032230
         H            1.244131544252     0.838585637643    -1.062122307072     1.007825032230
         H           -2.524746455748    -1.255397362357     0.384114692928     1.007825032230
         H           -2.026017455748     0.130752637643     1.395183692928     1.007825032230
         H            2.055345444252    -1.599968962357     0.646318192928     1.007825032230
         H            3.248442544252     2.025111637643    -0.117010307072     1.007825032230
         H            2.076048544252     1.636928637643     1.153845692928     1.007825032230
         H            3.540040544252     0.662918637643     0.971322692928     1.007825032230
         H           -0.347912455748    -1.895657362357     0.878882692928     1.007825032230
         H           -4.025272455748     0.727115637643    -0.014630307072     1.007825032230
         H           -2.612558455748     1.703480637643    -0.466912307072     1.007825032230
         H           -3.097868455748     0.326899637643    -1.483238307072     1.007825032230

  Basis Set: AUG-CC-PVTZ
    Blend: AUG-CC-PVTZ
  Basis Set: (AUG-CC-PVTZ AUX)
    Blend: AUG-CC-PVTZ-JKFIT
	 Reference Energy          =    -309.1406133618054355 [Eh]
	 Singles Energy            =      -0.0000000000000000 [Eh]
	 Same-Spin Energy          =      -0.3138653588005658 [Eh]
	 Opposite-Spin Energy      =      -1.0989204281895750 [Eh]
	 Correlation Energy        =      -1.4127857869901408 [Eh]
	 Total Energy              =    -310.5533991487955632 [Eh]

	 ================> DF-SCS-MP2 Energies <==================
	-----------------------------------------------------------
	 SCS Same-Spin Scale       =       0.3333333333333333 [-]
	 SCS Opposite-Spin Scale   =       1.2000000000000000 [-]
	 SCS Same-Spin Energy      =      -0.1046217862668553 [Eh]
	 SCS Opposite-Spin Energy  =      -1.3187045138274900 [Eh]
	 SCS Correlation Energy    =      -1.4233263000943452 [Eh]
	 SCS Total Energy          =    -310.5639396618997807 [Eh]
	-----------------------------------------------------------

  Dipole Moment: [D]
     X:    -1.2163      Y:    -0.1473      Z:     0.6990     Total:     1.4106

*** Psi4 exiting successfully. Buy a developer a beer!
