                               Psi4 1.4a3.dev225

  ==> Input File <==

--------------------------------------------------------------------------
#psi4
#
memory 32 gb

molecule  {
0 1
  O        0.9059480     0.1295110    -0.3069180
  C       -1.9753050    -0.3336000    -0.5537270
  C        2.1190110     0.1892690     0.4520280
  C       -1.3184330     0.9429980    -0.1246110
  C       -2.9908880    -0.8293550     0.4787900
  C        0.0027760     1.1130440     0.0171530
  C        3.0887110    -0.8853771    -0.1365672
  H       -2.4824890    -0.1840060    -1.5158280
  H       -1.2045440    -1.0918590    -0.7184600
  H        2.5525890     1.1965710     0.3749050
  H        1.9047370    -0.0062780     1.5110790
  H       -1.9523440     1.7996160     0.0958850
  H       -3.4787570    -1.7495600     0.1429400
  H       -2.4987140    -1.0317260     1.4340660
  H       -3.7695180    -0.0804100     0.6542360
  H        0.4396010     2.0570360     0.3475940
  H        4.0048870    -0.8497230     0.4289840
  H        2.6101410    -1.8440700    -0.0412770
  H        3.2577670    -0.6398860    -1.1701900
units angstrom
no_reorient  #important for SAPT in psi4, default
symmetry c1  #important for SAPT in psi4, default
}

set PROPERTIES_ORIGIN ["COM"]
properties('MP2/aug-cc-pvtz', properties = ['dipole'])
--------------------------------------------------------------------------

    Molecular point group: c1
  Charge       = 0
  Multiplicity = 1
  Basis Set: AUG-CC-PVTZ
    Blend: AUG-CC-PVTZ
  Basis Set: (AUG-CC-PVTZ AUX)
    Blend: AUG-CC-PVTZ-JKFIT

    Orbital Energies [Eh]
    ---------------------

    Doubly Occupied:

       1A    -20.571749     2A    -11.286130     3A    -11.278407
       4A    -11.218243     5A    -11.216362     6A    -11.214952
       7A    -11.208917     8A     -1.391171     9A     -1.072612
      10A     -1.020174    11A     -0.966666    12A     -0.853724
      13A     -0.842301    14A     -0.754198    15A     -0.683943
      16A     -0.651538    17A     -0.638424    18A     -0.598618
      19A     -0.565623    20A     -0.559757    21A     -0.545225
      22A     -0.530355    23A     -0.509404    24A     -0.492988
      25A     -0.479683    26A     -0.473727    27A     -0.461563
      28A     -0.327106

  @DF-RHF Final Energy:  -309.13916920168407

   => Energetics <=

    Nuclear Repulsion Energy =            300.5230588512307008
    One-Electron Energy =               -1014.4973374700454087
    Two-Electron Energy =                 404.8351094171305817
    Total Energy =                       -309.1391692016840693
  Basis Set: (AUG-CC-PVTZ AUX)
    Blend: AUG-CC-PVTZ-RI
    Molecular point group: c1

    Geometry (in Angstrom), charge = 0, multiplicity = 1:

       Center              X                  Y                   Z               Mass
    ------------   -----------------  -----------------  -----------------  -----------------
         O            0.896161135698     0.109608686233    -0.289370362217    15.994914619570
         C           -1.985091864302    -0.353502313767    -0.536179362217    12.000000000000
         C            2.109224135698     0.169366686233     0.469575637783    12.000000000000
         C           -1.328219864302     0.923095686233    -0.107063362217    12.000000000000
         C           -3.000674864302    -0.849257313767     0.496337637783    12.000000000000
         C           -0.007010864302     1.093141686233     0.034700637783    12.000000000000
         C            3.078924135698    -0.905279413767    -0.119019562217    12.000000000000
         H           -2.492275864302    -0.203908313767    -1.498280362217     1.007825032230
         H           -1.214330864302    -1.111761313767    -0.700912362217     1.007825032230
         H            2.542802135698     1.176668686233     0.392452637783     1.007825032230
         H            1.894950135698    -0.026180313767     1.528626637783     1.007825032230
         H           -1.962130864302     1.779713686233     0.113432637783     1.007825032230
         H           -3.488543864302    -1.769462313767     0.160487637783     1.007825032230
         H           -2.508500864302    -1.051628313767     1.451613637783     1.007825032230
         H           -3.779304864302    -0.100312313767     0.671783637783     1.007825032230
         H            0.429814135698     2.037133686233     0.365141637783     1.007825032230
         H            3.995100135698    -0.869625313767     0.446531637783     1.007825032230
         H            2.600354135698    -1.863972313767    -0.023729362217     1.007825032230
         H            3.247980135698    -0.659788313767    -1.152642362217     1.007825032230

  Basis Set: AUG-CC-PVTZ
    Blend: AUG-CC-PVTZ
  Basis Set: (AUG-CC-PVTZ AUX)
    Blend: AUG-CC-PVTZ-JKFIT
	 Reference Energy          =    -309.1391692016840693 [Eh]
	 Singles Energy            =      -0.0000000000000000 [Eh]
	 Same-Spin Energy          =      -0.3135381389439383 [Eh]
	 Opposite-Spin Energy      =      -1.0990521302201106 [Eh]
	 Correlation Energy        =      -1.4125902691640491 [Eh]
	 Total Energy              =    -310.5517594708481397 [Eh]

	 ================> DF-SCS-MP2 Energies <==================
	-----------------------------------------------------------
	 SCS Same-Spin Scale       =       0.3333333333333333 [-]
	 SCS Opposite-Spin Scale   =       1.2000000000000000 [-]
	 SCS Same-Spin Energy      =      -0.1045127129813128 [Eh]
	 SCS Opposite-Spin Energy  =      -1.3188625562641327 [Eh]
	 SCS Correlation Energy    =      -1.4233752692454456 [Eh]
	 SCS Total Energy          =    -310.5625444709295380 [Eh]
	-----------------------------------------------------------

  Dipole Moment: [D]
     X:     0.9985      Y:     0.3005      Z:     0.7622     Total:     1.2916

*** Psi4 exiting successfully. Buy a developer a beer!
