                               Psi4 1.4a3.dev225

  ==> Input File <==

--------------------------------------------------------------------------
#psi4
#
memory 32 gb

molecule  {
0 1
  O        0.9059480     0.1295110    -0.3069180
  C       -1.9753050    -0.3336000    -0.5537270
  C        2.1190110     0.1892690     0.4520280
  C       -1.3184330     0.9429980    -0.1246110
  C       -2.9908880    -0.8293550     0.4787900
  C        0.0027760     1.1130440     0.0171530
  C        3.0576820    -0.8509900    -0.1177330
  H       -2.4824890    -0.1840060    -1.5158280
  H       -1.2045440    -1.0918590    -0.7184600
  H        2.5525890     1.1965710     0.3749050
  H        1.9047370    -0.0062780     1.5110790
  H       -1.9523440     1.7996160     0.0958850
  H       -3.4787570    -1.7495600     0.1429400
  H       -2.4987140    -1.0317260     1.4340660
  H       -3.7695180    -0.0804100     0.6542360
  H        0.4476059     2.0743349     0.3536494
  H        4.0048870    -0.8497230     0.4289840
  H        2.6101410    -1.8440700    -0.0412770
  H        3.2577670    -0.6398860    -1.1701900
units angstrom
no_reorient  #important for SAPT in psi4, default
symmetry c1  #important for SAPT in psi4, default
}

set PROPERTIES_ORIGIN ["COM"]
properties('MP2/aug-cc-pvtz', properties = ['dipole'])
--------------------------------------------------------------------------

    Molecular point group: c1
  Charge       = 0
  Multiplicity = 1
  Basis Set: AUG-CC-PVTZ
    Blend: AUG-CC-PVTZ
  Basis Set: (AUG-CC-PVTZ AUX)
    Blend: AUG-CC-PVTZ-JKFIT

    Orbital Energies [Eh]
    ---------------------

    Doubly Occupied:

       1A    -20.572211     2A    -11.284391     3A    -11.280730
       4A    -11.219551     5A    -11.216519     6A    -11.215169
       7A    -11.208991     8A     -1.392125     9A     -1.073940
      10A     -1.026015    11A     -0.966903    12A     -0.851239
      13A     -0.840642    14A     -0.753956    15A     -0.683575
      16A     -0.651886    17A     -0.640093    18A     -0.599402
      19A     -0.563063    20A     -0.558984    21A     -0.540118
      22A     -0.526733    23A     -0.507844    24A     -0.502308
      25A     -0.479398    26A     -0.474556    27A     -0.461106
      28A     -0.327352

  @DF-RHF Final Energy:  -309.14037701801220

   => Energetics <=

    Nuclear Repulsion Energy =            301.1081027844861069
    One-Electron Energy =               -1015.6593606268288568
    Two-Electron Energy =                 405.4108808243304907
    Total Energy =                       -309.1403770180122024
  Basis Set: (AUG-CC-PVTZ AUX)
    Blend: AUG-CC-PVTZ-RI
    Molecular point group: c1

    Geometry (in Angstrom), charge = 0, multiplicity = 1:

       Center              X                  Y                   Z               Mass
    ------------   -----------------  -----------------  -----------------  -----------------
         O            0.899800707826     0.105311707950    -0.291689434370    15.994914619570
         C           -1.981452292174    -0.357799292050    -0.538498434370    12.000000000000
         C            2.112863707826     0.165069707950     0.467256565630    12.000000000000
         C           -1.324580292174     0.918798707950    -0.109382434370    12.000000000000
         C           -2.997035292174    -0.853554292050     0.494018565630    12.000000000000
         C           -0.003371292174     1.088844707950     0.032381565630    12.000000000000
         C            3.051534707826    -0.875189292050    -0.102504434370    12.000000000000
         H           -2.488636292174    -0.208205292050    -1.500599434370     1.007825032230
         H           -1.210691292174    -1.116058292050    -0.703231434370     1.007825032230
         H            2.546441707826     1.172371707950     0.390133565630     1.007825032230
         H            1.898589707826    -0.030477292050     1.526307565630     1.007825032230
         H           -1.958491292174     1.775416707950     0.111113565630     1.007825032230
         H           -3.484904292174    -1.773759292050     0.158168565630     1.007825032230
         H           -2.504861292174    -1.055925292050     1.449294565630     1.007825032230
         H           -3.775665292174    -0.104609292050     0.669464565630     1.007825032230
         H            0.441458607826     2.050135607950     0.368877965630     1.007825032230
         H            3.998739707826    -0.873922292050     0.444212565630     1.007825032230
         H            2.603993707826    -1.868269292050    -0.026048434370     1.007825032230
         H            3.251619707826    -0.664085292050    -1.154961434370     1.007825032230

  Basis Set: AUG-CC-PVTZ
    Blend: AUG-CC-PVTZ
  Basis Set: (AUG-CC-PVTZ AUX)
    Blend: AUG-CC-PVTZ-JKFIT
	 Reference Energy          =    -309.1403770180122024 [Eh]
	 Singles Energy            =      -0.0000000000000000 [Eh]
	 Same-Spin Energy          =      -0.3138190282092098 [Eh]
	 Opposite-Spin Energy      =      -1.0992971470309210 [Eh]
	 Correlation Energy        =      -1.4131161752401307 [Eh]
	 Total Energy              =    -310.5534931932523364 [Eh]

	 ================> DF-SCS-MP2 Energies <==================
	-----------------------------------------------------------
	 SCS Same-Spin Scale       =       0.3333333333333333 [-]
	 SCS Opposite-Spin Scale   =       1.2000000000000000 [-]
	 SCS Same-Spin Energy      =      -0.1046063427364032 [Eh]
	 SCS Opposite-Spin Energy  =      -1.3191565764371052 [Eh]
	 SCS Correlation Energy    =      -1.4237629191735084 [Eh]
	 SCS Total Energy          =    -310.5641399371857005 [Eh]
	-----------------------------------------------------------

  Dipole Moment: [D]
     X:     1.0158      Y:     0.2791      Z:     0.7592     Total:     1.2985

*** Psi4 exiting successfully. Buy a developer a beer!
