                               Psi4 1.4a3.dev225

  ==> Input File <==

--------------------------------------------------------------------------
#psi4
#
memory 32 gb

molecule  {
0 1
  O        0.9059480     0.1295110    -0.3069180
  C       -1.9753050    -0.3336000    -0.5537270
  C        2.1190110     0.1892690     0.4520280
  C       -1.3184330     0.9429980    -0.1246110
  C       -2.9908880    -0.8293550     0.4787900
  C        0.0225010     1.1155827     0.0192695
  C        3.0576820    -0.8509900    -0.1177330
  H       -2.4824890    -0.1840060    -1.5158280
  H       -1.2045440    -1.0918590    -0.7184600
  H        2.5525890     1.1965710     0.3749050
  H        1.9047370    -0.0062780     1.5110790
  H       -1.9523440     1.7996160     0.0958850
  H       -3.4787570    -1.7495600     0.1429400
  H       -2.4987140    -1.0317260     1.4340660
  H       -3.7695180    -0.0804100     0.6542360
  H        0.4396010     2.0570360     0.3475940
  H        4.0048870    -0.8497230     0.4289840
  H        2.6101410    -1.8440700    -0.0412770
  H        3.2577670    -0.6398860    -1.1701900
units angstrom
no_reorient  #important for SAPT in psi4, default
symmetry c1  #important for SAPT in psi4, default
}

set PROPERTIES_ORIGIN ["COM"]
properties('MP2/aug-cc-pvtz', properties = ['dipole'])
--------------------------------------------------------------------------

    Molecular point group: c1
  Charge       = 0
  Multiplicity = 1
  Basis Set: AUG-CC-PVTZ
    Blend: AUG-CC-PVTZ
  Basis Set: (AUG-CC-PVTZ AUX)
    Blend: AUG-CC-PVTZ-JKFIT

    Orbital Energies [Eh]
    ---------------------

    Doubly Occupied:

       1A    -20.573941     2A    -11.285274     3A    -11.279797
       4A    -11.220141     5A    -11.216886     6A    -11.215725
       7A    -11.208492     8A     -1.397415     9A     -1.071275
      10A     -1.026991    11A     -0.964008    12A     -0.852256
      13A     -0.842311    14A     -0.756031    15A     -0.687316
      16A     -0.655261    17A     -0.639395    18A     -0.599303
      19A     -0.564160    20A     -0.559057    21A     -0.541688
      22A     -0.526347    23A     -0.507519    24A     -0.503499
      25A     -0.479193    26A     -0.475050    27A     -0.463045
      28A     -0.321805

  @DF-RHF Final Energy:  -309.13976534281989

   => Energetics <=

    Nuclear Repulsion Energy =            301.1610808056123574
    One-Electron Energy =               -1015.7353332528703049
    Two-Electron Energy =                 405.4344871044381193
    Total Energy =                       -309.1397653428198851
  Basis Set: (AUG-CC-PVTZ AUX)
    Blend: AUG-CC-PVTZ-RI
    Molecular point group: c1

    Geometry (in Angstrom), charge = 0, multiplicity = 1:

       Center              X                  Y                   Z               Mass
    ------------   -----------------  -----------------  -----------------  -----------------
         O            0.897516412009     0.105181522219    -0.291882215314    15.994914619570
         C           -1.983736587991    -0.357929477781    -0.538691215314    12.000000000000
         C            2.110579412009     0.164939522219     0.467063784686    12.000000000000
         C           -1.326864587991     0.918668522219    -0.109575215314    12.000000000000
         C           -2.999319587991    -0.853684477781     0.493825784686    12.000000000000
         C            0.014069412009     1.091253222219     0.034305284686    12.000000000000
         C            3.049250412009    -0.875319477781    -0.102697215314    12.000000000000
         H           -2.490920587991    -0.208335477781    -1.500792215314     1.007825032230
         H           -1.212975587991    -1.116188477781    -0.703424215314     1.007825032230
         H            2.544157412009     1.172241522219     0.389940784686     1.007825032230
         H            1.896305412009    -0.030607477781     1.526114784686     1.007825032230
         H           -1.960775587991     1.775286522219     0.110920784686     1.007825032230
         H           -3.487188587991    -1.773889477781     0.157975784686     1.007825032230
         H           -2.507145587991    -1.056055477781     1.449101784686     1.007825032230
         H           -3.777949587991    -0.104739477781     0.669271784686     1.007825032230
         H            0.431169412009     2.032706522219     0.362629784686     1.007825032230
         H            3.996455412009    -0.874052477781     0.444019784686     1.007825032230
         H            2.601709412009    -1.868399477781    -0.026241215314     1.007825032230
         H            3.249335412009    -0.664215477781    -1.155154215314     1.007825032230

  Basis Set: AUG-CC-PVTZ
    Blend: AUG-CC-PVTZ
  Basis Set: (AUG-CC-PVTZ AUX)
    Blend: AUG-CC-PVTZ-JKFIT
	 Reference Energy          =    -309.1397653428198851 [Eh]
	 Singles Energy            =      -0.0000000000000000 [Eh]
	 Same-Spin Energy          =      -0.3139860131961272 [Eh]
	 Opposite-Spin Energy      =      -1.0995879970831761 [Eh]
	 Correlation Energy        =      -1.4135740102793033 [Eh]
	 Total Energy              =    -310.5533393530992043 [Eh]

	 ================> DF-SCS-MP2 Energies <==================
	-----------------------------------------------------------
	 SCS Same-Spin Scale       =       0.3333333333333333 [-]
	 SCS Opposite-Spin Scale   =       1.2000000000000000 [-]
	 SCS Same-Spin Energy      =      -0.1046620043987091 [Eh]
	 SCS Opposite-Spin Energy  =      -1.3195055964998113 [Eh]
	 SCS Correlation Energy    =      -1.4241676008985202 [Eh]
	 SCS Total Energy          =    -310.5639329437183846 [Eh]
	-----------------------------------------------------------

  Dipole Moment: [D]
     X:     1.1063      Y:     0.2714      Z:     0.7565     Total:     1.3674

*** Psi4 exiting successfully. Buy a developer a beer!
