                               Psi4 1.3.2 release

  ==> Input File <==

--------------------------------------------------------------------------
#psi4
#
memory 32 gb

molecule  {
0 1
  O       -0.8411900    -0.2286010    -0.2822800
  C        2.0174600     0.2824600    -0.5354820
  C       -2.1232200    -0.2252560     0.3552070
  C        1.3081759    -1.0224683     0.2825952
  C        2.7655740     1.2103670     0.4230210
  C        0.0733200    -1.0572940     0.3167640
  C       -3.0226980     0.6919650    -0.4518750
  H        2.7145670    -0.0909720    -1.2924960
  H        1.2438280     0.8410150    -1.0636660
  H       -2.5250500    -1.2529680     0.3825710
  H       -2.0263210     0.1331820     1.3936400
  H        2.0399100    -1.6071390     0.6510050
  H        3.2481390     2.0275410    -0.1185540
  H        2.0757450     1.6393580     1.1523020
  H        3.5397370     0.6653480     0.9697790
  H       -0.3482160    -1.8932280     0.8773390
  H       -4.0255760     0.7295450    -0.0161740
  H       -2.6128620     1.7059100    -0.4684560
  H       -3.0981720     0.3293290    -1.4847820
units angstrom
no_reorient  #important for SAPT in psi4, default
symmetry c1  #important for SAPT in psi4, default
}

set PROPERTIES_ORIGIN ["COM"]
properties('MP2/aug-cc-pvtz', properties = ['dipole'])
--------------------------------------------------------------------------

    Molecular point group: c1
  Charge       = 0
  Multiplicity = 1
  Basis Set: AUG-CC-PVTZ
    Blend: AUG-CC-PVTZ
  Basis Set: (AUG-CC-PVTZ AUX)
    Blend: AUG-CC-PVTZ-JKFIT

    Orbital Energies [Eh]
    ---------------------

    Doubly Occupied:

       1A    -20.574649     2A    -11.287018     3A    -11.264803
       4A    -11.221360     5A    -11.220986     6A    -11.206025
       7A    -11.202314     8A     -1.393858     9A     -1.076293
      10A     -1.017824    11A     -0.984998    12A     -0.847840
      13A     -0.829887    14A     -0.761117    15A     -0.686579
      16A     -0.664055    17A     -0.652916    18A     -0.588122
      19A     -0.572342    20A     -0.554110    21A     -0.542401
      22A     -0.533399    23A     -0.502613    24A     -0.498653
      25A     -0.480033    26A     -0.470614    27A     -0.418969
      28A     -0.355779

  @DF-RHF Final Energy:  -309.10569777596811

   => Energetics <=

    Nuclear Repulsion Energy =            301.4854880892007145
    One-Electron Energy =               -1016.3632560548543324
    Two-Electron Energy =                 405.7720701896855644
    Total Energy =                       -309.1056977759681104
  Basis Set: (AUG-CC-PVTZ AUX)
    Blend: AUG-CC-PVTZ-RI
    Molecular point group: c1

    Geometry (in Angstrom), charge = 0, multiplicity = 1:

       Center              X                  Y                   Z               Mass
    ------------   -----------------  -----------------  -----------------  -----------------
         O           -0.831159667519    -0.210147416390    -0.293848865691    15.994914619570
         C            2.027490332481     0.300913583610    -0.547050865691    12.000000000000
         C           -2.113189667519    -0.206802416390     0.343638134309    12.000000000000
         C            1.318206232481    -1.004014716390     0.271026334309    12.000000000000
         C            2.775604332481     1.228820583610     0.411452134309    12.000000000000
         C            0.083350332481    -1.038840416390     0.305195134309    12.000000000000
         C           -3.012667667519     0.710418583610    -0.463443865691    12.000000000000
         H            2.724597332481    -0.072518416390    -1.304064865691     1.007825032230
         H            1.253858332481     0.859468583610    -1.075234865691     1.007825032230
         H           -2.515019667519    -1.234514416390     0.371002134309     1.007825032230
         H           -2.016290667519     0.151635583610     1.382071134309     1.007825032230
         H            2.049940332481    -1.588685416390     0.639436134309     1.007825032230
         H            3.258169332481     2.045994583610    -0.130122865691     1.007825032230
         H            2.085775332481     1.657811583610     1.140733134309     1.007825032230
         H            3.549767332481     0.683801583610     0.958210134309     1.007825032230
         H           -0.338185667519    -1.874774416390     0.865770134309     1.007825032230
         H           -4.015545667519     0.747998583610    -0.027742865691     1.007825032230
         H           -2.602831667519     1.724363583610    -0.480024865691     1.007825032230
         H           -3.088141667519     0.347782583610    -1.496350865691     1.007825032230

  Basis Set: AUG-CC-PVTZ
    Blend: AUG-CC-PVTZ
  Basis Set: (AUG-CC-PVTZ AUX)
    Blend: AUG-CC-PVTZ-JKFIT
	 Reference Energy          =    -309.1056977759681104 [Eh]
	 Singles Energy            =      -0.0000000000000000 [Eh]
	 Same-Spin Energy          =      -0.3123731944988892 [Eh]
	 Opposite-Spin Energy      =      -1.0973523009361053 [Eh]
	 Correlation Energy        =      -1.4097254954349945 [Eh]
	 Total Energy              =    -310.5154232714031082 [Eh]

	 ================> DF-SCS-MP2 Energies <==================
	-----------------------------------------------------------
	 SCS Same-Spin Scale       =       0.3333333333333333 [-]
	 SCS Opposite-Spin Scale   =       1.2000000000000000 [-]
	 SCS Same-Spin Energy      =      -0.1041243981662964 [Eh]
	 SCS Opposite-Spin Energy  =      -1.3168227611233263 [Eh]
	 SCS Correlation Energy    =      -1.4209471592896228 [Eh]
	 SCS Total Energy          =    -310.5266449352577069 [Eh]
	-----------------------------------------------------------

  Dipole Moment: [D]
     X:    -1.0343      Y:    -0.2386      Z:     0.7849     Total:     1.3202

*** Psi4 exiting successfully. Buy a developer a beer!
