                               Psi4 1.3.2 release

  ==> Input File <==

--------------------------------------------------------------------------
#psi4
#
memory 32 gb

molecule  {
0 1
  O       -0.8411900    -0.2286010    -0.2822800
  C        2.0174600     0.2824600    -0.5354820
  C       -2.1232200    -0.2252560     0.3552070
  C        1.3965603    -0.8639779     0.1973772
  C        2.7621310     1.2024954     0.4332357
  C        0.0733200    -1.0572940     0.3167640
  C       -3.0226980     0.6919650    -0.4518750
  H        2.7145670    -0.0909720    -1.2924960
  H        1.2438280     0.8410150    -1.0636660
  H       -2.5250500    -1.2529680     0.3825710
  H       -2.0263210     0.1331820     1.3936400
  H        2.0399100    -1.6071390     0.6510050
  H        3.2481390     2.0275410    -0.1185540
  H        2.0757450     1.6393580     1.1523020
  H        3.5397370     0.6653480     0.9697790
  H       -0.3482160    -1.8932280     0.8773390
  H       -4.0255760     0.7295450    -0.0161740
  H       -2.6128620     1.7059100    -0.4684560
  H       -3.0981720     0.3293290    -1.4847820
units angstrom
no_reorient  #important for SAPT in psi4, default
symmetry c1  #important for SAPT in psi4, default
}

set PROPERTIES_ORIGIN ["COM"]
properties('MP2/aug-cc-pvtz', properties = ['dipole'])
--------------------------------------------------------------------------

    Molecular point group: c1
  Charge       = 0
  Multiplicity = 1
  Basis Set: AUG-CC-PVTZ
    Blend: AUG-CC-PVTZ
  Basis Set: (AUG-CC-PVTZ AUX)
    Blend: AUG-CC-PVTZ-JKFIT

    Orbital Energies [Eh]
    ---------------------

    Doubly Occupied:

       1A    -20.572505     2A    -11.286481     3A    -11.278629
       4A    -11.221145     5A    -11.214800     6A    -11.213438
       7A    -11.207161     8A     -1.393282     9A     -1.074496
      10A     -1.025154    11A     -0.965966    12A     -0.851238
      13A     -0.841336    14A     -0.755259    15A     -0.683630
      16A     -0.654490    17A     -0.642575    18A     -0.597863
      19A     -0.561926    20A     -0.556231    21A     -0.541533
      22A     -0.527708    23A     -0.510217    24A     -0.501203
      25A     -0.478678    26A     -0.474295    27A     -0.463525
      28A     -0.324692

  @DF-RHF Final Energy:  -309.14038609999204

   => Energetics <=

    Nuclear Repulsion Energy =            302.1354606441320243
    One-Electron Energy =               -1017.7127823214307227
    Two-Electron Energy =                 406.4369355773065990
    Total Energy =                       -309.1403860999920425
  Basis Set: (AUG-CC-PVTZ AUX)
    Blend: AUG-CC-PVTZ-RI
    Molecular point group: c1

    Geometry (in Angstrom), charge = 0, multiplicity = 1:

       Center              X                  Y                   Z               Mass
    ------------   -----------------  -----------------  -----------------  -----------------
         O           -0.841343590667    -0.228205633983    -0.284856456300    15.994914619570
         C            2.017306409333     0.282855366017    -0.538058456300    12.000000000000
         C           -2.123373590667    -0.224860633983     0.352630543700    12.000000000000
         C            1.396406709333    -0.863582533983     0.194800743700    12.000000000000
         C            2.761977409333     1.202890766017     0.430659243700    12.000000000000
         C            0.073166409333    -1.056898633983     0.314187543700    12.000000000000
         C           -3.022851590667     0.692360366017    -0.454451456300    12.000000000000
         H            2.714413409333    -0.090576633983    -1.295072456300     1.007825032230
         H            1.243674409333     0.841410366017    -1.066242456300     1.007825032230
         H           -2.525203590667    -1.252572633983     0.379994543700     1.007825032230
         H           -2.026474590667     0.133577366017     1.391063543700     1.007825032230
         H            2.039756409333    -1.606743633983     0.648428543700     1.007825032230
         H            3.247985409333     2.027936366017    -0.121130456300     1.007825032230
         H            2.075591409333     1.639753366017     1.149725543700     1.007825032230
         H            3.539583409333     0.665743366017     0.967202543700     1.007825032230
         H           -0.348369590667    -1.892832633983     0.874762543700     1.007825032230
         H           -4.025729590667     0.729940366017    -0.018750456300     1.007825032230
         H           -2.613015590667     1.706305366017    -0.471032456300     1.007825032230
         H           -3.098325590667     0.329724366017    -1.487358456300     1.007825032230

  Basis Set: AUG-CC-PVTZ
    Blend: AUG-CC-PVTZ
  Basis Set: (AUG-CC-PVTZ AUX)
    Blend: AUG-CC-PVTZ-JKFIT
	 Reference Energy          =    -309.1403860999920425 [Eh]
	 Singles Energy            =      -0.0000000000000000 [Eh]
	 Same-Spin Energy          =      -0.3138881705002449 [Eh]
	 Opposite-Spin Energy      =      -1.0993441407168811 [Eh]
	 Correlation Energy        =      -1.4132323112171261 [Eh]
	 Total Energy              =    -310.5536184112091860 [Eh]

	 ================> DF-SCS-MP2 Energies <==================
	-----------------------------------------------------------
	 SCS Same-Spin Scale       =       0.3333333333333333 [-]
	 SCS Opposite-Spin Scale   =       1.2000000000000000 [-]
	 SCS Same-Spin Energy      =      -0.1046293901667483 [Eh]
	 SCS Opposite-Spin Energy  =      -1.3192129688602574 [Eh]
	 SCS Correlation Energy    =      -1.4238423590270057 [Eh]
	 SCS Total Energy          =    -310.5642284590190343 [Eh]
	-----------------------------------------------------------

  Dipole Moment: [D]
     X:    -1.1034      Y:    -0.2026      Z:     0.7138     Total:     1.3297

*** Psi4 exiting successfully. Buy a developer a beer!
