                               Psi4 1.3.2 release

  ==> Input File <==

--------------------------------------------------------------------------
#psi4
#
memory 32 gb

molecule  {
0 1
  O       -0.8411900    -0.2286010    -0.2822800
  C        1.9696681     0.3002119    -0.5467134
  C       -2.1232200    -0.2252560     0.3552070
  C        1.3918360    -0.8685520     0.1861030
  C        2.7655740     1.2103670     0.4230210
  C        0.0733200    -1.0572940     0.3167640
  C       -3.0226980     0.6919650    -0.4518750
  H        2.7145670    -0.0909720    -1.2924960
  H        1.2438280     0.8410150    -1.0636660
  H       -2.5250500    -1.2529680     0.3825710
  H       -2.0263210     0.1331820     1.3936400
  H        2.0090577    -1.6258683     0.6627098
  H        3.2481390     2.0275410    -0.1185540
  H        2.0757450     1.6393580     1.1523020
  H        3.5397370     0.6653480     0.9697790
  H       -0.3482160    -1.8932280     0.8773390
  H       -4.0255760     0.7295450    -0.0161740
  H       -2.6128620     1.7059100    -0.4684560
  H       -3.0981720     0.3293290    -1.4847820
units angstrom
no_reorient  #important for SAPT in psi4, default
symmetry c1  #important for SAPT in psi4, default
}

set PROPERTIES_ORIGIN ["COM"]
properties('MP2/aug-cc-pvtz', properties = ['dipole'])
--------------------------------------------------------------------------

    Molecular point group: c1
  Charge       = 0
  Multiplicity = 1
  Basis Set: AUG-CC-PVTZ
    Blend: AUG-CC-PVTZ
  Basis Set: (AUG-CC-PVTZ AUX)
    Blend: AUG-CC-PVTZ-JKFIT

    Orbital Energies [Eh]
    ---------------------

    Doubly Occupied:

       1A    -20.572000     2A    -11.286291     3A    -11.276505
       4A    -11.221098     5A    -11.215395     6A    -11.213396
       7A    -11.208320     8A     -1.393076     9A     -1.074621
      10A     -1.023837    11A     -0.965609    12A     -0.851144
      13A     -0.842569    14A     -0.756323    15A     -0.682951
      16A     -0.654605    17A     -0.643602    18A     -0.593661
      19A     -0.562832    20A     -0.556430    21A     -0.541259
      22A     -0.527558    23A     -0.506685    24A     -0.501299
      25A     -0.482043    26A     -0.474427    27A     -0.465969
      28A     -0.323993

  @DF-RHF Final Energy:  -309.13749656818794

   => Energetics <=

    Nuclear Repulsion Energy =            302.2915277020361486
    One-Electron Energy =               -1018.0230507500289150
    Two-Electron Energy =                 406.5940264798048815
    Total Energy =                       -309.1374965681879416
  Basis Set: (AUG-CC-PVTZ AUX)
    Blend: AUG-CC-PVTZ-RI
    Molecular point group: c1

    Geometry (in Angstrom), charge = 0, multiplicity = 1:

       Center              X                  Y                   Z               Mass
    ------------   -----------------  -----------------  -----------------  -----------------
         O           -0.835149370861    -0.230540729494    -0.281051363697    15.994914619570
         C            1.975708729139     0.298272170506    -0.545484763697    12.000000000000
         C           -2.117179370861    -0.227195729494     0.356435636303    12.000000000000
         C            1.397876629139    -0.870491729494     0.187331636303    12.000000000000
         C            2.771614629139     1.208427270506     0.424249636303    12.000000000000
         C            0.079360629139    -1.059233729494     0.317992636303    12.000000000000
         C           -3.016657370861     0.690025270506    -0.450646363697    12.000000000000
         H            2.720607629139    -0.092911729494    -1.291267363697     1.007825032230
         H            1.249868629139     0.839075270506    -1.062437363697     1.007825032230
         H           -2.519009370861    -1.254907729494     0.383799636303     1.007825032230
         H           -2.020280370861     0.131242270506     1.394868636303     1.007825032230
         H            2.015098329139    -1.627808029494     0.663938436303     1.007825032230
         H            3.254179629139     2.025601270506    -0.117325363697     1.007825032230
         H            2.081785629139     1.637418270506     1.153530636303     1.007825032230
         H            3.545777629139     0.663408270506     0.971007636303     1.007825032230
         H           -0.342175370861    -1.895167729494     0.878567636303     1.007825032230
         H           -4.019535370861     0.727605270506    -0.014945363697     1.007825032230
         H           -2.606821370861     1.703970270506    -0.467227363697     1.007825032230
         H           -3.092131370861     0.327389270506    -1.483553363697     1.007825032230

  Basis Set: AUG-CC-PVTZ
    Blend: AUG-CC-PVTZ
  Basis Set: (AUG-CC-PVTZ AUX)
    Blend: AUG-CC-PVTZ-JKFIT
	 Reference Energy          =    -309.1374965681879416 [Eh]
	 Singles Energy            =      -0.0000000000000000 [Eh]
	 Same-Spin Energy          =      -0.3138404550481544 [Eh]
	 Opposite-Spin Energy      =      -1.0992440554005507 [Eh]
	 Correlation Energy        =      -1.4130845104487051 [Eh]
	 Total Energy              =    -310.5505810786366396 [Eh]

	 ================> DF-SCS-MP2 Energies <==================
	-----------------------------------------------------------
	 SCS Same-Spin Scale       =       0.3333333333333333 [-]
	 SCS Opposite-Spin Scale   =       1.2000000000000000 [-]
	 SCS Same-Spin Energy      =      -0.1046134850160515 [Eh]
	 SCS Opposite-Spin Energy  =      -1.3190928664806607 [Eh]
	 SCS Correlation Energy    =      -1.4237063514967121 [Eh]
	 SCS Total Energy          =    -310.5612029196846606 [Eh]
	-----------------------------------------------------------

  Dipole Moment: [D]
     X:    -1.1013      Y:    -0.1885      Z:     0.7321     Total:     1.3358

*** Psi4 exiting successfully. Buy a developer a beer!
