                               Psi4 1.4a3.dev225

  ==> Input File <==

--------------------------------------------------------------------------
#psi4
#
memory 32 gb

molecule  {
0 1
  O        0.9059480     0.1295110    -0.3069180
  C       -1.9753050    -0.3336000    -0.5537270
  C        2.1190110     0.1892690     0.4520280
  C       -1.3184330     0.9429980    -0.1246110
  C       -2.9908880    -0.8293550     0.4787900
  C        0.0027760     1.1130440     0.0171530
  C        3.0576820    -0.8509900    -0.1177330
  H       -2.4824890    -0.1840060    -1.5158280
  H       -1.2045440    -1.0918590    -0.7184600
  H        2.5525890     1.1965710     0.3749050
  H        1.9047370    -0.0062780     1.5110790
  H       -1.9523440     1.7996160     0.0958850
  H       -3.4787570    -1.7495600     0.1429400
  H       -2.4987140    -1.0317260     1.4340660
  H       -3.7695180    -0.0804100     0.6542360
  H        0.4315961     2.0397371     0.3415386
  H        4.0048870    -0.8497230     0.4289840
  H        2.6101410    -1.8440700    -0.0412770
  H        3.2577670    -0.6398860    -1.1701900
units angstrom
no_reorient  #important for SAPT in psi4, default
symmetry c1  #important for SAPT in psi4, default
}

set PROPERTIES_ORIGIN ["COM"]
properties('MP2/aug-cc-pvtz', properties = ['dipole'])
--------------------------------------------------------------------------

    Molecular point group: c1
  Charge       = 0
  Multiplicity = 1
  Basis Set: AUG-CC-PVTZ
    Blend: AUG-CC-PVTZ
  Basis Set: (AUG-CC-PVTZ AUX)
    Blend: AUG-CC-PVTZ-JKFIT

    Orbital Energies [Eh]
    ---------------------

    Doubly Occupied:

       1A    -20.571385     2A    -11.284298     3A    -11.276105
       4A    -11.219491     5A    -11.216248     6A    -11.214873
       7A    -11.208873     8A     -1.391731     9A     -1.074072
      10A     -1.025957    11A     -0.967714    12A     -0.851635
      13A     -0.842167    14A     -0.755791    15A     -0.686841
      16A     -0.653819    17A     -0.639877    18A     -0.599244
      19A     -0.563684    20A     -0.559191    21A     -0.540632
      22A     -0.526622    23A     -0.508138    24A     -0.502133
      25A     -0.479890    26A     -0.474456    27A     -0.461591
      28A     -0.327112

  @DF-RHF Final Energy:  -309.14125029767030

   => Energetics <=

    Nuclear Repulsion Energy =            301.3039924915448751
    One-Electron Energy =               -1016.0433504548609562
    Two-Electron Energy =                 405.5981076656457276
    Total Energy =                       -309.1412502976702967
  Basis Set: (AUG-CC-PVTZ AUX)
    Blend: AUG-CC-PVTZ-RI
    Molecular point group: c1

    Geometry (in Angstrom), charge = 0, multiplicity = 1:

       Center              X                  Y                   Z               Mass
    ------------   -----------------  -----------------  -----------------  -----------------
         O            0.899961915421     0.105660083829    -0.291567487003    15.994914619570
         C           -1.981291084579    -0.357450916171    -0.538376487003    12.000000000000
         C            2.113024915421     0.165418083829     0.467378512997    12.000000000000
         C           -1.324419084579     0.919147083829    -0.109260487003    12.000000000000
         C           -2.996874084579    -0.853205916171     0.494140512997    12.000000000000
         C           -0.003210084579     1.089193083829     0.032503512997    12.000000000000
         C            3.051695915421    -0.874840916171    -0.102382487003    12.000000000000
         H           -2.488475084579    -0.207856916171    -1.500477487003     1.007825032230
         H           -1.210530084579    -1.115709916171    -0.703109487003     1.007825032230
         H            2.546602915421     1.172720083829     0.390255512997     1.007825032230
         H            1.898750915421    -0.030128916171     1.526429512997     1.007825032230
         H           -1.958330084579     1.775765083829     0.111235512997     1.007825032230
         H           -3.484743084579    -1.773410916171     0.158290512997     1.007825032230
         H           -2.504700084579    -1.055576916171     1.449416512997     1.007825032230
         H           -3.775504084579    -0.104260916171     0.669586512997     1.007825032230
         H            0.425610015421     2.015886183829     0.356889112997     1.007825032230
         H            3.998900915421    -0.873573916171     0.444334512997     1.007825032230
         H            2.604154915421    -1.867920916171    -0.025926487003     1.007825032230
         H            3.251780915421    -0.663736916171    -1.154839487003     1.007825032230

  Basis Set: AUG-CC-PVTZ
    Blend: AUG-CC-PVTZ
  Basis Set: (AUG-CC-PVTZ AUX)
    Blend: AUG-CC-PVTZ-JKFIT
	 Reference Energy          =    -309.1412502976702967 [Eh]
	 Singles Energy            =      -0.0000000000000000 [Eh]
	 Same-Spin Energy          =      -0.3136876069315626 [Eh]
	 Opposite-Spin Energy      =      -1.0989476217515948 [Eh]
	 Correlation Energy        =      -1.4126352286831574 [Eh]
	 Total Energy              =    -310.5538855263534401 [Eh]

	 ================> DF-SCS-MP2 Energies <==================
	-----------------------------------------------------------
	 SCS Same-Spin Scale       =       0.3333333333333333 [-]
	 SCS Opposite-Spin Scale   =       1.2000000000000000 [-]
	 SCS Same-Spin Energy      =      -0.1045625356438542 [Eh]
	 SCS Opposite-Spin Energy  =      -1.3187371461019137 [Eh]
	 SCS Correlation Energy    =      -1.4232996817457679 [Eh]
	 SCS Total Energy          =    -310.5645499794160855 [Eh]
	-----------------------------------------------------------

  Dipole Moment: [D]
     X:     1.0184      Y:     0.3004      Z:     0.7634     Total:     1.3077

*** Psi4 exiting successfully. Buy a developer a beer!
