                               Psi4 1.3.2 release

  ==> Input File <==

--------------------------------------------------------------------------
#psi4
#
memory 32 gb

molecule  {
0 1
  O       -0.8591447    -0.1970143    -0.3165950
  C        2.0174600     0.2824600    -0.5354820
  C       -2.1232200    -0.2252560     0.3552070
  C        1.3918360    -0.8685520     0.1861030
  C        2.7655740     1.2103670     0.4230210
  C        0.0733200    -1.0572940     0.3167640
  C       -2.9822323     0.7011752    -0.4847689
  H        2.7145670    -0.0909720    -1.2924960
  H        1.2438280     0.8410150    -1.0636660
  H       -2.5250500    -1.2529680     0.3825710
  H       -2.0263210     0.1331820     1.3936400
  H        2.0399100    -1.6071390     0.6510050
  H        3.2481390     2.0275410    -0.1185540
  H        2.0757450     1.6393580     1.1523020
  H        3.5397370     0.6653480     0.9697790
  H       -0.3482160    -1.8932280     0.8773390
  H       -4.0255760     0.7295450    -0.0161740
  H       -2.6128620     1.7059100    -0.4684560
  H       -3.0981720     0.3293290    -1.4847820
units angstrom
no_reorient  #important for SAPT in psi4, default
symmetry c1  #important for SAPT in psi4, default
}

set PROPERTIES_ORIGIN ["COM"]
properties('MP2/aug-cc-pvtz', properties = ['dipole'])
--------------------------------------------------------------------------

    Molecular point group: c1
  Charge       = 0
  Multiplicity = 1
  Basis Set: AUG-CC-PVTZ
    Blend: AUG-CC-PVTZ
  Basis Set: (AUG-CC-PVTZ AUX)
    Blend: AUG-CC-PVTZ-JKFIT

    Orbital Energies [Eh]
    ---------------------

    Doubly Occupied:

       1A    -20.571214     2A    -11.283116     3A    -11.280352
       4A    -11.218794     5A    -11.217910     6A    -11.216469
       7A    -11.208999     8A     -1.378184     9A     -1.075854
      10A     -1.020383    11A     -0.967938    12A     -0.849094
      13A     -0.841186    14A     -0.751594    15A     -0.679715
      16A     -0.652546    17A     -0.639078    18A     -0.597618
      19A     -0.560324    20A     -0.556699    21A     -0.541497
      22A     -0.514143    23A     -0.512149    24A     -0.499822
      25A     -0.481086    26A     -0.471793    27A     -0.464832
      28A     -0.331917

  @DF-RHF Final Energy:  -309.13345348619981

   => Energetics <=

    Nuclear Repulsion Energy =            301.7095224586603877
    One-Electron Energy =               -1016.9173353137479126
    Two-Electron Energy =                 406.0743593688876558
    Total Energy =                       -309.1334534861998122
  Basis Set: (AUG-CC-PVTZ AUX)
    Blend: AUG-CC-PVTZ-RI
    Molecular point group: c1

    Geometry (in Angstrom), charge = 0, multiplicity = 1:

       Center              X                  Y                   Z               Mass
    ------------   -----------------  -----------------  -----------------  -----------------
         O           -0.861126955603    -0.203166308628    -0.307167526639    15.994914619570
         C            2.015477744397     0.276307991372    -0.526054526639    12.000000000000
         C           -2.125202255603    -0.231408008628     0.364634473361    12.000000000000
         C            1.389853744397    -0.874704008628     0.195530473361    12.000000000000
         C            2.763591744397     1.204214991372     0.432448473361    12.000000000000
         C            0.071337744397    -1.063446008628     0.326191473361    12.000000000000
         C           -2.984214555603     0.695023191372    -0.475341426639    12.000000000000
         H            2.712584744397    -0.097124008628    -1.283068526639     1.007825032230
         H            1.241845744397     0.834862991372    -1.054238526639     1.007825032230
         H           -2.527032255603    -1.259120008628     0.391998473361     1.007825032230
         H           -2.028303255603     0.127029991372     1.403067473361     1.007825032230
         H            2.037927744397    -1.613291008628     0.660432473361     1.007825032230
         H            3.246156744397     2.021388991372    -0.109126526639     1.007825032230
         H            2.073762744397     1.633205991372     1.161729473361     1.007825032230
         H            3.537754744397     0.659195991372     0.979206473361     1.007825032230
         H           -0.350198255603    -1.899380008628     0.886766473361     1.007825032230
         H           -4.027558255603     0.723392991372    -0.006746526639     1.007825032230
         H           -2.614844255603     1.699757991372    -0.459028526639     1.007825032230
         H           -3.100154255603     0.323176991372    -1.475354526639     1.007825032230

  Basis Set: AUG-CC-PVTZ
    Blend: AUG-CC-PVTZ
  Basis Set: (AUG-CC-PVTZ AUX)
    Blend: AUG-CC-PVTZ-JKFIT
	 Reference Energy          =    -309.1334534861998122 [Eh]
	 Singles Energy            =      -0.0000000000000000 [Eh]
	 Same-Spin Energy          =      -0.3142028248265192 [Eh]
	 Opposite-Spin Energy      =      -1.1009290278925101 [Eh]
	 Correlation Energy        =      -1.4151318527190293 [Eh]
	 Total Energy              =    -310.5485853389188264 [Eh]

	 ================> DF-SCS-MP2 Energies <==================
	-----------------------------------------------------------
	 SCS Same-Spin Scale       =       0.3333333333333333 [-]
	 SCS Opposite-Spin Scale   =       1.2000000000000000 [-]
	 SCS Same-Spin Energy      =      -0.1047342749421731 [Eh]
	 SCS Opposite-Spin Energy  =      -1.3211148334710121 [Eh]
	 SCS Correlation Energy    =      -1.4258491084131852 [Eh]
	 SCS Total Energy          =    -310.5593025946129728 [Eh]
	-----------------------------------------------------------

  Dipole Moment: [D]
     X:    -0.7971      Y:    -0.3004      Z:     0.7937     Total:     1.1643

*** Psi4 exiting successfully. Buy a developer a beer!
