                               Psi4 1.3.2 release

  ==> Input File <==

--------------------------------------------------------------------------
#psi4
#
memory 32 gb

molecule  {
0 1
  O       -0.8411900    -0.2286010    -0.2822800
  C        2.0410727     0.2729026    -0.5297826
  C       -2.1232200    -0.2252560     0.3552070
  C        1.3918360    -0.8685520     0.1861030
  C        2.7655740     1.2103670     0.4230210
  C        0.0775221    -1.0768293     0.3288606
  C       -3.0226980     0.6919650    -0.4518750
  H        2.7145670    -0.0909720    -1.2924960
  H        1.2438280     0.8410150    -1.0636660
  H       -2.5250500    -1.2529680     0.3825710
  H       -2.0263210     0.1331820     1.3936400
  H        2.0399100    -1.6071390     0.6510050
  H        3.2481390     2.0275410    -0.1185540
  H        2.0757450     1.6393580     1.1523020
  H        3.5397370     0.6653480     0.9697790
  H       -0.3482160    -1.8932280     0.8773390
  H       -4.0255760     0.7295450    -0.0161740
  H       -2.6128620     1.7059100    -0.4684560
  H       -3.0981720     0.3293290    -1.4847820
units angstrom
no_reorient  #important for SAPT in psi4, default
symmetry c1  #important for SAPT in psi4, default
}

set PROPERTIES_ORIGIN ["COM"]
properties('MP2/aug-cc-pvtz', properties = ['dipole'])
--------------------------------------------------------------------------

    Molecular point group: c1
  Charge       = 0
  Multiplicity = 1
  Basis Set: AUG-CC-PVTZ
    Blend: AUG-CC-PVTZ
  Basis Set: (AUG-CC-PVTZ AUX)
    Blend: AUG-CC-PVTZ-JKFIT

    Orbital Energies [Eh]
    ---------------------

    Doubly Occupied:

       1A    -20.569712     2A    -11.284432     3A    -11.277997
       4A    -11.219854     5A    -11.216548     6A    -11.215628
       7A    -11.208028     8A     -1.384778     9A     -1.075130
      10A     -1.023841    11A     -0.968767    12A     -0.851408
      13A     -0.840790    14A     -0.753992    15A     -0.683826
      16A     -0.652825    17A     -0.638639    18A     -0.600057
      19A     -0.559823    20A     -0.556891    21A     -0.541791
      22A     -0.524999    23A     -0.514356    24A     -0.499406
      25A     -0.482773    26A     -0.469235    27A     -0.459905
      28A     -0.328501

  @DF-RHF Final Energy:  -309.13899377892818

   => Energetics <=

    Nuclear Repulsion Energy =            301.7102494848970764
    One-Electron Energy =               -1016.8906252924451792
    Two-Electron Energy =                 406.0413820286199211
    Total Energy =                       -309.1389937789281817
  Basis Set: (AUG-CC-PVTZ AUX)
    Blend: AUG-CC-PVTZ-RI
    Molecular point group: c1

    Geometry (in Angstrom), charge = 0, multiplicity = 1:

       Center              X                  Y                   Z               Mass
    ------------   -----------------  -----------------  -----------------  -----------------
         O           -0.844524785289    -0.225112956745    -0.284413701532    15.994914619570
         C            2.037737914711     0.276390643255    -0.531916301532    12.000000000000
         C           -2.126554785289    -0.221767956745     0.353073298468    12.000000000000
         C            1.388501214711    -0.865063956745     0.183969298468    12.000000000000
         C            2.762239214711     1.213855043255     0.420887298468    12.000000000000
         C            0.074187314711    -1.073341256745     0.326726898468    12.000000000000
         C           -3.026032785289     0.695453043255    -0.454008701532    12.000000000000
         H            2.711232214711    -0.087483956745    -1.294629701532     1.007825032230
         H            1.240493214711     0.844503043255    -1.065799701532     1.007825032230
         H           -2.528384785289    -1.249479956745     0.380437298468     1.007825032230
         H           -2.029655785289     0.136670043255     1.391506298468     1.007825032230
         H            2.036575214711    -1.603650956745     0.648871298468     1.007825032230
         H            3.244804214711     2.031029043255    -0.120687701532     1.007825032230
         H            2.072410214711     1.642846043255     1.150168298468     1.007825032230
         H            3.536402214711     0.668836043255     0.967645298468     1.007825032230
         H           -0.351550785289    -1.889739956745     0.875205298468     1.007825032230
         H           -4.028910785289     0.733033043255    -0.018307701532     1.007825032230
         H           -2.616196785289     1.709398043255    -0.470589701532     1.007825032230
         H           -3.101506785289     0.332817043255    -1.486915701532     1.007825032230

  Basis Set: AUG-CC-PVTZ
    Blend: AUG-CC-PVTZ
  Basis Set: (AUG-CC-PVTZ AUX)
    Blend: AUG-CC-PVTZ-JKFIT
	 Reference Energy          =    -309.1389937789281817 [Eh]
	 Singles Energy            =      -0.0000000000000000 [Eh]
	 Same-Spin Energy          =      -0.3138491199817501 [Eh]
	 Opposite-Spin Energy      =      -1.0996588670330409 [Eh]
	 Correlation Energy        =      -1.4135079870147911 [Eh]
	 Total Energy              =    -310.5525017659429636 [Eh]

	 ================> DF-SCS-MP2 Energies <==================
	-----------------------------------------------------------
	 SCS Same-Spin Scale       =       0.3333333333333333 [-]
	 SCS Opposite-Spin Scale   =       1.2000000000000000 [-]
	 SCS Same-Spin Energy      =      -0.1046163733272500 [Eh]
	 SCS Opposite-Spin Energy  =      -1.3195906404396491 [Eh]
	 SCS Correlation Energy    =      -1.4242070137668992 [Eh]
	 SCS Total Energy          =    -310.5632007926950564 [Eh]
	-----------------------------------------------------------

  Dipole Moment: [D]
     X:    -0.9834      Y:    -0.2299      Z:     0.7498     Total:     1.2578

*** Psi4 exiting successfully. Buy a developer a beer!
