                               Psi4 1.3.2 release

  ==> Input File <==

--------------------------------------------------------------------------
#psi4
#
memory 32 gb

molecule  {
0 1
  O       -0.8411900    -0.2286010    -0.2822800
  C        2.0174600     0.2824600    -0.5354820
  C       -2.1232200    -0.2252560     0.3552070
  C        1.3825307    -0.8774369     0.1633905
  C        2.7722888     1.2258976     0.4023735
  C        0.0733200    -1.0572940     0.3167640
  C       -3.0226980     0.6919650    -0.4518750
  H        2.7145670    -0.0909720    -1.2924960
  H        1.2438280     0.8410150    -1.0636660
  H       -2.5250500    -1.2529680     0.3825710
  H       -2.0263210     0.1331820     1.3936400
  H        2.0399100    -1.6071390     0.6510050
  H        3.2481390     2.0275410    -0.1185540
  H        2.0757450     1.6393580     1.1523020
  H        3.5397370     0.6653480     0.9697790
  H       -0.3482160    -1.8932280     0.8773390
  H       -4.0255760     0.7295450    -0.0161740
  H       -2.6128620     1.7059100    -0.4684560
  H       -3.0981720     0.3293290    -1.4847820
units angstrom
no_reorient  #important for SAPT in psi4, default
symmetry c1  #important for SAPT in psi4, default
}

set PROPERTIES_ORIGIN ["COM"]
properties('MP2/aug-cc-pvtz', properties = ['dipole'])
--------------------------------------------------------------------------

    Molecular point group: c1
  Charge       = 0
  Multiplicity = 1
  Basis Set: AUG-CC-PVTZ
    Blend: AUG-CC-PVTZ
  Basis Set: (AUG-CC-PVTZ AUX)
    Blend: AUG-CC-PVTZ-JKFIT

    Orbital Energies [Eh]
    ---------------------

    Doubly Occupied:

       1A    -20.571930     2A    -11.286357     3A    -11.277485
       4A    -11.221052     5A    -11.214760     6A    -11.213371
       7A    -11.208058     8A     -1.393223     9A     -1.075160
      10A     -1.024875    11A     -0.968366    12A     -0.852062
      13A     -0.841808    14A     -0.753262    15A     -0.683966
      16A     -0.654442    17A     -0.642112    18A     -0.597615
      19A     -0.559432    20A     -0.558020    21A     -0.543695
      22A     -0.526442    23A     -0.509482    24A     -0.502280
      25A     -0.479047    26A     -0.472347    27A     -0.462901
      28A     -0.327403

  @DF-RHF Final Energy:  -309.14012713987728

   => Energetics <=

    Nuclear Repulsion Energy =            302.1162238675038338
    One-Electron Energy =               -1017.6707914755843376
    Two-Electron Energy =                 406.4144404682032814
    Total Energy =                       -309.1401271398772792
  Basis Set: (AUG-CC-PVTZ AUX)
    Blend: AUG-CC-PVTZ-RI
    Molecular point group: c1

    Geometry (in Angstrom), charge = 0, multiplicity = 1:

       Center              X                  Y                   Z               Mass
    ------------   -----------------  -----------------  -----------------  -----------------
         O           -0.840879386950    -0.229397759197    -0.277081493633    15.994914619570
         C            2.017770613050     0.281663240803    -0.530283493633    12.000000000000
         C           -2.122909386950    -0.226052759197     0.360405506367    12.000000000000
         C            1.382841313050    -0.878233659197     0.168589006367    12.000000000000
         C            2.772599413050     1.225100840803     0.407572006367    12.000000000000
         C            0.073630613050    -1.058090759197     0.321962506367    12.000000000000
         C           -3.022387386950     0.691168240803    -0.446676493633    12.000000000000
         H            2.714877613050    -0.091768759197    -1.287297493633     1.007825032230
         H            1.244138613050     0.840218240803    -1.058467493633     1.007825032230
         H           -2.524739386950    -1.253764759197     0.387769506367     1.007825032230
         H           -2.026010386950     0.132385240803     1.398838506367     1.007825032230
         H            2.040220613050    -1.607935759197     0.656203506367     1.007825032230
         H            3.248449613050     2.026744240803    -0.113355493633     1.007825032230
         H            2.076055613050     1.638561240803     1.157500506367     1.007825032230
         H            3.540047613050     0.664551240803     0.974977506367     1.007825032230
         H           -0.347905386950    -1.894024759197     0.882537506367     1.007825032230
         H           -4.025265386950     0.728748240803    -0.010975493633     1.007825032230
         H           -2.612551386950     1.705113240803    -0.463257493633     1.007825032230
         H           -3.097861386950     0.328532240803    -1.479583493633     1.007825032230

  Basis Set: AUG-CC-PVTZ
    Blend: AUG-CC-PVTZ
  Basis Set: (AUG-CC-PVTZ AUX)
    Blend: AUG-CC-PVTZ-JKFIT
	 Reference Energy          =    -309.1401271398772792 [Eh]
	 Singles Energy            =      -0.0000000000000000 [Eh]
	 Same-Spin Energy          =      -0.3137373558428964 [Eh]
	 Opposite-Spin Energy      =      -1.0990258362758512 [Eh]
	 Correlation Energy        =      -1.4127631921187476 [Eh]
	 Total Energy              =    -310.5528903319960250 [Eh]

	 ================> DF-SCS-MP2 Energies <==================
	-----------------------------------------------------------
	 SCS Same-Spin Scale       =       0.3333333333333333 [-]
	 SCS Opposite-Spin Scale   =       1.2000000000000000 [-]
	 SCS Same-Spin Energy      =      -0.1045791186142988 [Eh]
	 SCS Opposite-Spin Energy  =      -1.3188310035310213 [Eh]
	 SCS Correlation Energy    =      -1.4234101221453201 [Eh]
	 SCS Total Energy          =    -310.5635372620225780 [Eh]
	-----------------------------------------------------------

  Dipole Moment: [D]
     X:    -1.0993      Y:    -0.1654      Z:     0.7483     Total:     1.3401

*** Psi4 exiting successfully. Buy a developer a beer!
