                               Psi4 1.3.2 release

  ==> Input File <==

--------------------------------------------------------------------------
#psi4
#
memory 32 gb

molecule  {
0 1
  O       -0.8411900    -0.2286010    -0.2822800
  C        2.0174600     0.2824600    -0.5354820
  C       -2.1232200    -0.2252560     0.3552070
  C        1.4056741    -0.8850369     0.1713333
  C        2.7655740     1.2103670     0.4230210
  C        0.0733200    -1.0572940     0.3167640
  C       -3.0226980     0.6919650    -0.4518750
  H        2.7103323    -0.1088715    -1.2873247
  H        1.2438280     0.8410150    -1.0636660
  H       -2.5250500    -1.2529680     0.3825710
  H       -2.0263210     0.1331820     1.3936400
  H        2.0399100    -1.6071390     0.6510050
  H        3.2481390     2.0275410    -0.1185540
  H        2.0757450     1.6393580     1.1523020
  H        3.5397370     0.6653480     0.9697790
  H       -0.3482160    -1.8932280     0.8773390
  H       -4.0255760     0.7295450    -0.0161740
  H       -2.6128620     1.7059100    -0.4684560
  H       -3.0981720     0.3293290    -1.4847820
units angstrom
no_reorient  #important for SAPT in psi4, default
symmetry c1  #important for SAPT in psi4, default
}

set PROPERTIES_ORIGIN ["COM"]
properties('MP2/aug-cc-pvtz', properties = ['dipole'])
--------------------------------------------------------------------------

    Molecular point group: c1
  Charge       = 0
  Multiplicity = 1
  Basis Set: AUG-CC-PVTZ
    Blend: AUG-CC-PVTZ
  Basis Set: (AUG-CC-PVTZ AUX)
    Blend: AUG-CC-PVTZ-JKFIT

    Orbital Energies [Eh]
    ---------------------

    Doubly Occupied:

       1A    -20.573129     2A    -11.286760     3A    -11.280048
       4A    -11.221318     5A    -11.214690     6A    -11.213759
       7A    -11.207674     8A     -1.393609     9A     -1.073473
      10A     -1.025191    11A     -0.965054    12A     -0.852104
      13A     -0.841465    14A     -0.755758    15A     -0.683137
      16A     -0.654480    17A     -0.642958    18A     -0.596282
      19A     -0.562469    20A     -0.556693    21A     -0.542469
      22A     -0.528447    23A     -0.510342    24A     -0.501967
      25A     -0.476738    26A     -0.474625    27A     -0.465285
      28A     -0.322681

  @DF-RHF Final Energy:  -309.13985822679626

   => Energetics <=

    Nuclear Repulsion Energy =            301.8866595128505992
    One-Electron Energy =               -1017.2078278509522988
    Two-Electron Energy =                 406.1813101113053790
    Total Energy =                       -309.1398582267962638
  Basis Set: (AUG-CC-PVTZ AUX)
    Blend: AUG-CC-PVTZ-RI
    Molecular point group: c1

    Geometry (in Angstrom), charge = 0, multiplicity = 1:

       Center              X                  Y                   Z               Mass
    ------------   -----------------  -----------------  -----------------  -----------------
         O           -0.842806429080    -0.226444314657    -0.280561356649    15.994914619570
         C            2.015843570920     0.284616685343    -0.533763356649    12.000000000000
         C           -2.124836429080    -0.223099314657     0.356925643351    12.000000000000
         C            1.404057670920    -0.882880214657     0.173051943351    12.000000000000
         C            2.763957570920     1.212523685343     0.424739643351    12.000000000000
         C            0.071703570920    -1.055137314657     0.318482643351    12.000000000000
         C           -3.024314429080     0.694121685343    -0.450156356649    12.000000000000
         H            2.708715870920    -0.106714814657    -1.285606056649     1.007825032230
         H            1.242211570920     0.843171685343    -1.061947356649     1.007825032230
         H           -2.526666429080    -1.250811314657     0.384289643351     1.007825032230
         H           -2.027937429080     0.135338685343     1.395358643351     1.007825032230
         H            2.038293570920    -1.604982314657     0.652723643351     1.007825032230
         H            3.246522570920     2.029697685343    -0.116835356649     1.007825032230
         H            2.074128570920     1.641514685343     1.154020643351     1.007825032230
         H            3.538120570920     0.667504685343     0.971497643351     1.007825032230
         H           -0.349832429080    -1.891071314657     0.879057643351     1.007825032230
         H           -4.027192429080     0.731701685343    -0.014455356649     1.007825032230
         H           -2.614478429080     1.708066685343    -0.466737356649     1.007825032230
         H           -3.099788429080     0.331485685343    -1.483063356649     1.007825032230

  Basis Set: AUG-CC-PVTZ
    Blend: AUG-CC-PVTZ
  Basis Set: (AUG-CC-PVTZ AUX)
    Blend: AUG-CC-PVTZ-JKFIT
	 Reference Energy          =    -309.1398582267962638 [Eh]
	 Singles Energy            =      -0.0000000000000000 [Eh]
	 Same-Spin Energy          =      -0.3139582488925013 [Eh]
	 Opposite-Spin Energy      =      -1.0995559799992740 [Eh]
	 Correlation Energy        =      -1.4135142288917752 [Eh]
	 Total Energy              =    -310.5533724556880202 [Eh]

	 ================> DF-SCS-MP2 Energies <==================
	-----------------------------------------------------------
	 SCS Same-Spin Scale       =       0.3333333333333333 [-]
	 SCS Opposite-Spin Scale   =       1.2000000000000000 [-]
	 SCS Same-Spin Energy      =      -0.1046527496308338 [Eh]
	 SCS Opposite-Spin Energy  =      -1.3194671759991288 [Eh]
	 SCS Correlation Energy    =      -1.4241199256299626 [Eh]
	 SCS Total Energy          =    -310.5639781524262162 [Eh]
	-----------------------------------------------------------

  Dipole Moment: [D]
     X:    -1.1175      Y:    -0.1689      Z:     0.7513     Total:     1.3571

*** Psi4 exiting successfully. Buy a developer a beer!
