                               Psi4 1.3.2 release

  ==> Input File <==

--------------------------------------------------------------------------
#psi4
#
memory 32 gb

molecule  {
0 1
  O       -0.8411900    -0.2286010    -0.2822800
  C        2.0174600     0.2824600    -0.5354820
  C       -2.1232200    -0.2252560     0.3552070
  C        1.4754961    -0.7146357     0.0896108
  C        2.7655740     1.2103670     0.4230210
  C        0.0733200    -1.0572940     0.3167640
  C       -3.0226980     0.6919650    -0.4518750
  H        2.7145670    -0.0909720    -1.2924960
  H        1.2438280     0.8410150    -1.0636660
  H       -2.5250500    -1.2529680     0.3825710
  H       -2.0263210     0.1331820     1.3936400
  H        2.0399100    -1.6071390     0.6510050
  H        3.2481390     2.0275410    -0.1185540
  H        2.0757450     1.6393580     1.1523020
  H        3.5397370     0.6653480     0.9697790
  H       -0.3482160    -1.8932280     0.8773390
  H       -4.0255760     0.7295450    -0.0161740
  H       -2.6128620     1.7059100    -0.4684560
  H       -3.0981720     0.3293290    -1.4847820
units angstrom
no_reorient  #important for SAPT in psi4, default
symmetry c1  #important for SAPT in psi4, default
}

set PROPERTIES_ORIGIN ["COM"]
properties('MP2/aug-cc-pvtz', properties = ['dipole'])
--------------------------------------------------------------------------

    Molecular point group: c1
  Charge       = 0
  Multiplicity = 1
  Basis Set: AUG-CC-PVTZ
    Blend: AUG-CC-PVTZ
  Basis Set: (AUG-CC-PVTZ AUX)
    Blend: AUG-CC-PVTZ-JKFIT

    Orbital Energies [Eh]
    ---------------------

    Doubly Occupied:

       1A    -20.570433     2A    -11.293141     3A    -11.285392
       4A    -11.230617     5A    -11.220670     6A    -11.211852
       7A    -11.204822     8A     -1.392151     9A     -1.106160
      10A     -1.029557    11A     -0.946036    12A     -0.871985
      13A     -0.839667    14A     -0.745292    15A     -0.683728
      16A     -0.655548    17A     -0.645309    18A     -0.618088
      19A     -0.559372    20A     -0.550313    21A     -0.546678
      22A     -0.531612    23A     -0.512667    24A     -0.510066
      25A     -0.493241    26A     -0.467482    27A     -0.447075
      28A     -0.292724

  @DF-RHF Final Energy:  -309.07267471562432

   => Energetics <=

    Nuclear Repulsion Energy =            303.1990215575167440
    One-Electron Energy =               -1019.6200396973073339
    Two-Electron Energy =                 407.3483434241662735
    Total Energy =                       -309.0726747156243164
  Basis Set: (AUG-CC-PVTZ AUX)
    Blend: AUG-CC-PVTZ-RI
    Molecular point group: c1

    Geometry (in Angstrom), charge = 0, multiplicity = 1:

       Center              X                  Y                   Z               Mass
    ------------   -----------------  -----------------  -----------------  -----------------
         O           -0.851220274690    -0.247054549318    -0.270711287332    15.994914619570
         C            2.007429725310     0.264006450682    -0.523913287332    12.000000000000
         C           -2.133250274690    -0.243709549318     0.366775712668    12.000000000000
         C            1.465465825310    -0.733089249318     0.101179512668    12.000000000000
         C            2.755543725310     1.191913450682     0.434589712668    12.000000000000
         C            0.063289725310    -1.075747549318     0.328332712668    12.000000000000
         C           -3.032728274690     0.673511450682    -0.440306287332    12.000000000000
         H            2.704536725310    -0.109425549318    -1.280927287332     1.007825032230
         H            1.233797725310     0.822561450682    -1.052097287332     1.007825032230
         H           -2.535080274690    -1.271421549318     0.394139712668     1.007825032230
         H           -2.036351274690     0.114728450682     1.405208712668     1.007825032230
         H            2.029879725310    -1.625592549318     0.662573712668     1.007825032230
         H            3.238108725310     2.009087450682    -0.106985287332     1.007825032230
         H            2.065714725310     1.620904450682     1.163870712668     1.007825032230
         H            3.529706725310     0.646894450682     0.981347712668     1.007825032230
         H           -0.358246274690    -1.911681549318     0.888907712668     1.007825032230
         H           -4.035606274690     0.711091450682    -0.004605287332     1.007825032230
         H           -2.622892274690     1.687456450682    -0.456887287332     1.007825032230
         H           -3.108202274690     0.310875450682    -1.473213287332     1.007825032230

  Basis Set: AUG-CC-PVTZ
    Blend: AUG-CC-PVTZ
  Basis Set: (AUG-CC-PVTZ AUX)
    Blend: AUG-CC-PVTZ-JKFIT
	 Reference Energy          =    -309.0726747156243164 [Eh]
	 Singles Energy            =      -0.0000000000000000 [Eh]
	 Same-Spin Energy          =      -0.3194774436361961 [Eh]
	 Opposite-Spin Energy      =      -1.1082119404368500 [Eh]
	 Correlation Energy        =      -1.4276893840730462 [Eh]
	 Total Energy              =    -310.5003640996973786 [Eh]

	 ================> DF-SCS-MP2 Energies <==================
	-----------------------------------------------------------
	 SCS Same-Spin Scale       =       0.3333333333333333 [-]
	 SCS Opposite-Spin Scale   =       1.2000000000000000 [-]
	 SCS Same-Spin Energy      =      -0.1064924812120654 [Eh]
	 SCS Opposite-Spin Energy  =      -1.3298543285242199 [Eh]
	 SCS Correlation Energy    =      -1.4363468097362853 [Eh]
	 SCS Total Energy          =    -310.5090215253605948 [Eh]
	-----------------------------------------------------------

  Dipole Moment: [D]
     X:    -1.0891      Y:    -0.0310      Z:     0.6088     Total:     1.2480

*** Psi4 exiting successfully. Buy a developer a beer!
