                               Psi4 1.3.2 release

  ==> Input File <==

--------------------------------------------------------------------------
#psi4
#
memory 32 gb

molecule  {
0 1
  O       -0.8411900    -0.2286010    -0.2822800
  C        2.0174600     0.2824600    -0.5354820
  C       -2.1232200    -0.2252560     0.3552070
  C        1.4196985    -0.9011662     0.1563483
  C        2.7655740     1.2103670     0.4230210
  C        0.0733200    -1.0572940     0.3167640
  C       -3.0226980     0.6919650    -0.4518750
  H        2.7058865    -0.1266519    -1.2819244
  H        1.2438280     0.8410150    -1.0636660
  H       -2.5250500    -1.2529680     0.3825710
  H       -2.0263210     0.1331820     1.3936400
  H        2.0399100    -1.6071390     0.6510050
  H        3.2481390     2.0275410    -0.1185540
  H        2.0757450     1.6393580     1.1523020
  H        3.5397370     0.6653480     0.9697790
  H       -0.3482160    -1.8932280     0.8773390
  H       -4.0255760     0.7295450    -0.0161740
  H       -2.6128620     1.7059100    -0.4684560
  H       -3.0981720     0.3293290    -1.4847820
units angstrom
no_reorient  #important for SAPT in psi4, default
symmetry c1  #important for SAPT in psi4, default
}

set PROPERTIES_ORIGIN ["COM"]
properties('MP2/aug-cc-pvtz', properties = ['dipole'])
--------------------------------------------------------------------------

    Molecular point group: c1
  Charge       = 0
  Multiplicity = 1
  Basis Set: AUG-CC-PVTZ
    Blend: AUG-CC-PVTZ
  Basis Set: (AUG-CC-PVTZ AUX)
    Blend: AUG-CC-PVTZ-JKFIT

    Orbital Energies [Eh]
    ---------------------

    Doubly Occupied:

       1A    -20.574062     2A    -11.287145     3A    -11.282101
       4A    -11.221568     5A    -11.214816     6A    -11.214111
       7A    -11.207936     8A     -1.394084     9A     -1.072316
      10A     -1.025396    11A     -0.963313    12A     -0.852789
      13A     -0.841479    14A     -0.757048    15A     -0.682555
      16A     -0.654582    17A     -0.643430    18A     -0.594882
      19A     -0.564388    20A     -0.556284    21A     -0.542736
      22A     -0.529516    23A     -0.511055    24A     -0.502261
      25A     -0.475886    26A     -0.474345    27A     -0.466285
      28A     -0.319703

  @DF-RHF Final Energy:  -309.13759735112012

   => Energetics <=

    Nuclear Repulsion Energy =            301.6398578568825997
    One-Electron Energy =               -1016.7027689202370766
    Two-Electron Energy =                 405.9253137122343560
    Total Energy =                       -309.1375973511201209
  Basis Set: (AUG-CC-PVTZ AUX)
    Blend: AUG-CC-PVTZ-RI
    Molecular point group: c1

    Geometry (in Angstrom), charge = 0, multiplicity = 1:

       Center              X                  Y                   Z               Mass
    ------------   -----------------  -----------------  -----------------  -----------------
         O           -0.844443097588    -0.224331479850    -0.278819129583    15.994914619570
         C            2.014206902412     0.286729520150    -0.532021129583    12.000000000000
         C           -2.126473097588    -0.220986479850     0.358667870417    12.000000000000
         C            1.416445402412    -0.896896679850     0.159809170417    12.000000000000
         C            2.762320902412     1.214636520150     0.426481870417    12.000000000000
         C            0.070066902412    -1.053024479850     0.320224870417    12.000000000000
         C           -3.025951097588     0.696234520150    -0.448414129583    12.000000000000
         H            2.702633402412    -0.122382379850    -1.278463529583     1.007825032230
         H            1.240574902412     0.845284520150    -1.060205129583     1.007825032230
         H           -2.528303097588    -1.248698479850     0.386031870417     1.007825032230
         H           -2.029574097588     0.137451520150     1.397100870417     1.007825032230
         H            2.036656902412    -1.602869479850     0.654465870417     1.007825032230
         H            3.244885902412     2.031810520150    -0.115093129583     1.007825032230
         H            2.072491902412     1.643627520150     1.155762870417     1.007825032230
         H            3.536483902412     0.669617520150     0.973239870417     1.007825032230
         H           -0.351469097588    -1.888958479850     0.880799870417     1.007825032230
         H           -4.028829097588     0.733814520150    -0.012713129583     1.007825032230
         H           -2.616115097588     1.710179520150    -0.464995129583     1.007825032230
         H           -3.101425097588     0.333598520150    -1.481321129583     1.007825032230

  Basis Set: AUG-CC-PVTZ
    Blend: AUG-CC-PVTZ
  Basis Set: (AUG-CC-PVTZ AUX)
    Blend: AUG-CC-PVTZ-JKFIT
	 Reference Energy          =    -309.1375973511201209 [Eh]
	 Singles Energy            =      -0.0000000000000000 [Eh]
	 Same-Spin Energy          =      -0.3141472747687530 [Eh]
	 Opposite-Spin Energy      =      -1.1000360885683642 [Eh]
	 Correlation Energy        =      -1.4141833633371172 [Eh]
	 Total Energy              =    -310.5517807144572657 [Eh]

	 ================> DF-SCS-MP2 Energies <==================
	-----------------------------------------------------------
	 SCS Same-Spin Scale       =       0.3333333333333333 [-]
	 SCS Opposite-Spin Scale   =       1.2000000000000000 [-]
	 SCS Same-Spin Energy      =      -0.1047157582562510 [Eh]
	 SCS Opposite-Spin Energy  =      -1.3200433062820369 [Eh]
	 SCS Correlation Energy    =      -1.4247590645382879 [Eh]
	 SCS Total Energy          =    -310.5623564156584280 [Eh]
	-----------------------------------------------------------

  Dipole Moment: [D]
     X:    -1.1388      Y:    -0.1472      Z:     0.7772     Total:     1.3865

*** Psi4 exiting successfully. Buy a developer a beer!
