                               Psi4 1.3.2 release

  ==> Input File <==

--------------------------------------------------------------------------
#psi4
#
memory 32 gb

molecule  {
0 1
  O       -0.8411900    -0.2286010    -0.2822800
  C        2.0174600     0.2824600    -0.5354820
  C       -2.0336792    -0.2254896     0.3106830
  C        1.3918360    -0.8685520     0.1861030
  C        2.7655740     1.2103670     0.4230210
  C        0.0733200    -1.0572940     0.3167640
  C       -3.0226980     0.6919650    -0.4518750
  H        2.7145670    -0.0909720    -1.2924960
  H        1.2438280     0.8410150    -1.0636660
  H       -2.5250500    -1.2529680     0.3825710
  H       -2.0263210     0.1331820     1.3936400
  H        2.0399100    -1.6071390     0.6510050
  H        3.2481390     2.0275410    -0.1185540
  H        2.0757450     1.6393580     1.1523020
  H        3.5397370     0.6653480     0.9697790
  H       -0.3482160    -1.8932280     0.8773390
  H       -4.0255760     0.7295450    -0.0161740
  H       -2.6128620     1.7059100    -0.4684560
  H       -3.0981720     0.3293290    -1.4847820
units angstrom
no_reorient  #important for SAPT in psi4, default
symmetry c1  #important for SAPT in psi4, default
}

set PROPERTIES_ORIGIN ["COM"]
properties('MP2/aug-cc-pvtz', properties = ['dipole'])
--------------------------------------------------------------------------

    Molecular point group: c1
  Charge       = 0
  Multiplicity = 1
  Basis Set: AUG-CC-PVTZ
    Blend: AUG-CC-PVTZ
  Basis Set: (AUG-CC-PVTZ AUX)
    Blend: AUG-CC-PVTZ-JKFIT

    Orbital Energies [Eh]
    ---------------------

    Doubly Occupied:

       1A    -20.581484     2A    -11.286746     3A    -11.283843
       4A    -11.220601     5A    -11.218904     6A    -11.218109
       7A    -11.210572     8A     -1.431968     9A     -1.081452
      10A     -1.019380    11A     -0.968775    12A     -0.857703
      13A     -0.838761    14A     -0.767538    15A     -0.692547
      16A     -0.661242    17A     -0.650427    18A     -0.604621
      19A     -0.564289    20A     -0.562874    21A     -0.543038
      22A     -0.537761    23A     -0.512820    24A     -0.486524
      25A     -0.483129    26A     -0.465354    27A     -0.451014
      28A     -0.332371

  @DF-RHF Final Energy:  -309.13256503246618

   => Energetics <=

    Nuclear Repulsion Energy =            303.6595297977004293
    One-Electron Energy =               -1020.5164933011139965
    Two-Electron Energy =                 407.7243984709473921
    Total Energy =                       -309.1325650324661751
  Basis Set: (AUG-CC-PVTZ AUX)
    Blend: AUG-CC-PVTZ-RI
    Molecular point group: c1

    Geometry (in Angstrom), charge = 0, multiplicity = 1:

       Center              X                  Y                   Z               Mass
    ------------   -----------------  -----------------  -----------------  -----------------
         O           -0.851925332492    -0.228572975729    -0.276941937580    15.994914619570
         C            2.006724667508     0.282488024271    -0.530143937580    12.000000000000
         C           -2.044414532492    -0.225461575729     0.316021062420    12.000000000000
         C            1.381100667508    -0.868523975729     0.191441062420    12.000000000000
         C            2.754838667508     1.210395024271     0.428359062420    12.000000000000
         C            0.062584667508    -1.057265975729     0.322102062420    12.000000000000
         C           -3.033433332492     0.691993024271    -0.446536937580    12.000000000000
         H            2.703831667508    -0.090943975729    -1.287157937580     1.007825032230
         H            1.233092667508     0.841043024271    -1.058327937580     1.007825032230
         H           -2.535785332492    -1.252939975729     0.387909062420     1.007825032230
         H           -2.037056332492     0.133210024271     1.398978062420     1.007825032230
         H            2.029174667508    -1.607110975729     0.656343062420     1.007825032230
         H            3.237403667508     2.027569024271    -0.113215937580     1.007825032230
         H            2.065009667508     1.639386024271     1.157640062420     1.007825032230
         H            3.529001667508     0.665376024271     0.975117062420     1.007825032230
         H           -0.358951332492    -1.893199975729     0.882677062420     1.007825032230
         H           -4.036311332492     0.729573024271    -0.010835937580     1.007825032230
         H           -2.623597332492     1.705938024271    -0.463117937580     1.007825032230
         H           -3.108907332492     0.329357024271    -1.479443937580     1.007825032230

  Basis Set: AUG-CC-PVTZ
    Blend: AUG-CC-PVTZ
  Basis Set: (AUG-CC-PVTZ AUX)
    Blend: AUG-CC-PVTZ-JKFIT
	 Reference Energy          =    -309.1325650324661751 [Eh]
	 Singles Energy            =      -0.0000000000000000 [Eh]
	 Same-Spin Energy          =      -0.3137300328180687 [Eh]
	 Opposite-Spin Energy      =      -1.0981990944412812 [Eh]
	 Correlation Energy        =      -1.4119291272593499 [Eh]
	 Total Energy              =    -310.5444941597255024 [Eh]

	 ================> DF-SCS-MP2 Energies <==================
	-----------------------------------------------------------
	 SCS Same-Spin Scale       =       0.3333333333333333 [-]
	 SCS Opposite-Spin Scale   =       1.2000000000000000 [-]
	 SCS Same-Spin Energy      =      -0.1045766776060229 [Eh]
	 SCS Opposite-Spin Energy  =      -1.3178389133295374 [Eh]
	 SCS Correlation Energy    =      -1.4224155909355602 [Eh]
	 SCS Total Energy          =    -310.5549806234017183 [Eh]
	-----------------------------------------------------------

  Dipole Moment: [D]
     X:    -0.5076      Y:    -0.2340      Z:     0.5864     Total:     0.8102

*** Psi4 exiting successfully. Buy a developer a beer!
