                               Psi4 1.3.2 release

  ==> Input File <==

--------------------------------------------------------------------------
#psi4
#
memory 32 gb

molecule  {
0 1
  O       -0.8411900    -0.2286010    -0.2822800
  C        2.0174600     0.2824600    -0.5354820
  C       -2.1232200    -0.2252560     0.3552070
  C        1.3918360    -0.8685520     0.1861030
  C        2.7655740     1.2103670     0.4230210
  C        0.2703561    -1.0290888     0.2972383
  C       -3.0226980     0.6919650    -0.4518750
  H        2.7145670    -0.0909720    -1.2924960
  H        1.2438280     0.8410150    -1.0636660
  H       -2.5250500    -1.2529680     0.3825710
  H       -2.0263210     0.1331820     1.3936400
  H        2.0399100    -1.6071390     0.6510050
  H        3.2481390     2.0275410    -0.1185540
  H        2.0757450     1.6393580     1.1523020
  H        3.5397370     0.6653480     0.9697790
  H       -0.3482160    -1.8932280     0.8773390
  H       -4.0255760     0.7295450    -0.0161740
  H       -2.6128620     1.7059100    -0.4684560
  H       -3.0981720     0.3293290    -1.4847820
units angstrom
no_reorient  #important for SAPT in psi4, default
symmetry c1  #important for SAPT in psi4, default
}

set PROPERTIES_ORIGIN ["COM"]
properties('MP2/aug-cc-pvtz', properties = ['dipole'])
--------------------------------------------------------------------------

    Molecular point group: c1
  Charge       = 0
  Multiplicity = 1
  Basis Set: AUG-CC-PVTZ
    Blend: AUG-CC-PVTZ
  Basis Set: (AUG-CC-PVTZ AUX)
    Blend: AUG-CC-PVTZ-JKFIT

    Orbital Energies [Eh]
    ---------------------

    Doubly Occupied:

       1A    -20.550839     2A    -11.277153     3A    -11.265976
       4A    -11.221443     5A    -11.214847     6A    -11.212544
       7A    -11.192315     8A     -1.343089     9A     -1.120770
      10A     -1.016711    11A     -0.993633    12A     -0.849070
      13A     -0.832649    14A     -0.733979    15A     -0.677596
      16A     -0.642855    17A     -0.636233    18A     -0.597163
      19A     -0.568229    20A     -0.544008    21A     -0.537615
      22A     -0.525806    23A     -0.512789    24A     -0.495902
      25A     -0.484045    26A     -0.463144    27A     -0.430998
      28A     -0.381052

  @DF-RHF Final Energy:  -309.06368513121186

   => Energetics <=

    Nuclear Repulsion Energy =            303.0796575547903444
    One-Electron Energy =               -1019.6417812097379283
    Two-Electron Energy =                 407.4984385237356719
    Total Energy =                       -309.0636851312118552
  Basis Set: (AUG-CC-PVTZ AUX)
    Blend: AUG-CC-PVTZ-RI
    Molecular point group: c1

    Geometry (in Angstrom), charge = 0, multiplicity = 1:

       Center              X                  Y                   Z               Mass
    ------------   -----------------  -----------------  -----------------  -----------------
         O           -0.864813322024    -0.231982603467    -0.279939071675    15.994914619570
         C            1.993836677976     0.279078396533    -0.533141071675    12.000000000000
         C           -2.146843322024    -0.228637603467     0.357547928325    12.000000000000
         C            1.368212677976    -0.871933603467     0.188443928325    12.000000000000
         C            2.741950677976     1.206985396533     0.425361928325    12.000000000000
         C            0.246732777976    -1.032470403467     0.299579228325    12.000000000000
         C           -3.046321322024     0.688583396533    -0.449534071675    12.000000000000
         H            2.690943677976    -0.094353603467    -1.290155071675     1.007825032230
         H            1.220204677976     0.837633396533    -1.061325071675     1.007825032230
         H           -2.548673322024    -1.256349603467     0.384911928325     1.007825032230
         H           -2.049944322024     0.129800396533     1.395980928325     1.007825032230
         H            2.016286677976    -1.610520603467     0.653345928325     1.007825032230
         H            3.224515677976     2.024159396533    -0.116213071675     1.007825032230
         H            2.052121677976     1.635976396533     1.154642928325     1.007825032230
         H            3.516113677976     0.661966396533     0.972119928325     1.007825032230
         H           -0.371839322024    -1.896609603467     0.879679928325     1.007825032230
         H           -4.049199322024     0.726163396533    -0.013833071675     1.007825032230
         H           -2.636485322024     1.702528396533    -0.466115071675     1.007825032230
         H           -3.121795322024     0.325947396533    -1.482441071675     1.007825032230

  Basis Set: AUG-CC-PVTZ
    Blend: AUG-CC-PVTZ
  Basis Set: (AUG-CC-PVTZ AUX)
    Blend: AUG-CC-PVTZ-JKFIT
	 Reference Energy          =    -309.0636851312118552 [Eh]
	 Singles Energy            =      -0.0000000000000000 [Eh]
	 Same-Spin Energy          =      -0.3137120892148350 [Eh]
	 Opposite-Spin Energy      =      -1.0982882404837238 [Eh]
	 Correlation Energy        =      -1.4120003296985586 [Eh]
	 Total Energy              =    -310.4756854609104266 [Eh]

	 ================> DF-SCS-MP2 Energies <==================
	-----------------------------------------------------------
	 SCS Same-Spin Scale       =       0.3333333333333333 [-]
	 SCS Opposite-Spin Scale   =       1.2000000000000000 [-]
	 SCS Same-Spin Energy      =      -0.1045706964049450 [Eh]
	 SCS Opposite-Spin Energy  =      -1.3179458885804685 [Eh]
	 SCS Correlation Energy    =      -1.4225165849854133 [Eh]
	 SCS Total Energy          =    -310.4862017161972858 [Eh]
	-----------------------------------------------------------

  Dipole Moment: [D]
     X:    -0.1010      Y:    -0.2654      Z:     0.8169     Total:     0.8649

*** Psi4 exiting successfully. Buy a developer a beer!
