                               Psi4 1.4a3.dev225

  ==> Input File <==

--------------------------------------------------------------------------
#psi4
#
memory 32 gb

molecule  {
0 1
  O        0.9059480     0.1295110    -0.3069180
  C       -1.9753050    -0.3336000    -0.5537270
  C        2.1190110     0.1892690     0.4520280
  C       -1.3184330     0.9429980    -0.1246110
  C       -2.9908880    -0.8293550     0.4787900
  C        0.0027760     1.1130440     0.0171530
  C        3.0576820    -0.8509900    -0.1177330
  H       -2.4824890    -0.1840060    -1.5158280
  H       -1.2045440    -1.0918590    -0.7184600
  H        2.5525890     1.1965710     0.3749050
  H        1.9047370    -0.0062780     1.5110790
  H       -1.9639943     1.8153592     0.0999374
  H       -3.4787570    -1.7495600     0.1429400
  H       -2.4987140    -1.0317260     1.4340660
  H       -3.7695180    -0.0804100     0.6542360
  H        0.4396010     2.0570360     0.3475940
  H        4.0048870    -0.8497230     0.4289840
  H        2.6101410    -1.8440700    -0.0412770
  H        3.2577670    -0.6398860    -1.1701900
units angstrom
no_reorient  #important for SAPT in psi4, default
symmetry c1  #important for SAPT in psi4, default
}

set PROPERTIES_ORIGIN ["COM"]
properties('MP2/aug-cc-pvtz', properties = ['dipole'])
--------------------------------------------------------------------------

    Molecular point group: c1
  Charge       = 0
  Multiplicity = 1
  Basis Set: AUG-CC-PVTZ
    Blend: AUG-CC-PVTZ
  Basis Set: (AUG-CC-PVTZ AUX)
    Blend: AUG-CC-PVTZ-JKFIT

    Orbital Energies [Eh]
    ---------------------

    Doubly Occupied:

       1A    -20.571924     2A    -11.284423     3A    -11.278594
       4A    -11.219579     5A    -11.217588     6A    -11.216428
       7A    -11.208956     8A     -1.392047     9A     -1.073653
      10A     -1.026029    11A     -0.966943    12A     -0.851356
      13A     -0.841433    14A     -0.753302    15A     -0.684802
      16A     -0.652846    17A     -0.639210    18A     -0.599372
      19A     -0.563206    20A     -0.557848    21A     -0.540319
      22A     -0.526167    23A     -0.508082    24A     -0.502299
      25A     -0.479782    26A     -0.474084    27A     -0.461280
      28A     -0.327360

  @DF-RHF Final Energy:  -309.14046725664087

   => Energetics <=

    Nuclear Repulsion Energy =            301.1094586252962699
    One-Electron Energy =               -1015.6620272291149831
    Two-Electron Energy =                 405.4121013471778383
    Total Energy =                       -309.1404672566408749
  Basis Set: (AUG-CC-PVTZ AUX)
    Blend: AUG-CC-PVTZ-RI
    Molecular point group: c1

    Geometry (in Angstrom), charge = 0, multiplicity = 1:

       Center              X                  Y                   Z               Mass
    ------------   -----------------  -----------------  -----------------  -----------------
         O            0.899998622074     0.105327372772    -0.291669265547    15.994914619570
         C           -1.981254377926    -0.357783627228    -0.538478265547    12.000000000000
         C            2.113061622074     0.165085372772     0.467276734453    12.000000000000
         C           -1.324382377926     0.918814372772    -0.109362265547    12.000000000000
         C           -2.996837377926    -0.853538627228     0.494038734453    12.000000000000
         C           -0.003173377926     1.088860372772     0.032401734453    12.000000000000
         C            3.051732622074    -0.875173627228    -0.102484265547    12.000000000000
         H           -2.488438377926    -0.208189627228    -1.500579265547     1.007825032230
         H           -1.210493377926    -1.116042627228    -0.703211265547     1.007825032230
         H            2.546639622074     1.172387372772     0.390153734453     1.007825032230
         H            1.898787622074    -0.030461627228     1.526327734453     1.007825032230
         H           -1.969943677926     1.791175572772     0.115186134453     1.007825032230
         H           -3.484706377926    -1.773743627228     0.158188734453     1.007825032230
         H           -2.504663377926    -1.055909627228     1.449314734453     1.007825032230
         H           -3.775467377926    -0.104593627228     0.669484734453     1.007825032230
         H            0.433651622074     2.032852372772     0.362842734453     1.007825032230
         H            3.998937622074    -0.873906627228     0.444232734453     1.007825032230
         H            2.604191622074    -1.868253627228    -0.026028265547     1.007825032230
         H            3.251817622074    -0.664069627228    -1.154941265547     1.007825032230

  Basis Set: AUG-CC-PVTZ
    Blend: AUG-CC-PVTZ
  Basis Set: (AUG-CC-PVTZ AUX)
    Blend: AUG-CC-PVTZ-JKFIT
	 Reference Energy          =    -309.1404672566408749 [Eh]
	 Singles Energy            =      -0.0000000000000000 [Eh]
	 Same-Spin Energy          =      -0.3137771252891875 [Eh]
	 Opposite-Spin Energy      =      -1.0992451011827646 [Eh]
	 Correlation Energy        =      -1.4130222264719521 [Eh]
	 Total Energy              =    -310.5534894831127986 [Eh]

	 ================> DF-SCS-MP2 Energies <==================
	-----------------------------------------------------------
	 SCS Same-Spin Scale       =       0.3333333333333333 [-]
	 SCS Opposite-Spin Scale   =       1.2000000000000000 [-]
	 SCS Same-Spin Energy      =      -0.1045923750963958 [Eh]
	 SCS Opposite-Spin Energy  =      -1.3190941214193175 [Eh]
	 SCS Correlation Energy    =      -1.4236864965157132 [Eh]
	 SCS Total Energy          =    -310.5641537531565746 [Eh]
	-----------------------------------------------------------

  Dipole Moment: [D]
     X:     1.0206      Y:     0.2816      Z:     0.7594     Total:     1.3030

*** Psi4 exiting successfully. Buy a developer a beer!
