                               Psi4 1.4a3.dev225

  ==> Input File <==

--------------------------------------------------------------------------
#psi4
#
memory 32 gb

molecule  {
0 1
  O        0.9059480     0.1295110    -0.3069180
  C       -1.9753050    -0.3336000    -0.5537270
  C        2.1190110     0.1892690     0.4520280
  C       -1.3184330     0.9429980    -0.1246110
  C       -2.9908880    -0.8293550     0.4787900
  C        0.0027760     1.1130440     0.0171530
  C        3.0576820    -0.8509900    -0.1177330
  H       -2.4824890    -0.1840060    -1.5158280
  H       -1.2045440    -1.0918590    -0.7184600
  H        2.5525890     1.1965710     0.3749050
  H        1.9047370    -0.0062780     1.5110790
  H       -1.9523440     1.7996160     0.0958850
  H       -3.4787570    -1.7495600     0.1429400
  H       -2.4987140    -1.0317260     1.4340660
  H       -3.7695180    -0.0804100     0.6542360
  H        0.4596134     2.1002833     0.3627326
  H        4.0048870    -0.8497230     0.4289840
  H        2.6101410    -1.8440700    -0.0412770
  H        3.2577670    -0.6398860    -1.1701900
units angstrom
no_reorient  #important for SAPT in psi4, default
symmetry c1  #important for SAPT in psi4, default
}

set PROPERTIES_ORIGIN ["COM"]
properties('MP2/aug-cc-pvtz', properties = ['dipole'])
--------------------------------------------------------------------------

    Molecular point group: c1
  Charge       = 0
  Multiplicity = 1
  Basis Set: AUG-CC-PVTZ
    Blend: AUG-CC-PVTZ
  Basis Set: (AUG-CC-PVTZ AUX)
    Blend: AUG-CC-PVTZ-JKFIT

    Orbital Energies [Eh]
    ---------------------

    Doubly Occupied:

       1A    -20.572868     2A    -11.284462     3A    -11.284107
       4A    -11.219598     5A    -11.216748     6A    -11.215429
       7A    -11.209095     8A     -1.392456     9A     -1.073903
      10A     -1.026079    11A     -0.966416    12A     -0.851101
      13A     -0.839586    14A     -0.752808    15A     -0.681427
      16A     -0.650213    17A     -0.640256    18A     -0.599539
      19A     -0.562694    20A     -0.558760    21A     -0.539689
      22A     -0.526816    23A     -0.507607    24A     -0.502447
      25A     -0.479033    26A     -0.474619    27A     -0.460638
      28A     -0.327564

  @DF-RHF Final Energy:  -309.13851500215947

   => Energetics <=

    Nuclear Repulsion Energy =            300.9669249345391790
    One-Electron Energy =               -1015.3789620133662766
    Two-Electron Energy =                 405.2735220766676321
    Total Energy =                       -309.1385150021594654
  Basis Set: (AUG-CC-PVTZ AUX)
    Blend: AUG-CC-PVTZ-RI
    Molecular point group: c1

    Geometry (in Angstrom), charge = 0, multiplicity = 1:

       Center              X                  Y                   Z               Mass
    ------------   -----------------  -----------------  -----------------  -----------------
         O            0.899679800619     0.105050425538    -0.291780895901    15.994914619570
         C           -1.981573199381    -0.358060574462    -0.538589895901    12.000000000000
         C            2.112742800619     0.164808425538     0.467165104099    12.000000000000
         C           -1.324701199381     0.918537425538    -0.109473895901    12.000000000000
         C           -2.997156199381    -0.853815574462     0.493927104099    12.000000000000
         C           -0.003492199381     1.088583425538     0.032290104099    12.000000000000
         C            3.051413800619    -0.875450574462    -0.102595895901    12.000000000000
         H           -2.488757199381    -0.208466574462    -1.500690895901     1.007825032230
         H           -1.210812199381    -1.116319574462    -0.703322895901     1.007825032230
         H            2.546320800619     1.172110425538     0.390042104099     1.007825032230
         H            1.898468800619    -0.030738574462     1.526216104099     1.007825032230
         H           -1.958612199381     1.775155425538     0.111022104099     1.007825032230
         H           -3.485025199381    -1.774020574462     0.158077104099     1.007825032230
         H           -2.504982199381    -1.056186574462     1.449203104099     1.007825032230
         H           -3.775786199381    -0.104870574462     0.669373104099     1.007825032230
         H            0.453345200619     2.075822725538     0.377869704099     1.007825032230
         H            3.998618800619    -0.874183574462     0.444121104099     1.007825032230
         H            2.603872800619    -1.868530574462    -0.026139895901     1.007825032230
         H            3.251498800619    -0.664346574462    -1.155052895901     1.007825032230

  Basis Set: AUG-CC-PVTZ
    Blend: AUG-CC-PVTZ
  Basis Set: (AUG-CC-PVTZ AUX)
    Blend: AUG-CC-PVTZ-JKFIT
	 Reference Energy          =    -309.1385150021594654 [Eh]
	 Singles Energy            =      -0.0000000000000000 [Eh]
	 Same-Spin Energy          =      -0.3139263249118298 [Eh]
	 Opposite-Spin Energy      =      -1.0996038692936043 [Eh]
	 Correlation Energy        =      -1.4135301942054341 [Eh]
	 Total Energy              =    -310.5520451963648725 [Eh]

	 ================> DF-SCS-MP2 Energies <==================
	-----------------------------------------------------------
	 SCS Same-Spin Scale       =       0.3333333333333333 [-]
	 SCS Opposite-Spin Scale   =       1.2000000000000000 [-]
	 SCS Same-Spin Energy      =      -0.1046421083039433 [Eh]
	 SCS Opposite-Spin Energy  =      -1.3195246431523251 [Eh]
	 SCS Correlation Energy    =      -1.4241667514562684 [Eh]
	 SCS Total Energy          =    -310.5626817536157205 [Eh]
	-----------------------------------------------------------

  Dipole Moment: [D]
     X:     1.0131      Y:     0.2613      Z:     0.7555     Total:     1.2905

*** Psi4 exiting successfully. Buy a developer a beer!
