                               Psi4 1.3.2 release

  ==> Input File <==

--------------------------------------------------------------------------
#psi4
#
memory 32 gb

molecule  {
0 1
  O       -0.8411900    -0.2286010    -0.2822800
  C        2.0292911     0.2778020    -0.5325362
  C       -2.1232200    -0.2252560     0.3552070
  C        1.3918360    -0.8685520     0.1861030
  C        2.7655740     1.2103670     0.4230210
  C        0.0733200    -1.0572940     0.3167640
  C       -3.0226980     0.6919650    -0.4518750
  H        2.7145670    -0.0909720    -1.2924960
  H        1.2438280     0.8410150    -1.0636660
  H       -2.5250500    -1.2529680     0.3825710
  H       -2.0263210     0.1331820     1.3936400
  H        2.0475012    -1.6023152     0.6479897
  H        3.2481390     2.0275410    -0.1185540
  H        2.0757450     1.6393580     1.1523020
  H        3.5397370     0.6653480     0.9697790
  H       -0.3482160    -1.8932280     0.8773390
  H       -4.0255760     0.7295450    -0.0161740
  H       -2.6128620     1.7059100    -0.4684560
  H       -3.0981720     0.3293290    -1.4847820
units angstrom
no_reorient  #important for SAPT in psi4, default
symmetry c1  #important for SAPT in psi4, default
}

set PROPERTIES_ORIGIN ["COM"]
properties('MP2/aug-cc-pvtz', properties = ['dipole'])
--------------------------------------------------------------------------

    Molecular point group: c1
  Charge       = 0
  Multiplicity = 1
  Basis Set: AUG-CC-PVTZ
    Blend: AUG-CC-PVTZ
  Basis Set: (AUG-CC-PVTZ AUX)
    Blend: AUG-CC-PVTZ-JKFIT

    Orbital Energies [Eh]
    ---------------------

    Doubly Occupied:

       1A    -20.572360     2A    -11.286462     3A    -11.278620
       4A    -11.221105     5A    -11.214729     6A    -11.213420
       7A    -11.207225     8A     -1.393280     9A     -1.074772
      10A     -1.025357    11A     -0.967070    12A     -0.851618
      13A     -0.841281    14A     -0.754255    15A     -0.683907
      16A     -0.654488    17A     -0.642246    18A     -0.598619
      19A     -0.560372    20A     -0.557124    21A     -0.542520
      22A     -0.527304    23A     -0.511343    24A     -0.501350
      25A     -0.479574    26A     -0.472251    27A     -0.461941
      28A     -0.326013

  @DF-RHF Final Energy:  -309.14066020749203

   => Energetics <=

    Nuclear Repulsion Energy =            302.0910104034110191
    One-Electron Energy =               -1017.6221296118187638
    Two-Electron Energy =                 406.3904590009157118
    Total Energy =                       -309.1406602074920329
  Basis Set: (AUG-CC-PVTZ AUX)
    Blend: AUG-CC-PVTZ-RI
    Molecular point group: c1

    Geometry (in Angstrom), charge = 0, multiplicity = 1:

       Center              X                  Y                   Z               Mass
    ------------   -----------------  -----------------  -----------------  -----------------
         O           -0.842684881413    -0.228091091178    -0.282602896850    15.994914619570
         C            2.027796218587     0.278311908822    -0.532859096850    12.000000000000
         C           -2.124714881413    -0.224746091178     0.354884103150    12.000000000000
         C            1.390341118587    -0.868042091178     0.185780103150    12.000000000000
         C            2.764079118587     1.210876908822     0.422698103150    12.000000000000
         C            0.071825118587    -1.056784091178     0.316441103150    12.000000000000
         C           -3.024192881413     0.692474908822    -0.452197896850    12.000000000000
         H            2.713072118587    -0.090462091178    -1.292818896850     1.007825032230
         H            1.242333118587     0.841524908822    -1.063988896850     1.007825032230
         H           -2.526544881413    -1.252458091178     0.382248103150     1.007825032230
         H           -2.027815881413     0.133691908822     1.393317103150     1.007825032230
         H            2.046006318587    -1.601805291178     0.647666803150     1.007825032230
         H            3.246644118587     2.028050908822    -0.118876896850     1.007825032230
         H            2.074250118587     1.639867908822     1.151979103150     1.007825032230
         H            3.538242118587     0.665857908822     0.969456103150     1.007825032230
         H           -0.349710881413    -1.892718091178     0.877016103150     1.007825032230
         H           -4.027070881413     0.730054908822    -0.016496896850     1.007825032230
         H           -2.614356881413     1.706419908822    -0.468778896850     1.007825032230
         H           -3.099666881413     0.329838908822    -1.485104896850     1.007825032230

  Basis Set: AUG-CC-PVTZ
    Blend: AUG-CC-PVTZ
  Basis Set: (AUG-CC-PVTZ AUX)
    Blend: AUG-CC-PVTZ-JKFIT
	 Reference Energy          =    -309.1406602074920329 [Eh]
	 Singles Energy            =      -0.0000000000000000 [Eh]
	 Same-Spin Energy          =      -0.3138383408454395 [Eh]
	 Opposite-Spin Energy      =      -1.0992403214703175 [Eh]
	 Correlation Energy        =      -1.4130786623157570 [Eh]
	 Total Energy              =    -310.5537388698077734 [Eh]

	 ================> DF-SCS-MP2 Energies <==================
	-----------------------------------------------------------
	 SCS Same-Spin Scale       =       0.3333333333333333 [-]
	 SCS Opposite-Spin Scale   =       1.2000000000000000 [-]
	 SCS Same-Spin Energy      =      -0.1046127802818132 [Eh]
	 SCS Opposite-Spin Energy  =      -1.3190883857643809 [Eh]
	 SCS Correlation Energy    =      -1.4237011660461940 [Eh]
	 SCS Total Energy          =    -310.5643613735382473 [Eh]
	-----------------------------------------------------------

  Dipole Moment: [D]
     X:    -1.0999      Y:    -0.1901      Z:     0.7251     Total:     1.3310

*** Psi4 exiting successfully. Buy a developer a beer!
