                               Psi4 1.3.2 release

  ==> Input File <==

--------------------------------------------------------------------------
#psi4
#
memory 32 gb

molecule  {
0 1
  O       -0.8411900    -0.2286010    -0.2822800
  C        2.0174600     0.2824600    -0.5354820
  C       -2.1232200    -0.2252560     0.3552070
  C        1.3918360    -0.8685520     0.1861030
  C        2.6969420     1.2210997     0.4628534
  C        0.0733200    -1.0572940     0.3167640
  C       -3.0226980     0.6919650    -0.4518750
  H        2.6712344    -0.1204610    -1.3156830
  H        1.2438280     0.8410150    -1.0636660
  H       -2.5250500    -1.2529680     0.3825710
  H       -2.0263210     0.1331820     1.3936400
  H        2.0399100    -1.6071390     0.6510050
  H        3.2481390     2.0275410    -0.1185540
  H        2.0757450     1.6393580     1.1523020
  H        3.5397370     0.6653480     0.9697790
  H       -0.3482160    -1.8932280     0.8773390
  H       -4.0255760     0.7295450    -0.0161740
  H       -2.6128620     1.7059100    -0.4684560
  H       -3.0981720     0.3293290    -1.4847820
units angstrom
no_reorient  #important for SAPT in psi4, default
symmetry c1  #important for SAPT in psi4, default
}

set PROPERTIES_ORIGIN ["COM"]
properties('MP2/aug-cc-pvtz', properties = ['dipole'])
--------------------------------------------------------------------------

    Molecular point group: c1
  Charge       = 0
  Multiplicity = 1
  Basis Set: AUG-CC-PVTZ
    Blend: AUG-CC-PVTZ
  Basis Set: (AUG-CC-PVTZ AUX)
    Blend: AUG-CC-PVTZ-JKFIT

    Orbital Energies [Eh]
    ---------------------

    Doubly Occupied:

       1A    -20.571854     2A    -11.286232     3A    -11.277170
       4A    -11.221017     5A    -11.215237     6A    -11.212477
       7A    -11.209545     8A     -1.392806     9A     -1.075259
      10A     -1.025066    11A     -0.966060    12A     -0.853104
      13A     -0.842160    14A     -0.754749    15A     -0.683618
      16A     -0.654100    17A     -0.641478    18A     -0.601803
      19A     -0.561805    20A     -0.552072    21A     -0.540607
      22A     -0.526659    23A     -0.525620    24A     -0.497597
      25A     -0.477256    26A     -0.470098    27A     -0.458174
      28A     -0.325275

  @DF-RHF Final Energy:  -309.13227069849046

   => Energetics <=

    Nuclear Repulsion Energy =            302.4851399477217910
    One-Electron Energy =               -1018.3970237441900508
    Two-Electron Energy =                 406.7796130979778013
    Total Energy =                       -309.1322706984904585
  Basis Set: (AUG-CC-PVTZ AUX)
    Blend: AUG-CC-PVTZ-RI
    Molecular point group: c1

    Geometry (in Angstrom), charge = 0, multiplicity = 1:

       Center              X                  Y                   Z               Mass
    ------------   -----------------  -----------------  -----------------  -----------------
         O           -0.832525110011    -0.229590830197    -0.286822245993    15.994914619570
         C            2.026124889989     0.281470169803    -0.540024245993    12.000000000000
         C           -2.114555110011    -0.226245830197     0.350664754007    12.000000000000
         C            1.400500889989    -0.869541830197     0.181560754007    12.000000000000
         C            2.705606889989     1.220109869803     0.458311154007    12.000000000000
         C            0.081984889989    -1.058283830197     0.312221754007    12.000000000000
         C           -3.014033110011     0.690975169803    -0.456417245993    12.000000000000
         H            2.679899289989    -0.121450830197    -1.320225245993     1.007825032230
         H            1.252492889989     0.840025169803    -1.068208245993     1.007825032230
         H           -2.516385110011    -1.253957830197     0.378028754007     1.007825032230
         H           -2.017656110011     0.132192169803     1.389097754007     1.007825032230
         H            2.048574889989    -1.608128830197     0.646462754007     1.007825032230
         H            3.256803889989     2.026551169803    -0.123096245993     1.007825032230
         H            2.084409889989     1.638368169803     1.147759754007     1.007825032230
         H            3.548401889989     0.664358169803     0.965236754007     1.007825032230
         H           -0.339551110011    -1.894217830197     0.872796754007     1.007825032230
         H           -4.016911110011     0.728555169803    -0.020716245993     1.007825032230
         H           -2.604197110011     1.704920169803    -0.472998245993     1.007825032230
         H           -3.089507110011     0.328339169803    -1.489324245993     1.007825032230

  Basis Set: AUG-CC-PVTZ
    Blend: AUG-CC-PVTZ
  Basis Set: (AUG-CC-PVTZ AUX)
    Blend: AUG-CC-PVTZ-JKFIT
	 Reference Energy          =    -309.1322706984904585 [Eh]
	 Singles Energy            =      -0.0000000000000000 [Eh]
	 Same-Spin Energy          =      -0.3139913342088325 [Eh]
	 Opposite-Spin Energy      =      -1.0996372547074766 [Eh]
	 Correlation Energy        =      -1.4136285889163092 [Eh]
	 Total Energy              =    -310.5458992874067690 [Eh]

	 ================> DF-SCS-MP2 Energies <==================
	-----------------------------------------------------------
	 SCS Same-Spin Scale       =       0.3333333333333333 [-]
	 SCS Opposite-Spin Scale   =       1.2000000000000000 [-]
	 SCS Same-Spin Energy      =      -0.1046637780696108 [Eh]
	 SCS Opposite-Spin Energy  =      -1.3195647056489719 [Eh]
	 SCS Correlation Energy    =      -1.4242284837185828 [Eh]
	 SCS Total Energy          =    -310.5564991822090519 [Eh]
	-----------------------------------------------------------

  Dipole Moment: [D]
     X:    -1.1166      Y:    -0.1879      Z:     0.7209     Total:     1.3423

*** Psi4 exiting successfully. Buy a developer a beer!
