                               Psi4 1.3.2 release

  ==> Input File <==

--------------------------------------------------------------------------
#psi4
#
memory 32 gb

molecule  {
0 1
  O       -0.8455331    -0.2207032    -0.2909332
  C        2.0174600     0.2824600    -0.5354820
  C       -2.1232200    -0.2252560     0.3552070
  C        1.3918360    -0.8685520     0.1861030
  C        2.7655740     1.2103670     0.4230210
  C        0.0733200    -1.0572940     0.3167640
  C       -3.0126824     0.6943728    -0.4601923
  H        2.7145670    -0.0909720    -1.2924960
  H        1.2438280     0.8410150    -1.0636660
  H       -2.5250500    -1.2529680     0.3825710
  H       -2.0263210     0.1331820     1.3936400
  H        2.0399100    -1.6071390     0.6510050
  H        3.2481390     2.0275410    -0.1185540
  H        2.0757450     1.6393580     1.1523020
  H        3.5397370     0.6653480     0.9697790
  H       -0.3482160    -1.8932280     0.8773390
  H       -4.0255760     0.7295450    -0.0161740
  H       -2.6128620     1.7059100    -0.4684560
  H       -3.0981720     0.3293290    -1.4847820
units angstrom
no_reorient  #important for SAPT in psi4, default
symmetry c1  #important for SAPT in psi4, default
}

set PROPERTIES_ORIGIN ["COM"]
properties('MP2/aug-cc-pvtz', properties = ['dipole'])
--------------------------------------------------------------------------

    Molecular point group: c1
  Charge       = 0
  Multiplicity = 1
  Basis Set: AUG-CC-PVTZ
    Blend: AUG-CC-PVTZ
  Basis Set: (AUG-CC-PVTZ AUX)
    Blend: AUG-CC-PVTZ-JKFIT

    Orbital Energies [Eh]
    ---------------------

    Doubly Occupied:

       1A    -20.571956     2A    -11.285494     3A    -11.278704
       4A    -11.220169     5A    -11.215355     6A    -11.214586
       7A    -11.207798     8A     -1.389231     9A     -1.074930
      10A     -1.023842    11A     -0.967047    12A     -0.850487
      13A     -0.841568    14A     -0.753749    15A     -0.682626
      16A     -0.653852    17A     -0.641566    18A     -0.597647
      19A     -0.560204    20A     -0.556759    21A     -0.541448
      22A     -0.524240    23A     -0.510360    24A     -0.502009
      25A     -0.479469    26A     -0.473302    27A     -0.464213
      28A     -0.327213

  @DF-RHF Final Energy:  -309.14001898303536

   => Energetics <=

    Nuclear Repulsion Energy =            302.0200065404575298
    One-Electron Energy =               -1017.5004032933379676
    Two-Electron Energy =                 406.3403777698450767
    Total Energy =                       -309.1400189830353611
  Basis Set: (AUG-CC-PVTZ AUX)
    Blend: AUG-CC-PVTZ-RI
    Molecular point group: c1

    Geometry (in Angstrom), charge = 0, multiplicity = 1:

       Center              X                  Y                   Z               Mass
    ------------   -----------------  -----------------  -----------------  -----------------
         O           -0.846039817900    -0.222253987873    -0.288553242387    15.994914619570
         C            2.016953282100     0.280909212127    -0.533102042387    12.000000000000
         C           -2.123726717900    -0.226806787873     0.357586957613    12.000000000000
         C            1.391329282100    -0.870102787873     0.188482957613    12.000000000000
         C            2.765067282100     1.208816212127     0.425400957613    12.000000000000
         C            0.072813282100    -1.058844787873     0.319143957613    12.000000000000
         C           -3.013189117900     0.692822012127    -0.457812342387    12.000000000000
         H            2.714060282100    -0.092522787873    -1.290116042387     1.007825032230
         H            1.243321282100     0.839464212127    -1.061286042387     1.007825032230
         H           -2.525556717900    -1.254518787873     0.384950957613     1.007825032230
         H           -2.026827717900     0.131631212127     1.396019957613     1.007825032230
         H            2.039403282100    -1.608689787873     0.653384957613     1.007825032230
         H            3.247632282100     2.025990212127    -0.116174042387     1.007825032230
         H            2.075238282100     1.637807212127     1.154681957613     1.007825032230
         H            3.539230282100     0.663797212127     0.972158957613     1.007825032230
         H           -0.348722717900    -1.894778787873     0.879718957613     1.007825032230
         H           -4.026082717900     0.727994212127    -0.013794042387     1.007825032230
         H           -2.613368717900     1.704359212127    -0.466076042387     1.007825032230
         H           -3.098678717900     0.327778212127    -1.482402042387     1.007825032230

  Basis Set: AUG-CC-PVTZ
    Blend: AUG-CC-PVTZ
  Basis Set: (AUG-CC-PVTZ AUX)
    Blend: AUG-CC-PVTZ-JKFIT
	 Reference Energy          =    -309.1400189830353611 [Eh]
	 Singles Energy            =      -0.0000000000000000 [Eh]
	 Same-Spin Energy          =      -0.3138909070530657 [Eh]
	 Opposite-Spin Energy      =      -1.0995695096360318 [Eh]
	 Correlation Energy        =      -1.4134604166890976 [Eh]
	 Total Energy              =    -310.5534793997244378 [Eh]

	 ================> DF-SCS-MP2 Energies <==================
	-----------------------------------------------------------
	 SCS Same-Spin Scale       =       0.3333333333333333 [-]
	 SCS Opposite-Spin Scale   =       1.2000000000000000 [-]
	 SCS Same-Spin Energy      =      -0.1046303023510219 [Eh]
	 SCS Opposite-Spin Energy  =      -1.3194834115632381 [Eh]
	 SCS Correlation Energy    =      -1.4241137139142599 [Eh]
	 SCS Total Energy          =    -310.5641326969496276 [Eh]
	-----------------------------------------------------------

  Dipole Moment: [D]
     X:    -1.0240      Y:    -0.2174      Z:     0.7431     Total:     1.2838

*** Psi4 exiting successfully. Buy a developer a beer!
