                               Psi4 1.3.2 release

  ==> Input File <==

--------------------------------------------------------------------------
#psi4
#
memory 32 gb

molecule  {
0 1
  O       -0.8232051    -0.2157348    -0.2914589
  C        2.0174600     0.2824600    -0.5354820
  C       -2.1232200    -0.2252560     0.3552070
  C        1.3876295    -0.8499019     0.1726832
  C        2.7655740     1.2103670     0.4230210
  C        0.0733200    -1.0572940     0.3167640
  C       -3.0226980     0.6919650    -0.4518750
  H        2.7145670    -0.0909720    -1.2924960
  H        1.2438280     0.8410150    -1.0636660
  H       -2.5250500    -1.2529680     0.3825710
  H       -2.0263210     0.1331820     1.3936400
  H        2.0399100    -1.6071390     0.6510050
  H        3.2481390     2.0275410    -0.1185540
  H        2.0757450     1.6393580     1.1523020
  H        3.5397370     0.6653480     0.9697790
  H       -0.3482160    -1.8932280     0.8773390
  H       -4.0255760     0.7295450    -0.0161740
  H       -2.6128620     1.7059100    -0.4684560
  H       -3.0981720     0.3293290    -1.4847820
units angstrom
no_reorient  #important for SAPT in psi4, default
symmetry c1  #important for SAPT in psi4, default
}

set PROPERTIES_ORIGIN ["COM"]
properties('MP2/aug-cc-pvtz', properties = ['dipole'])
--------------------------------------------------------------------------

    Molecular point group: c1
  Charge       = 0
  Multiplicity = 1
  Basis Set: AUG-CC-PVTZ
    Blend: AUG-CC-PVTZ
  Basis Set: (AUG-CC-PVTZ AUX)
    Blend: AUG-CC-PVTZ-JKFIT

    Orbital Energies [Eh]
    ---------------------

    Doubly Occupied:

       1A    -20.571842     2A    -11.288047     3A    -11.276839
       4A    -11.221593     5A    -11.213488     6A    -11.212729
       7A    -11.207320     8A     -1.387797     9A     -1.075454
      10A     -1.025552    11A     -0.965499    12A     -0.851482
      13A     -0.842481    14A     -0.749983    15A     -0.682784
      16A     -0.653014    17A     -0.639440    18A     -0.598408
      19A     -0.558320    20A     -0.555750    21A     -0.542494
      22A     -0.522782    23A     -0.510554    24A     -0.504006
      25A     -0.481742    26A     -0.473383    27A     -0.464720
      28A     -0.323642

  @DF-RHF Final Energy:  -309.13835558448756

   => Energetics <=

    Nuclear Repulsion Energy =            302.2117500877134262
    One-Electron Energy =               -1017.8979223624700126
    Two-Electron Energy =                 406.5478166902690305
    Total Energy =                       -309.1383555844875559
  Basis Set: (AUG-CC-PVTZ AUX)
    Blend: AUG-CC-PVTZ-RI
    Molecular point group: c1

    Geometry (in Angstrom), charge = 0, multiplicity = 1:

       Center              X                  Y                   Z               Mass
    ------------   -----------------  -----------------  -----------------  -----------------
         O           -0.825574855779    -0.220026920496    -0.288383175067    15.994914619570
         C            2.015090244221     0.278167879504    -0.532406275067    12.000000000000
         C           -2.125589755779    -0.229548120496     0.358282724933    12.000000000000
         C            1.385259744221    -0.854194020496     0.175758924933    12.000000000000
         C            2.763204244221     1.206074879504     0.426096724933    12.000000000000
         C            0.070950244221    -1.061586120496     0.319839724933    12.000000000000
         C           -3.025067755779     0.687672879504    -0.448799275067    12.000000000000
         H            2.712197244221    -0.095264120496    -1.289420275067     1.007825032230
         H            1.241458244221     0.836722879504    -1.060590275067     1.007825032230
         H           -2.527419755779    -1.257260120496     0.385646724933     1.007825032230
         H           -2.028690755779     0.128889879504     1.396715724933     1.007825032230
         H            2.037540244221    -1.611431120496     0.654080724933     1.007825032230
         H            3.245769244221     2.023248879504    -0.115478275067     1.007825032230
         H            2.073375244221     1.635065879504     1.155377724933     1.007825032230
         H            3.537367244221     0.661055879504     0.972854724933     1.007825032230
         H           -0.350585755779    -1.897520120496     0.880414724933     1.007825032230
         H           -4.027945755779     0.725252879504    -0.013098275067     1.007825032230
         H           -2.615231755779     1.701617879504    -0.465380275067     1.007825032230
         H           -3.100541755779     0.325036879504    -1.481706275067     1.007825032230

  Basis Set: AUG-CC-PVTZ
    Blend: AUG-CC-PVTZ
  Basis Set: (AUG-CC-PVTZ AUX)
    Blend: AUG-CC-PVTZ-JKFIT
	 Reference Energy          =    -309.1383555844875559 [Eh]
	 Singles Energy            =      -0.0000000000000000 [Eh]
	 Same-Spin Energy          =      -0.3142509248545520 [Eh]
	 Opposite-Spin Energy      =      -1.1001252412894758 [Eh]
	 Correlation Energy        =      -1.4143761661440277 [Eh]
	 Total Energy              =    -310.5527317506316081 [Eh]

	 ================> DF-SCS-MP2 Energies <==================
	-----------------------------------------------------------
	 SCS Same-Spin Scale       =       0.3333333333333333 [-]
	 SCS Opposite-Spin Scale   =       1.2000000000000000 [-]
	 SCS Same-Spin Energy      =      -0.1047503082848507 [Eh]
	 SCS Opposite-Spin Energy  =      -1.3201502895473709 [Eh]
	 SCS Correlation Energy    =      -1.4249005978322216 [Eh]
	 SCS Total Energy          =    -310.5632561823197761 [Eh]
	-----------------------------------------------------------

  Dipole Moment: [D]
     X:    -1.1820      Y:    -0.1974      Z:     0.7459     Total:     1.4116

*** Psi4 exiting successfully. Buy a developer a beer!
