                               Psi4 1.3.2 release

  ==> Input File <==

--------------------------------------------------------------------------
#psi4
#
memory 32 gb

molecule  {
0 1
  O       -0.8411900    -0.2286010    -0.2822800
  C        2.0644876     0.2629974    -0.5238651
  C       -2.1232200    -0.2252560     0.3552070
  C        1.3918360    -0.8685520     0.1861030
  C        2.7655740     1.2103670     0.4230210
  C        0.0821245    -1.0963011     0.3409136
  C       -3.0226980     0.6919650    -0.4518750
  H        2.7145670    -0.0909720    -1.2924960
  H        1.2438280     0.8410150    -1.0636660
  H       -2.5250500    -1.2529680     0.3825710
  H       -2.0263210     0.1331820     1.3936400
  H        2.0399100    -1.6071390     0.6510050
  H        3.2481390     2.0275410    -0.1185540
  H        2.0757450     1.6393580     1.1523020
  H        3.5397370     0.6653480     0.9697790
  H       -0.3482160    -1.8932280     0.8773390
  H       -4.0255760     0.7295450    -0.0161740
  H       -2.6128620     1.7059100    -0.4684560
  H       -3.0981720     0.3293290    -1.4847820
units angstrom
no_reorient  #important for SAPT in psi4, default
symmetry c1  #important for SAPT in psi4, default
}

set PROPERTIES_ORIGIN ["COM"]
properties('MP2/aug-cc-pvtz', properties = ['dipole'])
--------------------------------------------------------------------------

    Molecular point group: c1
  Charge       = 0
  Multiplicity = 1
  Basis Set: AUG-CC-PVTZ
    Blend: AUG-CC-PVTZ
  Basis Set: (AUG-CC-PVTZ AUX)
    Blend: AUG-CC-PVTZ-JKFIT

    Orbital Energies [Eh]
    ---------------------

    Doubly Occupied:

       1A    -20.567162     2A    -11.282486     3A    -11.278028
       4A    -11.218678     5A    -11.218621     6A    -11.217981
       7A    -11.208774     8A     -1.376644     9A     -1.075852
      10A     -1.022755    11A     -0.970715    12A     -0.852503
      13A     -0.839363    14A     -0.754415    15A     -0.683930
      16A     -0.651084    17A     -0.635049    18A     -0.602771
      19A     -0.559281    20A     -0.556756    21A     -0.541174
      22A     -0.522734    23A     -0.518998    24A     -0.497648
      25A     -0.485828    26A     -0.466153    27A     -0.453594
      28A     -0.331381

  @DF-RHF Final Energy:  -309.13426282212430

   => Energetics <=

    Nuclear Repulsion Energy =            301.2968358126028079
    One-Electron Energy =               -1016.0814879132220767
    Two-Electron Energy =                 405.6503892784949699
    Total Energy =                       -309.1342628221242990
  Basis Set: (AUG-CC-PVTZ AUX)
    Blend: AUG-CC-PVTZ-RI
    Molecular point group: c1

    Geometry (in Angstrom), charge = 0, multiplicity = 1:

       Center              X                  Y                   Z               Mass
    ------------   -----------------  -----------------  -----------------  -----------------
         O           -0.847883877911    -0.221590844908    -0.286568247972    15.994914619570
         C            2.057793722089     0.270007555092    -0.528153347972    12.000000000000
         C           -2.129913877911    -0.218245844908     0.350918752028    12.000000000000
         C            1.385142122089    -0.861541844908     0.181814752028    12.000000000000
         C            2.758880122089     1.217377155092     0.418732752028    12.000000000000
         C            0.075430622089    -1.089290944908     0.336625352028    12.000000000000
         C           -3.029391877911     0.698975155092    -0.456163247972    12.000000000000
         H            2.707873122089    -0.083961844908    -1.296784247972     1.007825032230
         H            1.237134122089     0.848025155092    -1.067954247972     1.007825032230
         H           -2.531743877911    -1.245957844908     0.378282752028     1.007825032230
         H           -2.033014877911     0.140192155092     1.389351752028     1.007825032230
         H            2.033216122089    -1.600128844908     0.646716752028     1.007825032230
         H            3.241445122089     2.034551155092    -0.122842247972     1.007825032230
         H            2.069051122089     1.646368155092     1.148013752028     1.007825032230
         H            3.533043122089     0.672358155092     0.965490752028     1.007825032230
         H           -0.354909877911    -1.886217844908     0.873050752028     1.007825032230
         H           -4.032269877911     0.736555155092    -0.020462247972     1.007825032230
         H           -2.619555877911     1.712920155092    -0.472744247972     1.007825032230
         H           -3.104865877911     0.336339155092    -1.489070247972     1.007825032230

  Basis Set: AUG-CC-PVTZ
    Blend: AUG-CC-PVTZ
  Basis Set: (AUG-CC-PVTZ AUX)
    Blend: AUG-CC-PVTZ-JKFIT
	 Reference Energy          =    -309.1342628221242990 [Eh]
	 Singles Energy            =      -0.0000000000000000 [Eh]
	 Same-Spin Energy          =      -0.3139415122548186 [Eh]
	 Opposite-Spin Energy      =      -1.1002886600587867 [Eh]
	 Correlation Energy        =      -1.4142301723136053 [Eh]
	 Total Energy              =    -310.5484929944378791 [Eh]

	 ================> DF-SCS-MP2 Energies <==================
	-----------------------------------------------------------
	 SCS Same-Spin Scale       =       0.3333333333333333 [-]
	 SCS Opposite-Spin Scale   =       1.2000000000000000 [-]
	 SCS Same-Spin Energy      =      -0.1046471707516062 [Eh]
	 SCS Opposite-Spin Energy  =      -1.3203463920705441 [Eh]
	 SCS Correlation Energy    =      -1.4249935628221502 [Eh]
	 SCS Total Energy          =    -310.5592563849464227 [Eh]
	-----------------------------------------------------------

  Dipole Moment: [D]
     X:    -0.8668      Y:    -0.2681      Z:     0.7745     Total:     1.1929

*** Psi4 exiting successfully. Buy a developer a beer!
