                               Psi4 1.3.2 release

  ==> Input File <==

--------------------------------------------------------------------------
#psi4
#
memory 32 gb

molecule  {
0 1
  O       -0.8411900    -0.2286010    -0.2822800
  C        2.0174600     0.2824600    -0.5354820
  C       -2.1232200    -0.2252560     0.3552070
  C        1.3918360    -0.8685520     0.1861030
  C        2.7768183     1.2083300     0.4161238
  C        0.0733200    -1.0572940     0.3167640
  C       -3.0226980     0.6919650    -0.4518750
  H        2.7216065    -0.0859554    -1.2884280
  H        1.2438280     0.8410150    -1.0636660
  H       -2.5250500    -1.2529680     0.3825710
  H       -2.0263210     0.1331820     1.3936400
  H        2.0399100    -1.6071390     0.6510050
  H        3.2481390     2.0275410    -0.1185540
  H        2.0757450     1.6393580     1.1523020
  H        3.5397370     0.6653480     0.9697790
  H       -0.3482160    -1.8932280     0.8773390
  H       -4.0255760     0.7295450    -0.0161740
  H       -2.6128620     1.7059100    -0.4684560
  H       -3.0981720     0.3293290    -1.4847820
units angstrom
no_reorient  #important for SAPT in psi4, default
symmetry c1  #important for SAPT in psi4, default
}

set PROPERTIES_ORIGIN ["COM"]
properties('MP2/aug-cc-pvtz', properties = ['dipole'])
--------------------------------------------------------------------------

    Molecular point group: c1
  Charge       = 0
  Multiplicity = 1
  Basis Set: AUG-CC-PVTZ
    Blend: AUG-CC-PVTZ
  Basis Set: (AUG-CC-PVTZ AUX)
    Blend: AUG-CC-PVTZ-JKFIT

    Orbital Energies [Eh]
    ---------------------

    Doubly Occupied:

       1A    -20.572365     2A    -11.286463     3A    -11.278365
       4A    -11.221121     5A    -11.214791     6A    -11.213537
       7A    -11.207280     8A     -1.393314     9A     -1.074661
      10A     -1.025081    11A     -0.966982    12A     -0.851361
      13A     -0.841430    14A     -0.754602    15A     -0.683784
      16A     -0.654538    17A     -0.642682    18A     -0.597017
      19A     -0.561601    20A     -0.557377    21A     -0.542653
      22A     -0.527601    23A     -0.507875    24A     -0.502312
      25A     -0.477794    26A     -0.473969    27A     -0.464335
      28A     -0.325673

  @DF-RHF Final Energy:  -309.14072992195747

   => Energetics <=

    Nuclear Repulsion Energy =            302.0744926375980413
    One-Electron Energy =               -1017.5893199510799150
    Two-Electron Energy =                 406.3740973915244012
    Total Energy =                       -309.1407299219574725
  Basis Set: (AUG-CC-PVTZ AUX)
    Blend: AUG-CC-PVTZ-RI
    Molecular point group: c1

    Geometry (in Angstrom), charge = 0, multiplicity = 1:

       Center              X                  Y                   Z               Mass
    ------------   -----------------  -----------------  -----------------  -----------------
         O           -0.842608972661    -0.228407273448    -0.281494108891    15.994914619570
         C            2.016041027339     0.282653726552    -0.534696108891    12.000000000000
         C           -2.124638972661    -0.225062273448     0.355992891109    12.000000000000
         C            1.390417027339    -0.868358273448     0.186888891109    12.000000000000
         C            2.775399327339     1.208523726552     0.416909691109    12.000000000000
         C            0.071901027339    -1.057100273448     0.317549891109    12.000000000000
         C           -3.024116972661     0.692158726552    -0.451089108891    12.000000000000
         H            2.720187527339    -0.085761673448    -1.287642108891     1.007825032230
         H            1.242409027339     0.841208726552    -1.062880108891     1.007825032230
         H           -2.526468972661    -1.252774273448     0.383356891109     1.007825032230
         H           -2.027739972661     0.133375726552     1.394425891109     1.007825032230
         H            2.038491027339    -1.606945273448     0.651790891109     1.007825032230
         H            3.246720027339     2.027734726552    -0.117768108891     1.007825032230
         H            2.074326027339     1.639551726552     1.153087891109     1.007825032230
         H            3.538318027339     0.665541726552     0.970564891109     1.007825032230
         H           -0.349634972661    -1.893034273448     0.878124891109     1.007825032230
         H           -4.026994972661     0.729738726552    -0.015388108891     1.007825032230
         H           -2.614280972661     1.706103726552    -0.467670108891     1.007825032230
         H           -3.099590972661     0.329522726552    -1.483996108891     1.007825032230

  Basis Set: AUG-CC-PVTZ
    Blend: AUG-CC-PVTZ
  Basis Set: (AUG-CC-PVTZ AUX)
    Blend: AUG-CC-PVTZ-JKFIT
	 Reference Energy          =    -309.1407299219574725 [Eh]
	 Singles Energy            =      -0.0000000000000000 [Eh]
	 Same-Spin Energy          =      -0.3138189227037190 [Eh]
	 Opposite-Spin Energy      =      -1.0991930202459053 [Eh]
	 Correlation Energy        =      -1.4130119429496242 [Eh]
	 Total Energy              =    -310.5537418649071242 [Eh]

	 ================> DF-SCS-MP2 Energies <==================
	-----------------------------------------------------------
	 SCS Same-Spin Scale       =       0.3333333333333333 [-]
	 SCS Opposite-Spin Scale   =       1.2000000000000000 [-]
	 SCS Same-Spin Energy      =      -0.1046063075679063 [Eh]
	 SCS Opposite-Spin Energy  =      -1.3190316242950864 [Eh]
	 SCS Correlation Energy    =      -1.4236379318629928 [Eh]
	 SCS Total Energy          =    -310.5643678538204426 [Eh]
	-----------------------------------------------------------

  Dipole Moment: [D]
     X:    -1.0976      Y:    -0.1917      Z:     0.7242     Total:     1.3289

*** Psi4 exiting successfully. Buy a developer a beer!
