                               Psi4 1.3.2 release

  ==> Input File <==

--------------------------------------------------------------------------
#psi4
#
memory 32 gb

molecule  {
0 1
  O       -0.8411900    -0.2286010    -0.2822800
  C        1.9455076     0.3090176    -0.5512549
  C       -2.1232200    -0.2252560     0.3552070
  C        1.3918360    -0.8685520     0.1861030
  C        2.7655740     1.2103670     0.4230210
  C        0.0631281    -0.9983671     0.2802503
  C       -3.0226980     0.6919650    -0.4518750
  H        2.7145670    -0.0909720    -1.2924960
  H        1.2438280     0.8410150    -1.0636660
  H       -2.5250500    -1.2529680     0.3825710
  H       -2.0263210     0.1331820     1.3936400
  H        2.0399100    -1.6071390     0.6510050
  H        3.2481390     2.0275410    -0.1185540
  H        2.0757450     1.6393580     1.1523020
  H        3.5397370     0.6653480     0.9697790
  H       -0.3482160    -1.8932280     0.8773390
  H       -4.0255760     0.7295450    -0.0161740
  H       -2.6128620     1.7059100    -0.4684560
  H       -3.0981720     0.3293290    -1.4847820
units angstrom
no_reorient  #important for SAPT in psi4, default
symmetry c1  #important for SAPT in psi4, default
}

set PROPERTIES_ORIGIN ["COM"]
properties('MP2/aug-cc-pvtz', properties = ['dipole'])
--------------------------------------------------------------------------

    Molecular point group: c1
  Charge       = 0
  Multiplicity = 1
  Basis Set: AUG-CC-PVTZ
    Blend: AUG-CC-PVTZ
  Basis Set: (AUG-CC-PVTZ AUX)
    Blend: AUG-CC-PVTZ-JKFIT

    Orbital Energies [Eh]
    ---------------------

    Doubly Occupied:

       1A    -20.580257     2A    -11.292705     3A    -11.280021
       4A    -11.224969     5A    -11.210994     6A    -11.207654
       7A    -11.206116     8A     -1.420513     9A     -1.075267
      10A     -1.029137    11A     -0.960744    12A     -0.857425
      13A     -0.840442    14A     -0.761090    15A     -0.685363
      16A     -0.658888    17A     -0.653975    18A     -0.592306
      19A     -0.564883    20A     -0.559343    21A     -0.542145
      22A     -0.533185    23A     -0.509422    24A     -0.500091
      25A     -0.488939    26A     -0.471140    27A     -0.456048
      28A     -0.317026

  @DF-RHF Final Energy:  -309.12868323350312

   => Energetics <=

    Nuclear Repulsion Energy =            303.4284846380733143
    One-Electron Energy =               -1020.1541629079135873
    Two-Electron Energy =                 407.5969950363371481
    Total Energy =                       -309.1286832335031249
  Basis Set: (AUG-CC-PVTZ AUX)
    Blend: AUG-CC-PVTZ-RI
    Molecular point group: c1

    Geometry (in Angstrom), charge = 0, multiplicity = 1:

       Center              X                  Y                   Z               Mass
    ------------   -----------------  -----------------  -----------------  -----------------
         O           -0.831341402111    -0.238850020171    -0.276011252168    15.994914619570
         C            1.955356197889     0.298768579829    -0.544986152168    12.000000000000
         C           -2.113371402111    -0.235505020171     0.361475747832    12.000000000000
         C            1.401684597889    -0.878801020171     0.192371747832    12.000000000000
         C            2.775422597889     1.200117979829     0.429289747832    12.000000000000
         C            0.072976697889    -1.008616120171     0.286519047832    12.000000000000
         C           -3.012849402111     0.681715979829    -0.445606252168    12.000000000000
         H            2.724415597889    -0.101221020171    -1.286227252168     1.007825032230
         H            1.253676597889     0.830765979829    -1.057397252168     1.007825032230
         H           -2.515201402111    -1.263217020171     0.388839747832     1.007825032230
         H           -2.016472402111     0.122932979829     1.399908747832     1.007825032230
         H            2.049758597889    -1.617388020171     0.657273747832     1.007825032230
         H            3.257987597889     2.017291979829    -0.112285252168     1.007825032230
         H            2.085593597889     1.629108979829     1.158570747832     1.007825032230
         H            3.549585597889     0.655098979829     0.976047747832     1.007825032230
         H           -0.338367402111    -1.903477020171     0.883607747832     1.007825032230
         H           -4.015727402111     0.719295979829    -0.009905252168     1.007825032230
         H           -2.603013402111     1.695660979829    -0.462187252168     1.007825032230
         H           -3.088323402111     0.319079979829    -1.478513252168     1.007825032230

  Basis Set: AUG-CC-PVTZ
    Blend: AUG-CC-PVTZ
  Basis Set: (AUG-CC-PVTZ AUX)
    Blend: AUG-CC-PVTZ-JKFIT
	 Reference Energy          =    -309.1286832335031249 [Eh]
	 Singles Energy            =      -0.0000000000000000 [Eh]
	 Same-Spin Energy          =      -0.3141085766888621 [Eh]
	 Opposite-Spin Energy      =      -1.0987989454306111 [Eh]
	 Correlation Energy        =      -1.4129075221194731 [Eh]
	 Total Energy              =    -310.5415907556226216 [Eh]

	 ================> DF-SCS-MP2 Energies <==================
	-----------------------------------------------------------
	 SCS Same-Spin Scale       =       0.3333333333333333 [-]
	 SCS Opposite-Spin Scale   =       1.2000000000000000 [-]
	 SCS Same-Spin Energy      =      -0.1047028588962874 [Eh]
	 SCS Opposite-Spin Energy  =      -1.3185587345167333 [Eh]
	 SCS Correlation Energy    =      -1.4232615934130206 [Eh]
	 SCS Total Energy          =    -310.5519448269161558 [Eh]
	-----------------------------------------------------------

  Dipole Moment: [D]
     X:    -1.4494      Y:    -0.0513      Z:     0.6536     Total:     1.5908

*** Psi4 exiting successfully. Buy a developer a beer!
