                               Psi4 1.3.2 release

  ==> Input File <==

--------------------------------------------------------------------------
#psi4
#
memory 32 gb

molecule  {
0 1
  O       -0.8411900    -0.2286010    -0.2822800
  C        2.0174600     0.2824600    -0.5354820
  C       -2.1232200    -0.2252560     0.3552070
  C        1.3918360    -0.8685520     0.1861030
  C        2.7655740     1.2103670     0.4230210
  C        0.0753719    -1.0670011     0.3229258
  C       -3.0226980     0.6919650    -0.4518750
  H        2.7145670    -0.0909720    -1.2924960
  H        1.2438280     0.8410150    -1.0636660
  H       -2.5250500    -1.2529680     0.3825710
  H       -2.0263210     0.1331820     1.3936400
  H        2.0322697    -1.6118545     0.6540673
  H        3.2481390     2.0275410    -0.1185540
  H        2.0757450     1.6393580     1.1523020
  H        3.5397370     0.6653480     0.9697790
  H       -0.3482160    -1.8932280     0.8773390
  H       -4.0255760     0.7295450    -0.0161740
  H       -2.6128620     1.7059100    -0.4684560
  H       -3.0981720     0.3293290    -1.4847820
units angstrom
no_reorient  #important for SAPT in psi4, default
symmetry c1  #important for SAPT in psi4, default
}

set PROPERTIES_ORIGIN ["COM"]
properties('MP2/aug-cc-pvtz', properties = ['dipole'])
--------------------------------------------------------------------------

    Molecular point group: c1
  Charge       = 0
  Multiplicity = 1
  Basis Set: AUG-CC-PVTZ
    Blend: AUG-CC-PVTZ
  Basis Set: (AUG-CC-PVTZ AUX)
    Blend: AUG-CC-PVTZ-JKFIT

    Orbital Energies [Eh]
    ---------------------

    Doubly Occupied:

       1A    -20.570911     2A    -11.285381     3A    -11.277621
       4A    -11.220471     5A    -11.215646     6A    -11.214425
       7A    -11.207860     8A     -1.388910     9A     -1.074792
      10A     -1.024111    11A     -0.967492    12A     -0.851118
      13A     -0.841415    14A     -0.754458    15A     -0.683578
      16A     -0.653616    17A     -0.640731    18A     -0.597817
      19A     -0.560669    20A     -0.556772    21A     -0.541773
      22A     -0.526214    23A     -0.510311    24A     -0.500876
      25A     -0.480201    26A     -0.472533    27A     -0.464048
      28A     -0.326676

  @DF-RHF Final Energy:  -309.14054595208347

   => Energetics <=

    Nuclear Repulsion Energy =            301.9592200194764473
    One-Electron Energy =               -1017.3786788814126112
    Two-Electron Energy =                 406.2789129098526928
    Total Energy =                       -309.1405459520834711
  Basis Set: (AUG-CC-PVTZ AUX)
    Blend: AUG-CC-PVTZ-RI
    Molecular point group: c1

    Geometry (in Angstrom), charge = 0, multiplicity = 1:

       Center              X                  Y                   Z               Mass
    ------------   -----------------  -----------------  -----------------  -----------------
         O           -0.841359048083    -0.227389682681    -0.283049671622    15.994914619570
         C            2.017290951917     0.283671317319    -0.536251671622    12.000000000000
         C           -2.123389048083    -0.224044682681     0.354437328378    12.000000000000
         C            1.391666951917    -0.867340682681     0.185333328378    12.000000000000
         C            2.765404951917     1.211578317319     0.422251328378    12.000000000000
         C            0.075202851917    -1.065789782681     0.322156128378    12.000000000000
         C           -3.022867048083     0.693176317319    -0.452644671622    12.000000000000
         H            2.714397951917    -0.089760682681    -1.293265671622     1.007825032230
         H            1.243658951917     0.842226317319    -1.064435671622     1.007825032230
         H           -2.525219048083    -1.251756682681     0.381801328378     1.007825032230
         H           -2.026490048083     0.134393317319     1.392870328378     1.007825032230
         H            2.032100651917    -1.610643182681     0.653297628378     1.007825032230
         H            3.247969951917     2.028752317319    -0.119323671622     1.007825032230
         H            2.075575951917     1.640569317319     1.151532328378     1.007825032230
         H            3.539567951917     0.666559317319     0.969009328378     1.007825032230
         H           -0.348385048083    -1.892016682681     0.876569328378     1.007825032230
         H           -4.025745048083     0.730756317319    -0.016943671622     1.007825032230
         H           -2.613031048083     1.707121317319    -0.469225671622     1.007825032230
         H           -3.098341048083     0.330540317319    -1.485551671622     1.007825032230

  Basis Set: AUG-CC-PVTZ
    Blend: AUG-CC-PVTZ
  Basis Set: (AUG-CC-PVTZ AUX)
    Blend: AUG-CC-PVTZ-JKFIT
	 Reference Energy          =    -309.1405459520834711 [Eh]
	 Singles Energy            =      -0.0000000000000000 [Eh]
	 Same-Spin Energy          =      -0.3138096263818261 [Eh]
	 Opposite-Spin Energy      =      -1.0993586366230879 [Eh]
	 Correlation Energy        =      -1.4131682630049140 [Eh]
	 Total Energy              =    -310.5537142150884051 [Eh]

	 ================> DF-SCS-MP2 Energies <==================
	-----------------------------------------------------------
	 SCS Same-Spin Scale       =       0.3333333333333333 [-]
	 SCS Opposite-Spin Scale   =       1.2000000000000000 [-]
	 SCS Same-Spin Energy      =      -0.1046032087939420 [Eh]
	 SCS Opposite-Spin Energy  =      -1.3192303639477054 [Eh]
	 SCS Correlation Energy    =      -1.4238335727416476 [Eh]
	 SCS Total Energy          =    -310.5643795248251422 [Eh]
	-----------------------------------------------------------

  Dipole Moment: [D]
     X:    -1.0419      Y:    -0.2093      Z:     0.7380     Total:     1.2939

*** Psi4 exiting successfully. Buy a developer a beer!
