                               Psi4 1.4a3.dev225

  ==> Input File <==

--------------------------------------------------------------------------
#psi4
#
memory 32 gb

molecule  {
0 1
  O        0.9059480     0.1295110    -0.3069180
  C       -1.9753050    -0.3336000    -0.5537270
  C        2.1190110     0.1892690     0.4520280
  C       -1.3184330     0.9429980    -0.1246110
  C       -2.9908880    -0.8293550     0.4787900
  C        0.0356408     1.0772551     0.0053607
  C        3.0576820    -0.8509900    -0.1177330
  H       -2.4824890    -0.1840060    -1.5158280
  H       -1.2045440    -1.0918590    -0.7184600
  H        2.5525890     1.1965710     0.3749050
  H        1.9047370    -0.0062780     1.5110790
  H       -1.9523440     1.7996160     0.0958850
  H       -3.4787570    -1.7495600     0.1429400
  H       -2.4987140    -1.0317260     1.4340660
  H       -3.7695180    -0.0804100     0.6542360
  H        0.4396010     2.0570360     0.3475940
  H        4.0048870    -0.8497230     0.4289840
  H        2.6101410    -1.8440700    -0.0412770
  H        3.2577670    -0.6398860    -1.1701900
units angstrom
no_reorient  #important for SAPT in psi4, default
symmetry c1  #important for SAPT in psi4, default
}

set PROPERTIES_ORIGIN ["COM"]
properties('MP2/aug-cc-pvtz', properties = ['dipole'])
--------------------------------------------------------------------------

    Molecular point group: c1
  Charge       = 0
  Multiplicity = 1
  Basis Set: AUG-CC-PVTZ
    Blend: AUG-CC-PVTZ
  Basis Set: (AUG-CC-PVTZ AUX)
    Blend: AUG-CC-PVTZ-JKFIT

    Orbital Energies [Eh]
    ---------------------

    Doubly Occupied:

       1A    -20.579435     2A    -11.289421     3A    -11.282310
       4A    -11.222677     5A    -11.213525     6A    -11.212832
       7A    -11.206643     8A     -1.416215     9A     -1.070537
      10A     -1.030612    11A     -0.960552    12A     -0.856406
      13A     -0.840410    14A     -0.758151    15A     -0.689956
      16A     -0.658230    17A     -0.643934    18A     -0.599702
      19A     -0.566366    20A     -0.558948    21A     -0.543300
      22A     -0.529051    23A     -0.508270    24A     -0.504783
      25A     -0.478897    26A     -0.474451    27A     -0.461258
      28A     -0.315920

  @DF-RHF Final Energy:  -309.13788796810877

   => Energetics <=

    Nuclear Repulsion Energy =            301.7758969845841079
    One-Electron Energy =               -1016.8819863750006789
    Two-Electron Energy =                 405.9682014223078568
    Total Energy =                       -309.1378879681087710
  Basis Set: (AUG-CC-PVTZ AUX)
    Blend: AUG-CC-PVTZ-RI
    Molecular point group: c1

    Geometry (in Angstrom), charge = 0, multiplicity = 1:

       Center              X                  Y                   Z               Mass
    ------------   -----------------  -----------------  -----------------  -----------------
         O            0.895941035180     0.109776752965    -0.290214640371    15.994914619570
         C           -1.985311964820    -0.353334247035    -0.537023640371    12.000000000000
         C            2.109004035180     0.169534752965     0.468731359629    12.000000000000
         C           -1.328439964820     0.923263752965    -0.107907640371    12.000000000000
         C           -3.000894964820    -0.849089247035     0.495493359629    12.000000000000
         C            0.025633835180     1.057520852965     0.022064059629    12.000000000000
         C            3.047675035180    -0.870724247035    -0.101029640371    12.000000000000
         H           -2.492495964820    -0.203740247035    -1.499124640371     1.007825032230
         H           -1.214550964820    -1.111593247035    -0.701756640371     1.007825032230
         H            2.542582035180     1.176836752965     0.391608359629     1.007825032230
         H            1.894730035180    -0.026012247035     1.527782359629     1.007825032230
         H           -1.962350964820     1.779881752965     0.112588359629     1.007825032230
         H           -3.488763964820    -1.769294247035     0.159643359629     1.007825032230
         H           -2.508720964820    -1.051460247035     1.450769359629     1.007825032230
         H           -3.779524964820    -0.100144247035     0.670939359629     1.007825032230
         H            0.429594035180     2.037301752965     0.364297359629     1.007825032230
         H            3.994880035180    -0.869457247035     0.445687359629     1.007825032230
         H            2.600134035180    -1.863804247035    -0.024573640371     1.007825032230
         H            3.247760035180    -0.659620247035    -1.153486640371     1.007825032230

  Basis Set: AUG-CC-PVTZ
    Blend: AUG-CC-PVTZ
  Basis Set: (AUG-CC-PVTZ AUX)
    Blend: AUG-CC-PVTZ-JKFIT
	 Reference Energy          =    -309.1378879681087710 [Eh]
	 Singles Energy            =      -0.0000000000000000 [Eh]
	 Same-Spin Energy          =      -0.3142052785290523 [Eh]
	 Opposite-Spin Energy      =      -1.0993042142150811 [Eh]
	 Correlation Energy        =      -1.4135094927441334 [Eh]
	 Total Energy              =    -310.5513974608529111 [Eh]

	 ================> DF-SCS-MP2 Energies <==================
	-----------------------------------------------------------
	 SCS Same-Spin Scale       =       0.3333333333333333 [-]
	 SCS Opposite-Spin Scale   =       1.2000000000000000 [-]
	 SCS Same-Spin Energy      =      -0.1047350928430174 [Eh]
	 SCS Opposite-Spin Energy  =      -1.3191650570580973 [Eh]
	 SCS Correlation Energy    =      -1.4239001499011148 [Eh]
	 SCS Total Energy          =    -310.5617881180098721 [Eh]
	-----------------------------------------------------------

  Dipole Moment: [D]
     X:     1.3522      Y:     0.1654      Z:     0.7429     Total:     1.5517

*** Psi4 exiting successfully. Buy a developer a beer!
