                               Psi4 1.3.2 release

  ==> Input File <==

--------------------------------------------------------------------------
#psi4
#
memory 32 gb

molecule  {
0 1
  O       -0.8411900    -0.2286010    -0.2822800
  C        2.0644897     0.2633057    -0.5233715
  C       -2.1232200    -0.2252560     0.3552070
  C        1.3918360    -0.8685520     0.1861030
  C        2.7655740     1.2103670     0.4230210
  C        0.0733200    -1.0572940     0.3167640
  C       -3.0226980     0.6919650    -0.4518750
  H        2.7145670    -0.0909720    -1.2924960
  H        1.2438280     0.8410150    -1.0636660
  H       -2.5250500    -1.2529680     0.3825710
  H       -2.0263210     0.1331820     1.3936400
  H        2.0699727    -1.5875099     0.6387338
  H        3.2481390     2.0275410    -0.1185540
  H        2.0757450     1.6393580     1.1523020
  H        3.5397370     0.6653480     0.9697790
  H       -0.3482160    -1.8932280     0.8773390
  H       -4.0255760     0.7295450    -0.0161740
  H       -2.6128620     1.7059100    -0.4684560
  H       -3.0981720     0.3293290    -1.4847820
units angstrom
no_reorient  #important for SAPT in psi4, default
symmetry c1  #important for SAPT in psi4, default
}

set PROPERTIES_ORIGIN ["COM"]
properties('MP2/aug-cc-pvtz', properties = ['dipole'])
--------------------------------------------------------------------------

    Molecular point group: c1
  Charge       = 0
  Multiplicity = 1
  Basis Set: AUG-CC-PVTZ
    Blend: AUG-CC-PVTZ
  Basis Set: (AUG-CC-PVTZ AUX)
    Blend: AUG-CC-PVTZ-JKFIT

    Orbital Energies [Eh]
    ---------------------

    Doubly Occupied:

       1A    -20.572621     2A    -11.286592     3A    -11.279997
       4A    -11.221118     5A    -11.214971     6A    -11.213755
       7A    -11.206900     8A     -1.393462     9A     -1.075183
      10A     -1.026354    11A     -0.967992    12A     -0.852298
      13A     -0.840886    14A     -0.753651    15A     -0.684415
      16A     -0.654740    17A     -0.642068    18A     -0.601344
      19A     -0.559550    20A     -0.557513    21A     -0.543493
      22A     -0.527186    23A     -0.516614    24A     -0.500821
      25A     -0.481181    26A     -0.470758    27A     -0.452453
      28A     -0.327158

  @DF-RHF Final Energy:  -309.13739624584161

   => Energetics <=

    Nuclear Repulsion Energy =            301.9773394148655825
    One-Electron Energy =               -1017.3793261991083909
    Two-Electron Energy =                 406.2645905384011940
    Total Energy =                       -309.1373962458416145
  Basis Set: (AUG-CC-PVTZ AUX)
    Blend: AUG-CC-PVTZ-RI
    Molecular point group: c1

    Geometry (in Angstrom), charge = 0, multiplicity = 1:

       Center              X                  Y                   Z               Mass
    ------------   -----------------  -----------------  -----------------  -----------------
         O           -0.847131237784    -0.226502157909    -0.283608484461    15.994914619570
         C            2.058548462216     0.265404542091    -0.524699984461    12.000000000000
         C           -2.129161237784    -0.223157157909     0.353878515539    12.000000000000
         C            1.385894762216    -0.866453157909     0.184774515539    12.000000000000
         C            2.759632762216     1.212465842091     0.421692515539    12.000000000000
         C            0.067378762216    -1.055195157909     0.315435515539    12.000000000000
         C           -3.028639237784     0.694063842091    -0.453203484461    12.000000000000
         H            2.708625762216    -0.088873157909    -1.293824484461     1.007825032230
         H            1.237886762216     0.843113842091    -1.064994484461     1.007825032230
         H           -2.530991237784    -1.250869157909     0.381242515539     1.007825032230
         H           -2.032262237784     0.135280842091     1.392311515539     1.007825032230
         H            2.064031462216    -1.585411057909     0.637405315539     1.007825032230
         H            3.242197762216     2.029639842091    -0.119882484461     1.007825032230
         H            2.069803762216     1.641456842091     1.150973515539     1.007825032230
         H            3.533795762216     0.667446842091     0.968450515539     1.007825032230
         H           -0.354157237784    -1.891129157909     0.876010515539     1.007825032230
         H           -4.031517237784     0.731643842091    -0.017502484461     1.007825032230
         H           -2.618803237784     1.708008842091    -0.469784484461     1.007825032230
         H           -3.104113237784     0.331427842091    -1.486110484461     1.007825032230

  Basis Set: AUG-CC-PVTZ
    Blend: AUG-CC-PVTZ
  Basis Set: (AUG-CC-PVTZ AUX)
    Blend: AUG-CC-PVTZ-JKFIT
	 Reference Energy          =    -309.1373962458416145 [Eh]
	 Singles Energy            =      -0.0000000000000000 [Eh]
	 Same-Spin Energy          =      -0.3139516468079492 [Eh]
	 Opposite-Spin Energy      =      -1.0995292420284848 [Eh]
	 Correlation Energy        =      -1.4134808888364341 [Eh]
	 Total Energy              =    -310.5508771346780463 [Eh]

	 ================> DF-SCS-MP2 Energies <==================
	-----------------------------------------------------------
	 SCS Same-Spin Scale       =       0.3333333333333333 [-]
	 SCS Opposite-Spin Scale   =       1.2000000000000000 [-]
	 SCS Same-Spin Energy      =      -0.1046505489359831 [Eh]
	 SCS Opposite-Spin Energy  =      -1.3194350904341816 [Eh]
	 SCS Correlation Energy    =      -1.4240856393701646 [Eh]
	 SCS Total Energy          =    -310.5614818852117764 [Eh]
	-----------------------------------------------------------

  Dipole Moment: [D]
     X:    -1.0990      Y:    -0.1926      Z:     0.7272     Total:     1.3318

*** Psi4 exiting successfully. Buy a developer a beer!
