                               Psi4 1.4a3.dev225

  ==> Input File <==

--------------------------------------------------------------------------
#psi4
#
memory 32 gb

molecule  {
0 1
  O        0.9059480     0.1295110    -0.3069180
  C       -1.9753050    -0.3336000    -0.5537270
  C        2.1190110     0.1892690     0.4520280
  C       -1.3184330     0.9429980    -0.1246110
  C       -2.9908880    -0.8293550     0.4787900
  C        0.0027760     1.1130440     0.0171530
  C        3.0576820    -0.8509900    -0.1177330
  H       -2.4732493    -0.1867312    -1.4983008
  H       -1.2045440    -1.0918590    -0.7184600
  H        2.5525890     1.1965710     0.3749050
  H        1.9047370    -0.0062780     1.5110790
  H       -1.9523440     1.7996160     0.0958850
  H       -3.4787570    -1.7495600     0.1429400
  H       -2.4987140    -1.0317260     1.4340660
  H       -3.7695180    -0.0804100     0.6542360
  H        0.4396010     2.0570360     0.3475940
  H        4.0048870    -0.8497230     0.4289840
  H        2.6101410    -1.8440700    -0.0412770
  H        3.2577670    -0.6398860    -1.1701900
units angstrom
no_reorient  #important for SAPT in psi4, default
symmetry c1  #important for SAPT in psi4, default
}

set PROPERTIES_ORIGIN ["COM"]
properties('MP2/aug-cc-pvtz', properties = ['dipole'])
--------------------------------------------------------------------------

    Molecular point group: c1
  Charge       = 0
  Multiplicity = 1
  Basis Set: AUG-CC-PVTZ
    Blend: AUG-CC-PVTZ
  Basis Set: (AUG-CC-PVTZ AUX)
    Blend: AUG-CC-PVTZ-JKFIT

    Orbital Energies [Eh]
    ---------------------

    Doubly Occupied:

       1A    -20.571678     2A    -11.284266     3A    -11.278274
       4A    -11.219466     5A    -11.215016     6A    -11.213675
       7A    -11.208719     8A     -1.391809     9A     -1.074316
      10A     -1.026198    11A     -0.967324    12A     -0.851860
      13A     -0.841774    14A     -0.755427    15A     -0.685362
      16A     -0.652898    17A     -0.639906    18A     -0.600779
      19A     -0.563404    20A     -0.558992    21A     -0.540298
      22A     -0.526587    23A     -0.508346    24A     -0.502119
      25A     -0.480912    26A     -0.474380    27A     -0.461288
      28A     -0.327271

  @DF-RHF Final Energy:  -309.14109820974727

   => Energetics <=

    Nuclear Repulsion Energy =            301.2994073882532007
    One-Electron Energy =               -1016.0363225305808328
    Two-Electron Energy =                 405.5958169325804192
    Total Energy =                       -309.1410982097472697
  Basis Set: (AUG-CC-PVTZ AUX)
    Blend: AUG-CC-PVTZ-RI
    Molecular point group: c1

    Geometry (in Angstrom), charge = 0, multiplicity = 1:

       Center              X                  Y                   Z               Mass
    ------------   -----------------  -----------------  -----------------  -----------------
         O            0.899788274245     0.105513336766    -0.291804947449    15.994914619570
         C           -1.981464725755    -0.357597663234    -0.538613947449    12.000000000000
         C            2.112851274245     0.165271336766     0.467141052551    12.000000000000
         C           -1.324592725755     0.919000336766    -0.109497947449    12.000000000000
         C           -2.997047725755    -0.853352663234     0.493903052551    12.000000000000
         C           -0.003383725755     1.089046336766     0.032266052551    12.000000000000
         C            3.051522274245    -0.874987663234    -0.102619947449    12.000000000000
         H           -2.479409025755    -0.210728863234    -1.483187747449     1.007825032230
         H           -1.210703725755    -1.115856663234    -0.703346947449     1.007825032230
         H            2.546429274245     1.172573336766     0.390018052551     1.007825032230
         H            1.898577274245    -0.030275663234     1.526192052551     1.007825032230
         H           -1.958503725755     1.775618336766     0.110998052551     1.007825032230
         H           -3.484916725755    -1.773557663234     0.158053052551     1.007825032230
         H           -2.504873725755    -1.055723663234     1.449179052551     1.007825032230
         H           -3.775677725755    -0.104407663234     0.669349052551     1.007825032230
         H            0.433441274245     2.033038336766     0.362707052551     1.007825032230
         H            3.998727274245    -0.873720663234     0.444097052551     1.007825032230
         H            2.603981274245    -1.868067663234    -0.026163947449     1.007825032230
         H            3.251607274245    -0.663883663234    -1.155076947449     1.007825032230

  Basis Set: AUG-CC-PVTZ
    Blend: AUG-CC-PVTZ
  Basis Set: (AUG-CC-PVTZ AUX)
    Blend: AUG-CC-PVTZ-JKFIT
	 Reference Energy          =    -309.1410982097472697 [Eh]
	 Singles Energy            =      -0.0000000000000000 [Eh]
	 Same-Spin Energy          =      -0.3137561203544643 [Eh]
	 Opposite-Spin Energy      =      -1.0990016944121144 [Eh]
	 Correlation Energy        =      -1.4127578147665787 [Eh]
	 Total Energy              =    -310.5538560245138342 [Eh]

	 ================> DF-SCS-MP2 Energies <==================
	-----------------------------------------------------------
	 SCS Same-Spin Scale       =       0.3333333333333333 [-]
	 SCS Opposite-Spin Scale   =       1.2000000000000000 [-]
	 SCS Same-Spin Energy      =      -0.1045853734514881 [Eh]
	 SCS Opposite-Spin Energy  =      -1.3188020332945372 [Eh]
	 SCS Correlation Energy    =      -1.4233874067460253 [Eh]
	 SCS Total Energy          =    -310.5644856164933003 [Eh]
	-----------------------------------------------------------

  Dipole Moment: [D]
     X:     1.0098      Y:     0.2890      Z:     0.7490     Total:     1.2901

*** Psi4 exiting successfully. Buy a developer a beer!
