                               Psi4 1.3.2 release

  ==> Input File <==

--------------------------------------------------------------------------
#psi4
#
memory 32 gb

molecule  {
0 1
  O       -0.8411900    -0.2286010    -0.2822800
  C        2.0174600     0.2824600    -0.5354820
  C       -2.1232200    -0.2252560     0.3552070
  C        1.3918360    -0.8685520     0.1861030
  C        2.7429153     1.2142288     0.4365959
  C        0.0733200    -1.0572940     0.3167640
  C       -3.0226980     0.6919650    -0.4518750
  H        2.7003293    -0.1009194    -1.3004588
  H        1.2438280     0.8410150    -1.0636660
  H       -2.5250500    -1.2529680     0.3825710
  H       -2.0263210     0.1331820     1.3936400
  H        2.0399100    -1.6071390     0.6510050
  H        3.2481390     2.0275410    -0.1185540
  H        2.0757450     1.6393580     1.1523020
  H        3.5397370     0.6653480     0.9697790
  H       -0.3482160    -1.8932280     0.8773390
  H       -4.0255760     0.7295450    -0.0161740
  H       -2.6128620     1.7059100    -0.4684560
  H       -3.0981720     0.3293290    -1.4847820
units angstrom
no_reorient  #important for SAPT in psi4, default
symmetry c1  #important for SAPT in psi4, default
}

set PROPERTIES_ORIGIN ["COM"]
properties('MP2/aug-cc-pvtz', properties = ['dipole'])
--------------------------------------------------------------------------

    Molecular point group: c1
  Charge       = 0
  Multiplicity = 1
  Basis Set: AUG-CC-PVTZ
    Blend: AUG-CC-PVTZ
  Basis Set: (AUG-CC-PVTZ AUX)
    Blend: AUG-CC-PVTZ-JKFIT

    Orbital Energies [Eh]
    ---------------------

    Doubly Occupied:

       1A    -20.572121     2A    -11.286350     3A    -11.277820
       4A    -11.221067     5A    -11.214782     6A    -11.213036
       7A    -11.207828     8A     -1.393071     9A     -1.074800
      10A     -1.024992    11A     -0.966421    12A     -0.851768
      13A     -0.841631    14A     -0.754545    15A     -0.683642
      16A     -0.654294    17A     -0.642006    18A     -0.598981
      19A     -0.560370    20A     -0.555377    21A     -0.541385
      22A     -0.526865    23A     -0.514690    24A     -0.500324
      25A     -0.479556    26A     -0.472562    27A     -0.462490
      28A     -0.325510

  @DF-RHF Final Energy:  -309.13995981843476

   => Energetics <=

    Nuclear Repulsion Energy =            302.2436499892241955
    One-Electron Energy =               -1017.9306502528290821
    Two-Electron Energy =                 406.5470404451701256
    Total Energy =                       -309.1399598184347610
  Basis Set: (AUG-CC-PVTZ AUX)
    Blend: AUG-CC-PVTZ-RI
    Molecular point group: c1

    Geometry (in Angstrom), charge = 0, multiplicity = 1:

       Center              X                  Y                   Z               Mass
    ------------   -----------------  -----------------  -----------------  -----------------
         O           -0.838329976104    -0.228963824209    -0.283827439130    15.994914619570
         C            2.020320023896     0.282097175791    -0.537029439130    12.000000000000
         C           -2.120359976104    -0.225618824209     0.353659560870    12.000000000000
         C            1.394696023896    -0.868914824209     0.184555560870    12.000000000000
         C            2.745775323896     1.213865975791     0.435048460870    12.000000000000
         C            0.076180023896    -1.057656824209     0.315216560870    12.000000000000
         C           -3.019837976104     0.691602175791    -0.453422439130    12.000000000000
         H            2.703189323896    -0.101282224209    -1.302006239130     1.007825032230
         H            1.246688023896     0.840652175791    -1.065213439130     1.007825032230
         H           -2.522189976104    -1.253330824209     0.381023560870     1.007825032230
         H           -2.023460976104     0.132819175791     1.392092560870     1.007825032230
         H            2.042770023896    -1.607501824209     0.649457560870     1.007825032230
         H            3.250999023896     2.027178175791    -0.120101439130     1.007825032230
         H            2.078605023896     1.638995175791     1.150754560870     1.007825032230
         H            3.542597023896     0.664985175791     0.968231560870     1.007825032230
         H           -0.345355976104    -1.893590824209     0.875791560870     1.007825032230
         H           -4.022715976104     0.729182175791    -0.017721439130     1.007825032230
         H           -2.610001976104     1.705547175791    -0.470003439130     1.007825032230
         H           -3.095311976104     0.328966175791    -1.486329439130     1.007825032230

  Basis Set: AUG-CC-PVTZ
    Blend: AUG-CC-PVTZ
  Basis Set: (AUG-CC-PVTZ AUX)
    Blend: AUG-CC-PVTZ-JKFIT
	 Reference Energy          =    -309.1399598184347610 [Eh]
	 Singles Energy            =      -0.0000000000000000 [Eh]
	 Same-Spin Energy          =      -0.3138443332590120 [Eh]
	 Opposite-Spin Energy      =      -1.0992515954340829 [Eh]
	 Correlation Energy        =      -1.4130959286930949 [Eh]
	 Total Energy              =    -310.5530557471278712 [Eh]

	 ================> DF-SCS-MP2 Energies <==================
	-----------------------------------------------------------
	 SCS Same-Spin Scale       =       0.3333333333333333 [-]
	 SCS Opposite-Spin Scale   =       1.2000000000000000 [-]
	 SCS Same-Spin Energy      =      -0.1046147777530040 [Eh]
	 SCS Opposite-Spin Energy  =      -1.3191019145208995 [Eh]
	 SCS Correlation Energy    =      -1.4237166922739035 [Eh]
	 SCS Total Energy          =    -310.5636765107086603 [Eh]
	-----------------------------------------------------------

  Dipole Moment: [D]
     X:    -1.1052      Y:    -0.1866      Z:     0.7262     Total:     1.3355

*** Psi4 exiting successfully. Buy a developer a beer!
