                               Psi4 1.3.2 release

  ==> Input File <==

--------------------------------------------------------------------------
#psi4
#
memory 32 gb

molecule  {
0 1
  O       -0.8411900    -0.2286010    -0.2822800
  C        2.0174600     0.2824600    -0.5354820
  C       -2.1232200    -0.2252560     0.3552070
  C        1.3918360    -0.8685520     0.1861030
  C        2.8321555     1.1970909     0.3805614
  C        0.0733200    -1.0572940     0.3167640
  C       -3.0226980     0.6919650    -0.4518750
  H        2.7559889    -0.0604595    -1.2672341
  H        1.2438280     0.8410150    -1.0636660
  H       -2.5250500    -1.2529680     0.3825710
  H       -2.0263210     0.1331820     1.3936400
  H        2.0399100    -1.6071390     0.6510050
  H        3.2481390     2.0275410    -0.1185540
  H        2.0757450     1.6393580     1.1523020
  H        3.5397370     0.6653480     0.9697790
  H       -0.3482160    -1.8932280     0.8773390
  H       -4.0255760     0.7295450    -0.0161740
  H       -2.6128620     1.7059100    -0.4684560
  H       -3.0981720     0.3293290    -1.4847820
units angstrom
no_reorient  #important for SAPT in psi4, default
symmetry c1  #important for SAPT in psi4, default
}

set PROPERTIES_ORIGIN ["COM"]
properties('MP2/aug-cc-pvtz', properties = ['dipole'])
--------------------------------------------------------------------------

    Molecular point group: c1
  Charge       = 0
  Multiplicity = 1
  Basis Set: AUG-CC-PVTZ
    Blend: AUG-CC-PVTZ
  Basis Set: (AUG-CC-PVTZ AUX)
    Blend: AUG-CC-PVTZ-JKFIT

    Orbital Energies [Eh]
    ---------------------

    Doubly Occupied:

       1A    -20.572844     2A    -11.286686     3A    -11.279367
       4A    -11.221236     5A    -11.215428     6A    -11.214533
       7A    -11.207850     8A     -1.393787     9A     -1.074812
      10A     -1.025515    11A     -0.968411    12A     -0.851421
      13A     -0.841528    14A     -0.755065    15A     -0.684263
      16A     -0.655122    17A     -0.644405    18A     -0.594498
      19A     -0.569658    20A     -0.556779    21A     -0.544488
      22A     -0.528856    23A     -0.506821    24A     -0.505023
      25A     -0.476081    26A     -0.469732    27A     -0.459261
      28A     -0.325892

  @DF-RHF Final Energy:  -309.13367418566656

   => Energetics <=

    Nuclear Repulsion Energy =            301.8115761509845925
    One-Electron Energy =               -1017.0317739128514631
    Two-Electron Energy =                 406.0865235762003067
    Total Energy =                       -309.1336741856665640
  Basis Set: (AUG-CC-PVTZ AUX)
    Blend: AUG-CC-PVTZ-RI
    Molecular point group: c1

    Geometry (in Angstrom), charge = 0, multiplicity = 1:

       Center              X                  Y                   Z               Mass
    ------------   -----------------  -----------------  -----------------  -----------------
         O           -0.849589751116    -0.227316504277    -0.277443815589    15.994914619570
         C            2.009060248884     0.283744495723    -0.530645815589    12.000000000000
         C           -2.131619751116    -0.223971504277     0.360043184411    12.000000000000
         C            1.383436248884    -0.867267504277     0.190939184411    12.000000000000
         C            2.823755748884     1.198375395723     0.385397584411    12.000000000000
         C            0.064920248884    -1.056009504277     0.321600184411    12.000000000000
         C           -3.031097751116     0.693249495723    -0.447038815589    12.000000000000
         H            2.747589148884    -0.059175004277    -1.262397915589     1.007825032230
         H            1.235428248884     0.842299495723    -1.058829815589     1.007825032230
         H           -2.533449751116    -1.251683504277     0.387407184411     1.007825032230
         H           -2.034720751116     0.134466495723     1.398476184411     1.007825032230
         H            2.031510248884    -1.605854504277     0.655841184411     1.007825032230
         H            3.239739248884     2.028825495723    -0.113717815589     1.007825032230
         H            2.067345248884     1.640642495723     1.157138184411     1.007825032230
         H            3.531337248884     0.666632495723     0.974615184411     1.007825032230
         H           -0.356615751116    -1.891943504277     0.882175184411     1.007825032230
         H           -4.033975751116     0.730829495723    -0.011337815589     1.007825032230
         H           -2.621261751116     1.707194495723    -0.463619815589     1.007825032230
         H           -3.106571751116     0.330613495723    -1.479945815589     1.007825032230

  Basis Set: AUG-CC-PVTZ
    Blend: AUG-CC-PVTZ
  Basis Set: (AUG-CC-PVTZ AUX)
    Blend: AUG-CC-PVTZ-JKFIT
	 Reference Energy          =    -309.1336741856665640 [Eh]
	 Singles Energy            =      -0.0000000000000000 [Eh]
	 Same-Spin Energy          =      -0.3139351014245795 [Eh]
	 Opposite-Spin Energy      =      -1.0995074120550630 [Eh]
	 Correlation Energy        =      -1.4134425134796424 [Eh]
	 Total Energy              =    -310.5471166991462155 [Eh]

	 ================> DF-SCS-MP2 Energies <==================
	-----------------------------------------------------------
	 SCS Same-Spin Scale       =       0.3333333333333333 [-]
	 SCS Opposite-Spin Scale   =       1.2000000000000000 [-]
	 SCS Same-Spin Energy      =      -0.1046450338081931 [Eh]
	 SCS Opposite-Spin Energy  =      -1.3194088944660756 [Eh]
	 SCS Correlation Energy    =      -1.4240539282742688 [Eh]
	 SCS Total Energy          =    -310.5577281139408115 [Eh]
	-----------------------------------------------------------

  Dipole Moment: [D]
     X:    -1.0859      Y:    -0.2106      Z:     0.7099     Total:     1.3143

*** Psi4 exiting successfully. Buy a developer a beer!
