                               Psi4 1.3.2 release

  ==> Input File <==

--------------------------------------------------------------------------
#psi4
#
memory 32 gb

molecule  {
0 1
  O       -0.8411900    -0.2286010    -0.2822800
  C        2.0174600     0.2824600    -0.5354820
  C       -2.1232200    -0.2252560     0.3552070
  C        1.3918360    -0.8685520     0.1861030
  C        2.7655740     1.2103670     0.4230210
  C        0.0713685    -1.0475725     0.3105923
  C       -3.0226980     0.6919650    -0.4518750
  H        2.7145670    -0.0909720    -1.2924960
  H        1.2438280     0.8410150    -1.0636660
  H       -2.5250500    -1.2529680     0.3825710
  H       -2.0263210     0.1331820     1.3936400
  H        2.0475009    -1.6023673     0.6479073
  H        3.2481390     2.0275410    -0.1185540
  H        2.0757450     1.6393580     1.1523020
  H        3.5397370     0.6653480     0.9697790
  H       -0.3482160    -1.8932280     0.8773390
  H       -4.0255760     0.7295450    -0.0161740
  H       -2.6128620     1.7059100    -0.4684560
  H       -3.0981720     0.3293290    -1.4847820
units angstrom
no_reorient  #important for SAPT in psi4, default
symmetry c1  #important for SAPT in psi4, default
}

set PROPERTIES_ORIGIN ["COM"]
properties('MP2/aug-cc-pvtz', properties = ['dipole'])
--------------------------------------------------------------------------

    Molecular point group: c1
  Charge       = 0
  Multiplicity = 1
  Basis Set: AUG-CC-PVTZ
    Blend: AUG-CC-PVTZ
  Basis Set: (AUG-CC-PVTZ AUX)
    Blend: AUG-CC-PVTZ-JKFIT

    Orbital Energies [Eh]
    ---------------------

    Doubly Occupied:

       1A    -20.573648     2A    -11.287474     3A    -11.278782
       4A    -11.221735     5A    -11.213879     6A    -11.212318
       7A    -11.206924     8A     -1.397621     9A     -1.074627
      10A     -1.025978    11A     -0.966057    12A     -0.852096
      13A     -0.841269    14A     -0.754829    15A     -0.683928
      16A     -0.655235    17A     -0.644156    18A     -0.597537
      19A     -0.560921    20A     -0.557228    21A     -0.542593
      22A     -0.528448    23A     -0.509024    24A     -0.502485
      25A     -0.477771    26A     -0.474475    27A     -0.463357
      28A     -0.324578

  @DF-RHF Final Energy:  -309.14094269150024

   => Energetics <=

    Nuclear Repulsion Energy =            302.3016215243165448
    One-Electron Energy =               -1018.0271790445310671
    Two-Electron Energy =                 406.5846148287143365
    Total Energy =                       -309.1409426915002427
  Basis Set: (AUG-CC-PVTZ AUX)
    Blend: AUG-CC-PVTZ-RI
    Molecular point group: c1

    Geometry (in Angstrom), charge = 0, multiplicity = 1:

       Center              X                  Y                   Z               Mass
    ------------   -----------------  -----------------  -----------------  -----------------
         O           -0.841032434011    -0.229814575389    -0.281508938002    15.994914619570
         C            2.017617565989     0.281246424611    -0.534710938002    12.000000000000
         C           -2.123062434011    -0.226469575389     0.355978061998    12.000000000000
         C            1.391993565989    -0.869765575389     0.186874061998    12.000000000000
         C            2.765731565989     1.209153424611     0.423792061998    12.000000000000
         C            0.071526065989    -1.048786075389     0.311363361998    12.000000000000
         C           -3.022540434011     0.690751424611    -0.451103938002    12.000000000000
         H            2.714724565989    -0.092185575389    -1.291724938002     1.007825032230
         H            1.243985565989     0.839801424611    -1.062894938002     1.007825032230
         H           -2.524892434011    -1.254181575389     0.383342061998     1.007825032230
         H           -2.026163434011     0.131968424611     1.394411061998     1.007825032230
         H            2.047658465989    -1.603580875389     0.648678361998     1.007825032230
         H            3.248296565989     2.026327424611    -0.117782938002     1.007825032230
         H            2.075902565989     1.638144424611     1.153073061998     1.007825032230
         H            3.539894565989     0.664134424611     0.970550061998     1.007825032230
         H           -0.348058434011    -1.894441575389     0.878110061998     1.007825032230
         H           -4.025418434011     0.728331424611    -0.015402938002     1.007825032230
         H           -2.612704434011     1.704696424611    -0.467684938002     1.007825032230
         H           -3.098014434011     0.328115424611    -1.484010938002     1.007825032230

  Basis Set: AUG-CC-PVTZ
    Blend: AUG-CC-PVTZ
  Basis Set: (AUG-CC-PVTZ AUX)
    Blend: AUG-CC-PVTZ-JKFIT
	 Reference Energy          =    -309.1409426915002427 [Eh]
	 Singles Energy            =      -0.0000000000000000 [Eh]
	 Same-Spin Energy          =      -0.3138380366797914 [Eh]
	 Opposite-Spin Energy      =      -1.0990453624705891 [Eh]
	 Correlation Energy        =      -1.4128833991503806 [Eh]
	 Total Energy              =    -310.5538260906506025 [Eh]

	 ================> DF-SCS-MP2 Energies <==================
	-----------------------------------------------------------
	 SCS Same-Spin Scale       =       0.3333333333333333 [-]
	 SCS Opposite-Spin Scale   =       1.2000000000000000 [-]
	 SCS Same-Spin Energy      =      -0.1046126788932638 [Eh]
	 SCS Opposite-Spin Energy  =      -1.3188544349647069 [Eh]
	 SCS Correlation Energy    =      -1.4234671138579706 [Eh]
	 SCS Total Energy          =    -310.5644098053581956 [Eh]
	-----------------------------------------------------------

  Dipole Moment: [D]
     X:    -1.1582      Y:    -0.1688      Z:     0.7125     Total:     1.3703

*** Psi4 exiting successfully. Buy a developer a beer!
