                               Psi4 1.4a3.dev225

  ==> Input File <==

--------------------------------------------------------------------------
#psi4
#
memory 32 gb

molecule  {
0 1
  O        0.9059480     0.1295110    -0.3069180
  C       -1.9753050    -0.3336000    -0.5537270
  C        2.1190110     0.1892690     0.4520280
  C       -1.3184330     0.9429980    -0.1246110
  C       -2.9908880    -0.8293550     0.4787900
  C        0.0027760     1.1130440     0.0171530
  C        3.0266530    -0.8166029    -0.0988988
  H       -2.4824890    -0.1840060    -1.5158280
  H       -1.2045440    -1.0918590    -0.7184600
  H        2.5525890     1.1965710     0.3749050
  H        1.9047370    -0.0062780     1.5110790
  H       -1.9523440     1.7996160     0.0958850
  H       -3.4787570    -1.7495600     0.1429400
  H       -2.4987140    -1.0317260     1.4340660
  H       -3.7695180    -0.0804100     0.6542360
  H        0.4396010     2.0570360     0.3475940
  H        4.0048870    -0.8497230     0.4289840
  H        2.6101410    -1.8440700    -0.0412770
  H        3.2577670    -0.6398860    -1.1701900
units angstrom
no_reorient  #important for SAPT in psi4, default
symmetry c1  #important for SAPT in psi4, default
}

set PROPERTIES_ORIGIN ["COM"]
properties('MP2/aug-cc-pvtz', properties = ['dipole'])
--------------------------------------------------------------------------

    Molecular point group: c1
  Charge       = 0
  Multiplicity = 1
  Basis Set: AUG-CC-PVTZ
    Blend: AUG-CC-PVTZ
  Basis Set: (AUG-CC-PVTZ AUX)
    Blend: AUG-CC-PVTZ-JKFIT

    Orbital Energies [Eh]
    ---------------------

    Doubly Occupied:

       1A    -20.571864     2A    -11.282283     3A    -11.278461
       4A    -11.221550     5A    -11.216397     6A    -11.215082
       7A    -11.208942     8A     -1.392810     9A     -1.076085
      10A     -1.032539    11A     -0.967944    12A     -0.849471
      13A     -0.839625    14A     -0.755553    15A     -0.686599
      16A     -0.654619    17A     -0.641980    18A     -0.600393
      19A     -0.564947    20A     -0.559344    21A     -0.534644
      22A     -0.523296    23A     -0.508506    24A     -0.505835
      25A     -0.479624    26A     -0.473493    27A     -0.460397
      28A     -0.327359

  @DF-RHF Final Energy:  -309.13806279704067

   => Energetics <=

    Nuclear Repulsion Energy =            301.9118595722475220
    One-Electron Energy =               -1017.2405609519615837
    Two-Electron Energy =                 406.1906385826733867
    Total Energy =                       -309.1380627970406749
  Basis Set: (AUG-CC-PVTZ AUX)
    Blend: AUG-CC-PVTZ-RI
    Molecular point group: c1

    Geometry (in Angstrom), charge = 0, multiplicity = 1:

       Center              X                  Y                   Z               Mass
    ------------   -----------------  -----------------  -----------------  -----------------
         O            0.903601487549     0.101363105546    -0.293886559156    15.994914619570
         C           -1.977651512451    -0.361747894454    -0.540695559156    12.000000000000
         C            2.116664487549     0.161121105546     0.465059440844    12.000000000000
         C           -1.320779512451     0.914850105546    -0.111579559156    12.000000000000
         C           -2.993234512451    -0.857502894454     0.491821440844    12.000000000000
         C            0.000429487549     1.084896105546     0.030184440844    12.000000000000
         C            3.024306487549    -0.844750794454    -0.085867359156    12.000000000000
         H           -2.484835512451    -0.212153894454    -1.502796559156     1.007825032230
         H           -1.206890512451    -1.120006894454    -0.705428559156     1.007825032230
         H            2.550242487549     1.168423105546     0.387936440844     1.007825032230
         H            1.902390487549    -0.034425894454     1.524110440844     1.007825032230
         H           -1.954690512451     1.771468105546     0.108916440844     1.007825032230
         H           -3.481103512451    -1.777707894454     0.155971440844     1.007825032230
         H           -2.501060512451    -1.059873894454     1.447097440844     1.007825032230
         H           -3.771864512451    -0.108557894454     0.667267440844     1.007825032230
         H            0.437254487549     2.028888105546     0.360625440844     1.007825032230
         H            4.002540487549    -0.877870894454     0.442015440844     1.007825032230
         H            2.607794487549    -1.872217894454    -0.028245559156     1.007825032230
         H            3.255420487549    -0.668033894454    -1.157158559156     1.007825032230

  Basis Set: AUG-CC-PVTZ
    Blend: AUG-CC-PVTZ
  Basis Set: (AUG-CC-PVTZ AUX)
    Blend: AUG-CC-PVTZ-JKFIT
	 Reference Energy          =    -309.1380627970406749 [Eh]
	 Singles Energy            =      -0.0000000000000000 [Eh]
	 Same-Spin Energy          =      -0.3141441154048757 [Eh]
	 Opposite-Spin Energy      =      -1.0994949990644856 [Eh]
	 Correlation Energy        =      -1.4136391144693614 [Eh]
	 Total Energy              =    -310.5517019115100084 [Eh]

	 ================> DF-SCS-MP2 Energies <==================
	-----------------------------------------------------------
	 SCS Same-Spin Scale       =       0.3333333333333333 [-]
	 SCS Opposite-Spin Scale   =       1.2000000000000000 [-]
	 SCS Same-Spin Energy      =      -0.1047147051349586 [Eh]
	 SCS Opposite-Spin Energy  =      -1.3193939988773826 [Eh]
	 SCS Correlation Energy    =      -1.4241087040123412 [Eh]
	 SCS Total Energy          =    -310.5621715010530011 [Eh]
	-----------------------------------------------------------

  Dipole Moment: [D]
     X:     1.0349      Y:     0.2814      Z:     0.7620     Total:     1.3157

*** Psi4 exiting successfully. Buy a developer a beer!
