                               Psi4 1.3.2 release

  ==> Input File <==

--------------------------------------------------------------------------
#psi4
#
memory 32 gb

molecule  {
0 1
  O       -0.8411900    -0.2286010    -0.2822800
  C        2.0174600     0.2824600    -0.5354820
  C       -2.1232200    -0.2252560     0.3552070
  C        1.4339050    -0.9169349     0.1411526
  C        2.7655740     1.2103670     0.4230210
  C        0.0733200    -1.0572940     0.3167640
  C       -3.0226980     0.6919650    -0.4518750
  H        2.7012310    -0.1443076    -1.2762967
  H        1.2438280     0.8410150    -1.0636660
  H       -2.5250500    -1.2529680     0.3825710
  H       -2.0263210     0.1331820     1.3936400
  H        2.0399100    -1.6071390     0.6510050
  H        3.2481390     2.0275410    -0.1185540
  H        2.0757450     1.6393580     1.1523020
  H        3.5397370     0.6653480     0.9697790
  H       -0.3482160    -1.8932280     0.8773390
  H       -4.0255760     0.7295450    -0.0161740
  H       -2.6128620     1.7059100    -0.4684560
  H       -3.0981720     0.3293290    -1.4847820
units angstrom
no_reorient  #important for SAPT in psi4, default
symmetry c1  #important for SAPT in psi4, default
}

set PROPERTIES_ORIGIN ["COM"]
properties('MP2/aug-cc-pvtz', properties = ['dipole'])
--------------------------------------------------------------------------

    Molecular point group: c1
  Charge       = 0
  Multiplicity = 1
  Basis Set: AUG-CC-PVTZ
    Blend: AUG-CC-PVTZ
  Basis Set: (AUG-CC-PVTZ AUX)
    Blend: AUG-CC-PVTZ-JKFIT

    Orbital Energies [Eh]
    ---------------------

    Doubly Occupied:

       1A    -20.575083     2A    -11.287580     3A    -11.284328
       4A    -11.221853     5A    -11.215340     6A    -11.214193
       7A    -11.208174     8A     -1.394656     9A     -1.071222
      10A     -1.025654    11A     -0.961558    12A     -0.853506
      13A     -0.841520    14A     -0.758414    15A     -0.681992
      16A     -0.654755    17A     -0.643821    18A     -0.593468
      19A     -0.566382    20A     -0.555882    21A     -0.543037
      22A     -0.530568    23A     -0.511772    24A     -0.502549
      25A     -0.477049    26A     -0.472237    27A     -0.466641
      28A     -0.316703

  @DF-RHF Final Energy:  -309.13415235179184

   => Energetics <=

    Nuclear Repulsion Energy =            301.3899121275845232
    One-Electron Energy =               -1016.1882588544779082
    Two-Electron Energy =                 405.6641943751016015
    Total Energy =                       -309.1341523517918404
  Basis Set: (AUG-CC-PVTZ AUX)
    Blend: AUG-CC-PVTZ-RI
    Molecular point group: c1

    Geometry (in Angstrom), charge = 0, multiplicity = 1:

       Center              X                  Y                   Z               Mass
    ------------   -----------------  -----------------  -----------------  -----------------
         O           -0.846099487171    -0.222263134287    -0.277053930714    15.994914619570
         C            2.012550512829     0.288797865713    -0.530255930714    12.000000000000
         C           -2.128129487171    -0.218918134287     0.360433069286    12.000000000000
         C            1.428995512829    -0.910597034287     0.146378669286    12.000000000000
         C            2.760664512829     1.216704865713     0.428247069286    12.000000000000
         C            0.068410512829    -1.050956134287     0.321990069286    12.000000000000
         C           -3.027607487171     0.698302865713    -0.446648930714    12.000000000000
         H            2.696321512829    -0.137969734287    -1.271070630714     1.007825032230
         H            1.238918512829     0.847352865713    -1.058439930714     1.007825032230
         H           -2.529959487171    -1.246630134287     0.387797069286     1.007825032230
         H           -2.031230487171     0.139519865713     1.398866069286     1.007825032230
         H            2.035000512829    -1.600801134287     0.656231069286     1.007825032230
         H            3.243229512829     2.033878865713    -0.113327930714     1.007825032230
         H            2.070835512829     1.645695865713     1.157528069286     1.007825032230
         H            3.534827512829     0.671685865713     0.975005069286     1.007825032230
         H           -0.353125487171    -1.886890134287     0.882565069286     1.007825032230
         H           -4.030485487171     0.735882865713    -0.010947930714     1.007825032230
         H           -2.617771487171     1.712247865713    -0.463229930714     1.007825032230
         H           -3.103081487171     0.335666865713    -1.479555930714     1.007825032230

  Basis Set: AUG-CC-PVTZ
    Blend: AUG-CC-PVTZ
  Basis Set: (AUG-CC-PVTZ AUX)
    Blend: AUG-CC-PVTZ-JKFIT
	 Reference Energy          =    -309.1341523517918404 [Eh]
	 Singles Energy            =      -0.0000000000000000 [Eh]
	 Same-Spin Energy          =      -0.3143869458101595 [Eh]
	 Opposite-Spin Energy      =      -1.1006329396039647 [Eh]
	 Correlation Energy        =      -1.4150198854141243 [Eh]
	 Total Energy              =    -310.5491722372059371 [Eh]

	 ================> DF-SCS-MP2 Energies <==================
	-----------------------------------------------------------
	 SCS Same-Spin Scale       =       0.3333333333333333 [-]
	 SCS Opposite-Spin Scale   =       1.2000000000000000 [-]
	 SCS Same-Spin Energy      =      -0.1047956486033865 [Eh]
	 SCS Opposite-Spin Energy  =      -1.3207595275247577 [Eh]
	 SCS Correlation Energy    =      -1.4255551761281442 [Eh]
	 SCS Total Energy          =    -310.5597075279200112 [Eh]
	-----------------------------------------------------------

  Dipole Moment: [D]
     X:    -1.1639      Y:    -0.1246      Z:     0.8031     Total:     1.4196

*** Psi4 exiting successfully. Buy a developer a beer!
