                               Psi4 1.4a3.dev225

  ==> Input File <==

--------------------------------------------------------------------------
#psi4
#
memory 32 gb

molecule  {
0 1
  O        0.9059480     0.1295110    -0.3069180
  C       -1.9753050    -0.3336000    -0.5537270
  C        2.1190110     0.1892690     0.4520280
  C       -1.3184330     0.9429980    -0.1246110
  C       -2.9908880    -0.8293550     0.4787900
  C        0.0027760     1.1130440     0.0171530
  C        3.0576820    -0.8509900    -0.1177330
  H       -2.4917287    -0.1812808    -1.5333552
  H       -1.2045440    -1.0918590    -0.7184600
  H        2.5525890     1.1965710     0.3749050
  H        1.9047370    -0.0062780     1.5110790
  H       -1.9523440     1.7996160     0.0958850
  H       -3.4787570    -1.7495600     0.1429400
  H       -2.4987140    -1.0317260     1.4340660
  H       -3.7695180    -0.0804100     0.6542360
  H        0.4396010     2.0570360     0.3475940
  H        4.0048870    -0.8497230     0.4289840
  H        2.6101410    -1.8440700    -0.0412770
  H        3.2577670    -0.6398860    -1.1701900
units angstrom
no_reorient  #important for SAPT in psi4, default
symmetry c1  #important for SAPT in psi4, default
}

set PROPERTIES_ORIGIN ["COM"]
properties('MP2/aug-cc-pvtz', properties = ['dipole'])
--------------------------------------------------------------------------

    Molecular point group: c1
  Charge       = 0
  Multiplicity = 1
  Basis Set: AUG-CC-PVTZ
    Blend: AUG-CC-PVTZ
  Basis Set: (AUG-CC-PVTZ AUX)
    Blend: AUG-CC-PVTZ-JKFIT

    Orbital Energies [Eh]
    ---------------------

    Doubly Occupied:

       1A    -20.571913     2A    -11.284429     3A    -11.278608
       4A    -11.219579     5A    -11.218811     6A    -11.215270
       7A    -11.209147     8A     -1.392042     9A     -1.073721
      10A     -1.025793    11A     -0.967264    12A     -0.851027
      13A     -0.841010    14A     -0.754275    15A     -0.684974
      16A     -0.652913    17A     -0.640073    18A     -0.597899
      19A     -0.563311    20A     -0.559214    21A     -0.540476
      22A     -0.526777    23A     -0.507688    24A     -0.502326
      25A     -0.478311    26A     -0.474624    27A     -0.461434
      28A     -0.327184

  @DF-RHF Final Energy:  -309.14056117506630

   => Energetics <=

    Nuclear Repulsion Energy =            301.1125996964454998
    One-Electron Energy =               -1015.6661347146817889
    Two-Electron Energy =                 405.4129738431699934
    Total Energy =                       -309.1405611750662956
  Basis Set: (AUG-CC-PVTZ AUX)
    Blend: AUG-CC-PVTZ-RI
    Molecular point group: c1

    Geometry (in Angstrom), charge = 0, multiplicity = 1:

       Center              X                  Y                   Z               Mass
    ------------   -----------------  -----------------  -----------------  -----------------
         O            0.899974349002     0.105458455014    -0.291451973924    15.994914619570
         C           -1.981278650998    -0.357652544986    -0.538260973924    12.000000000000
         C            2.113037349002     0.165216455014     0.467494026076    12.000000000000
         C           -1.324406650998     0.918945455014    -0.109144973924    12.000000000000
         C           -2.996861650998    -0.853407544986     0.494256026076    12.000000000000
         C           -0.003197650998     1.088991455014     0.032619026076    12.000000000000
         C            3.051708349002    -0.875042544986    -0.102266973924    12.000000000000
         H           -2.497702350998    -0.205333344986    -1.517889173924     1.007825032230
         H           -1.210517650998    -1.115911544986    -0.702993973924     1.007825032230
         H            2.546615349002     1.172518455014     0.390371026076     1.007825032230
         H            1.898763349002    -0.030330544986     1.526545026076     1.007825032230
         H           -1.958317650998     1.775563455014     0.111351026076     1.007825032230
         H           -3.484730650998    -1.773612544986     0.158406026076     1.007825032230
         H           -2.504687650998    -1.055778544986     1.449532026076     1.007825032230
         H           -3.775491650998    -0.104462544986     0.669702026076     1.007825032230
         H            0.433627349002     2.032983455014     0.363060026076     1.007825032230
         H            3.998913349002    -0.873775544986     0.444450026076     1.007825032230
         H            2.604167349002    -1.868122544986    -0.025810973924     1.007825032230
         H            3.251793349002    -0.663938544986    -1.154723973924     1.007825032230

  Basis Set: AUG-CC-PVTZ
    Blend: AUG-CC-PVTZ
  Basis Set: (AUG-CC-PVTZ AUX)
    Blend: AUG-CC-PVTZ-JKFIT
	 Reference Energy          =    -309.1405611750662956 [Eh]
	 Singles Energy            =      -0.0000000000000000 [Eh]
	 Same-Spin Energy          =      -0.3137477012995158 [Eh]
	 Opposite-Spin Energy      =      -1.0992337807091788 [Eh]
	 Correlation Energy        =      -1.4129814820086946 [Eh]
	 Total Energy              =    -310.5535426570750133 [Eh]

	 ================> DF-SCS-MP2 Energies <==================
	-----------------------------------------------------------
	 SCS Same-Spin Scale       =       0.3333333333333333 [-]
	 SCS Opposite-Spin Scale   =       1.2000000000000000 [-]
	 SCS Same-Spin Energy      =      -0.1045825670998386 [Eh]
	 SCS Opposite-Spin Energy  =      -1.3190805368510146 [Eh]
	 SCS Correlation Energy    =      -1.4236631039508532 [Eh]
	 SCS Total Energy          =    -310.5642242790171395 [Eh]
	-----------------------------------------------------------

  Dipole Moment: [D]
     X:     1.0253      Y:     0.2913      Z:     0.7746     Total:     1.3176

*** Psi4 exiting successfully. Buy a developer a beer!
