                               Psi4 1.3.2 release

  ==> Input File <==

--------------------------------------------------------------------------
#psi4
#
memory 32 gb

molecule  {
0 1
  O       -0.8500783    -0.2351290    -0.2776219
  C        2.0174600     0.2824600    -0.5354820
  C       -2.1232200    -0.2252560     0.3552070
  C        1.3937887    -0.8778990     0.1928281
  C        2.7655740     1.2103670     0.4230210
  C        0.0733200    -1.0572940     0.3167640
  C       -3.0226980     0.6919650    -0.4518750
  H        2.7145670    -0.0909720    -1.2924960
  H        1.2438280     0.8410150    -1.0636660
  H       -2.5250500    -1.2529680     0.3825710
  H       -2.0263210     0.1331820     1.3936400
  H        2.0399100    -1.6071390     0.6510050
  H        3.2481390     2.0275410    -0.1185540
  H        2.0757450     1.6393580     1.1523020
  H        3.5397370     0.6653480     0.9697790
  H       -0.3482160    -1.8932280     0.8773390
  H       -4.0255760     0.7295450    -0.0161740
  H       -2.6128620     1.7059100    -0.4684560
  H       -3.0981720     0.3293290    -1.4847820
units angstrom
no_reorient  #important for SAPT in psi4, default
symmetry c1  #important for SAPT in psi4, default
}

set PROPERTIES_ORIGIN ["COM"]
properties('MP2/aug-cc-pvtz', properties = ['dipole'])
--------------------------------------------------------------------------

    Molecular point group: c1
  Charge       = 0
  Multiplicity = 1
  Basis Set: AUG-CC-PVTZ
    Blend: AUG-CC-PVTZ
  Basis Set: (AUG-CC-PVTZ AUX)
    Blend: AUG-CC-PVTZ-JKFIT

    Orbital Energies [Eh]
    ---------------------

    Doubly Occupied:

       1A    -20.572485     2A    -11.285628     3A    -11.278914
       4A    -11.220863     5A    -11.215494     6A    -11.213640
       7A    -11.207438     8A     -1.396063     9A     -1.074391
      10A     -1.024797    11A     -0.967403    12A     -0.851689
      13A     -0.840883    14A     -0.756858    15A     -0.684257
      16A     -0.655189    17A     -0.644130    18A     -0.597350
      19A     -0.562313    20A     -0.557457    21A     -0.542071
      22A     -0.529513    23A     -0.509220    24A     -0.500453
      25A     -0.477835    26A     -0.473548    27A     -0.462750
      28A     -0.326618

  @DF-RHF Final Energy:  -309.14137529028864

   => Energetics <=

    Nuclear Repulsion Energy =            302.0932842947228210
    One-Electron Energy =               -1017.6108199250530788
    Two-Electron Energy =                 406.3761603400416220
    Total Energy =                       -309.1413752902886358
  Basis Set: (AUG-CC-PVTZ AUX)
    Blend: AUG-CC-PVTZ-RI
    Molecular point group: c1

    Geometry (in Angstrom), charge = 0, multiplicity = 1:

       Center              X                  Y                   Z               Mass
    ------------   -----------------  -----------------  -----------------  -----------------
         O           -0.848891972719    -0.232965116666    -0.279172670381    15.994914619570
         C            2.018646327281     0.284623883334    -0.537032770381    12.000000000000
         C           -2.122033672719    -0.223092116666     0.353656229619    12.000000000000
         C            1.394975027281    -0.875735116666     0.191277329619    12.000000000000
         C            2.766760327281     1.212530883334     0.421470229619    12.000000000000
         C            0.074506327281    -1.055130116666     0.315213229619    12.000000000000
         C           -3.021511672719     0.694128883334    -0.453425770381    12.000000000000
         H            2.715753327281    -0.088808116666    -1.294046770381     1.007825032230
         H            1.245014327281     0.843178883334    -1.065216770381     1.007825032230
         H           -2.523863672719    -1.250804116666     0.381020229619     1.007825032230
         H           -2.025134672719     0.135345883334     1.392089229619     1.007825032230
         H            2.041096327281    -1.604975116666     0.649454229619     1.007825032230
         H            3.249325327281     2.029704883334    -0.120104770381     1.007825032230
         H            2.076931327281     1.641521883334     1.150751229619     1.007825032230
         H            3.540923327281     0.667511883334     0.968228229619     1.007825032230
         H           -0.347029672719    -1.891064116666     0.875788229619     1.007825032230
         H           -4.024389672719     0.731708883334    -0.017724770381     1.007825032230
         H           -2.611675672719     1.708073883334    -0.470006770381     1.007825032230
         H           -3.096985672719     0.331492883334    -1.486332770381     1.007825032230

  Basis Set: AUG-CC-PVTZ
    Blend: AUG-CC-PVTZ
  Basis Set: (AUG-CC-PVTZ AUX)
    Blend: AUG-CC-PVTZ-JKFIT
	 Reference Energy          =    -309.1413752902886358 [Eh]
	 Singles Energy            =      -0.0000000000000000 [Eh]
	 Same-Spin Energy          =      -0.3136285583753222 [Eh]
	 Opposite-Spin Energy      =      -1.0987812274832258 [Eh]
	 Correlation Energy        =      -1.4124097858585480 [Eh]
	 Total Energy              =    -310.5537850761471645 [Eh]

	 ================> DF-SCS-MP2 Energies <==================
	-----------------------------------------------------------
	 SCS Same-Spin Scale       =       0.3333333333333333 [-]
	 SCS Opposite-Spin Scale   =       1.2000000000000000 [-]
	 SCS Same-Spin Energy      =      -0.1045428527917741 [Eh]
	 SCS Opposite-Spin Energy  =      -1.3185374729798709 [Eh]
	 SCS Correlation Energy    =      -1.4230803257716449 [Eh]
	 SCS Total Energy          =    -310.5644556160602860 [Eh]
	-----------------------------------------------------------

  Dipole Moment: [D]
     X:    -1.0590      Y:    -0.1843      Z:     0.7142     Total:     1.2906

*** Psi4 exiting successfully. Buy a developer a beer!
