                               Psi4 1.3.2 release

  ==> Input File <==

--------------------------------------------------------------------------
#psi4
#
memory 32 gb

molecule  {
0 1
  O       -0.8411900    -0.2286010    -0.2822800
  C        2.0292906     0.2777249    -0.5326597
  C       -2.1232200    -0.2252560     0.3552070
  C        1.3918360    -0.8685520     0.1861030
  C        2.7655740     1.2103670     0.4230210
  C        0.0753709    -1.0670692     0.3228175
  C       -3.0226980     0.6919650    -0.4518750
  H        2.7145670    -0.0909720    -1.2924960
  H        1.2438280     0.8410150    -1.0636660
  H       -2.5250500    -1.2529680     0.3825710
  H       -2.0263210     0.1331820     1.3936400
  H        2.0399100    -1.6071390     0.6510050
  H        3.2481390     2.0275410    -0.1185540
  H        2.0757450     1.6393580     1.1523020
  H        3.5397370     0.6653480     0.9697790
  H       -0.3482160    -1.8932280     0.8773390
  H       -4.0255760     0.7295450    -0.0161740
  H       -2.6128620     1.7059100    -0.4684560
  H       -3.0981720     0.3293290    -1.4847820
units angstrom
no_reorient  #important for SAPT in psi4, default
symmetry c1  #important for SAPT in psi4, default
}

set PROPERTIES_ORIGIN ["COM"]
properties('MP2/aug-cc-pvtz', properties = ['dipole'])
--------------------------------------------------------------------------

    Molecular point group: c1
  Charge       = 0
  Multiplicity = 1
  Basis Set: AUG-CC-PVTZ
    Blend: AUG-CC-PVTZ
  Basis Set: (AUG-CC-PVTZ AUX)
    Blend: AUG-CC-PVTZ-JKFIT

    Orbital Energies [Eh]
    ---------------------

    Doubly Occupied:

       1A    -20.570993     2A    -11.285422     3A    -11.278061
       4A    -11.220476     5A    -11.215615     6A    -11.214478
       7A    -11.207696     8A     -1.388963     9A     -1.074872
      10A     -1.024427    11A     -0.967772    12A     -0.851270
      13A     -0.841241    14A     -0.754159    15A     -0.683762
      16A     -0.653652    17A     -0.640516    18A     -0.598812
      19A     -0.560253    20A     -0.556925    21A     -0.542052
      22A     -0.526176    23A     -0.511975    24A     -0.500514
      25A     -0.480872    26A     -0.471192    27A     -0.462269
      28A     -0.327061

  @DF-RHF Final Energy:  -309.14031523629370

   => Energetics <=

    Nuclear Repulsion Energy =            301.9192473454410788
    One-Electron Energy =               -1017.2961763233868169
    Two-Electron Energy =                 406.2366137416519791
    Total Energy =                       -309.1403152362937021
  Basis Set: (AUG-CC-PVTZ AUX)
    Blend: AUG-CC-PVTZ-RI
    Molecular point group: c1

    Geometry (in Angstrom), charge = 0, multiplicity = 1:

       Center              X                  Y                   Z               Mass
    ------------   -----------------  -----------------  -----------------  -----------------
         O           -0.842854272955    -0.226861291961    -0.283344227386    15.994914619570
         C            2.027626327045     0.279464608039    -0.533723927386    12.000000000000
         C           -2.124884272955    -0.223516291961     0.354142772614    12.000000000000
         C            1.390171727045    -0.866812291961     0.185038772614    12.000000000000
         C            2.763909727045     1.212106708039     0.421956772614    12.000000000000
         C            0.073706627045    -1.065329491961     0.321753272614    12.000000000000
         C           -3.024362272955     0.693704708039    -0.452939227386    12.000000000000
         H            2.712902727045    -0.089232291961    -1.293560227386     1.007825032230
         H            1.242163727045     0.842754708039    -1.064730227386     1.007825032230
         H           -2.526714272955    -1.251228291961     0.381506772614     1.007825032230
         H           -2.027985272955     0.134921708039     1.392575772614     1.007825032230
         H            2.038245727045    -1.605399291961     0.649940772614     1.007825032230
         H            3.246474727045     2.029280708039    -0.119618227386     1.007825032230
         H            2.074080727045     1.641097708039     1.151237772614     1.007825032230
         H            3.538072727045     0.667087708039     0.968714772614     1.007825032230
         H           -0.349880272955    -1.891488291961     0.876274772614     1.007825032230
         H           -4.027240272955     0.731284708039    -0.017238227386     1.007825032230
         H           -2.614526272955     1.707649708039    -0.469520227386     1.007825032230
         H           -3.099836272955     0.331068708039    -1.485846227386     1.007825032230

  Basis Set: AUG-CC-PVTZ
    Blend: AUG-CC-PVTZ
  Basis Set: (AUG-CC-PVTZ AUX)
    Blend: AUG-CC-PVTZ-JKFIT
	 Reference Energy          =    -309.1403152362937021 [Eh]
	 Singles Energy            =      -0.0000000000000000 [Eh]
	 Same-Spin Energy          =      -0.3138264120463838 [Eh]
	 Opposite-Spin Energy      =      -1.0994045391415479 [Eh]
	 Correlation Energy        =      -1.4132309511879317 [Eh]
	 Total Energy              =    -310.5535461874816292 [Eh]

	 ================> DF-SCS-MP2 Energies <==================
	-----------------------------------------------------------
	 SCS Same-Spin Scale       =       0.3333333333333333 [-]
	 SCS Opposite-Spin Scale   =       1.2000000000000000 [-]
	 SCS Same-Spin Energy      =      -0.1046088040154613 [Eh]
	 SCS Opposite-Spin Energy  =      -1.3192854469698574 [Eh]
	 SCS Correlation Energy    =      -1.4238942509853187 [Eh]
	 SCS Total Energy          =    -310.5642094872790153 [Eh]
	-----------------------------------------------------------

  Dipole Moment: [D]
     X:    -1.0417      Y:    -0.2100      Z:     0.7375     Total:     1.2936

*** Psi4 exiting successfully. Buy a developer a beer!
