                               Psi4 1.3.2 release

  ==> Input File <==

--------------------------------------------------------------------------
#psi4
#
memory 32 gb

molecule  {
0 1
  O       -0.8411900    -0.2286010    -0.2822800
  C        2.0174600     0.2824600    -0.5354820
  C       -2.1232200    -0.2252560     0.3552070
  C        1.3918360    -0.8685520     0.1861030
  C        2.7655740     1.2103670     0.4230210
  C        0.0066564    -0.9968861     0.2730965
  C       -3.0226980     0.6919650    -0.4518750
  H        2.7145670    -0.0909720    -1.2924960
  H        1.2438280     0.8410150    -1.0636660
  H       -2.5250500    -1.2529680     0.3825710
  H       -2.0263210     0.1331820     1.3936400
  H        2.0399100    -1.6071390     0.6510050
  H        3.2481390     2.0275410    -0.1185540
  H        2.0757450     1.6393580     1.1523020
  H        3.5397370     0.6653480     0.9697790
  H       -0.3482160    -1.8932280     0.8773390
  H       -4.0255760     0.7295450    -0.0161740
  H       -2.6128620     1.7059100    -0.4684560
  H       -3.0981720     0.3293290    -1.4847820
units angstrom
no_reorient  #important for SAPT in psi4, default
symmetry c1  #important for SAPT in psi4, default
}

set PROPERTIES_ORIGIN ["COM"]
properties('MP2/aug-cc-pvtz', properties = ['dipole'])
--------------------------------------------------------------------------

    Molecular point group: c1
  Charge       = 0
  Multiplicity = 1
  Basis Set: AUG-CC-PVTZ
    Blend: AUG-CC-PVTZ
  Basis Set: (AUG-CC-PVTZ AUX)
    Blend: AUG-CC-PVTZ-JKFIT

    Orbital Energies [Eh]
    ---------------------

    Doubly Occupied:

       1A    -20.588540     2A    -11.297271     3A    -11.286875
       4A    -11.227808     5A    -11.208853     6A    -11.207972
       7A    -11.202490     8A     -1.445859     9A     -1.069364
      10A     -1.034030    11A     -0.953174    12A     -0.863541
      13A     -0.838570    14A     -0.763033    15A     -0.694542
      16A     -0.667027    17A     -0.650681    18A     -0.598535
      19A     -0.567775    20A     -0.559411    21A     -0.546862
      22A     -0.529770    23A     -0.513100    24A     -0.504229
      25A     -0.484835    26A     -0.469730    27A     -0.456782
      28A     -0.302638

  @DF-RHF Final Energy:  -309.12752679035464

   => Energetics <=

    Nuclear Repulsion Energy =            303.3444382446191980
    One-Electron Energy =               -1019.8773376041896199
    Two-Electron Energy =                 407.4053725692157286
    Total Energy =                       -309.1275267903546364
  Basis Set: (AUG-CC-PVTZ AUX)
    Blend: AUG-CC-PVTZ-RI
    Molecular point group: c1

    Geometry (in Angstrom), charge = 0, multiplicity = 1:

       Center              X                  Y                   Z               Mass
    ------------   -----------------  -----------------  -----------------  -----------------
         O           -0.833197437673    -0.235843498413    -0.277044626377    15.994914619570
         C            2.025452562327     0.275217501587    -0.530246626377    12.000000000000
         C           -2.115227437673    -0.232498498413     0.360442373623    12.000000000000
         C            1.399828562327    -0.875794498413     0.191338373623    12.000000000000
         C            2.773566562327     1.203124501587     0.428256373623    12.000000000000
         C            0.014648962327    -1.004128598413     0.278331873623    12.000000000000
         C           -3.014705437673     0.684722501587    -0.446639626377    12.000000000000
         H            2.722559562327    -0.098214498413    -1.287260626377     1.007825032230
         H            1.251820562327     0.833772501587    -1.058430626377     1.007825032230
         H           -2.517057437673    -1.260210498413     0.387806373623     1.007825032230
         H           -2.018328437673     0.125939501587     1.398875373623     1.007825032230
         H            2.047902562327    -1.614381498413     0.656240373623     1.007825032230
         H            3.256131562327     2.020298501587    -0.113318626377     1.007825032230
         H            2.083737562327     1.632115501587     1.157537373623     1.007825032230
         H            3.547729562327     0.658105501587     0.975014373623     1.007825032230
         H           -0.340223437673    -1.900470498413     0.882574373623     1.007825032230
         H           -4.017583437673     0.722302501587    -0.010938626377     1.007825032230
         H           -2.604869437673     1.698667501587    -0.463220626377     1.007825032230
         H           -3.090179437673     0.322086501587    -1.479546626377     1.007825032230

  Basis Set: AUG-CC-PVTZ
    Blend: AUG-CC-PVTZ
  Basis Set: (AUG-CC-PVTZ AUX)
    Blend: AUG-CC-PVTZ-JKFIT
	 Reference Energy          =    -309.1275267903546364 [Eh]
	 Singles Energy            =      -0.0000000000000000 [Eh]
	 Same-Spin Energy          =      -0.3148921963354095 [Eh]
	 Opposite-Spin Energy      =      -1.0998364200428237 [Eh]
	 Correlation Energy        =      -1.4147286163782331 [Eh]
	 Total Energy              =    -310.5422554067328633 [Eh]

	 ================> DF-SCS-MP2 Energies <==================
	-----------------------------------------------------------
	 SCS Same-Spin Scale       =       0.3333333333333333 [-]
	 SCS Opposite-Spin Scale   =       1.2000000000000000 [-]
	 SCS Same-Spin Energy      =      -0.1049640654451365 [Eh]
	 SCS Opposite-Spin Energy  =      -1.3198037040513884 [Eh]
	 SCS Correlation Energy    =      -1.4247677694965248 [Eh]
	 SCS Total Energy          =    -310.5522945598511342 [Eh]
	-----------------------------------------------------------

  Dipole Moment: [D]
     X:    -1.8089      Y:     0.0149      Z:     0.5878     Total:     1.9020

*** Psi4 exiting successfully. Buy a developer a beer!
