                               Psi4 1.4a3.dev225

  ==> Input File <==

--------------------------------------------------------------------------
#psi4
#
memory 32 gb

molecule  {
0 1
  O        0.9059480     0.1295110    -0.3069180
  C       -1.9753050    -0.3336000    -0.5537270
  C        2.1190110     0.1892690     0.4520280
  C       -1.3184330     0.9429980    -0.1246110
  C       -2.9908880    -0.8293550     0.4787900
  C        0.0520885     1.1193908     0.0224442
  C        3.0576820    -0.8509900    -0.1177330
  H       -2.4824890    -0.1840060    -1.5158280
  H       -1.2045440    -1.0918590    -0.7184600
  H        2.5525890     1.1965710     0.3749050
  H        1.9047370    -0.0062780     1.5110790
  H       -1.9523440     1.7996160     0.0958850
  H       -3.4787570    -1.7495600     0.1429400
  H       -2.4987140    -1.0317260     1.4340660
  H       -3.7695180    -0.0804100     0.6542360
  H        0.4396010     2.0570360     0.3475940
  H        4.0048870    -0.8497230     0.4289840
  H        2.6101410    -1.8440700    -0.0412770
  H        3.2577670    -0.6398860    -1.1701900
units angstrom
no_reorient  #important for SAPT in psi4, default
symmetry c1  #important for SAPT in psi4, default
}

set PROPERTIES_ORIGIN ["COM"]
properties('MP2/aug-cc-pvtz', properties = ['dipole'])
--------------------------------------------------------------------------

    Molecular point group: c1
  Charge       = 0
  Multiplicity = 1
  Basis Set: AUG-CC-PVTZ
    Blend: AUG-CC-PVTZ
  Basis Set: (AUG-CC-PVTZ AUX)
    Blend: AUG-CC-PVTZ-JKFIT

    Orbital Energies [Eh]
    ---------------------

    Doubly Occupied:

       1A    -20.577220     2A    -11.286695     3A    -11.281905
       4A    -11.221084     5A    -11.219094     6A    -11.215181
       7A    -11.207848     8A     -1.405823     9A     -1.067754
      10A     -1.028451    11A     -0.959192    12A     -0.853606
      13A     -0.843914    14A     -0.757481    15A     -0.690992
      16A     -0.658866    17A     -0.638626    18A     -0.599365
      19A     -0.565719    20A     -0.558633    21A     -0.543814
      22A     -0.525643    23A     -0.507753    24A     -0.504692
      25A     -0.479131    26A     -0.474690    27A     -0.465206
      28A     -0.313859

  @DF-RHF Final Energy:  -309.13551883270594

   => Energetics <=

    Nuclear Repulsion Energy =            301.1089079382507521
    One-Electron Energy =               -1015.5843848071475577
    Two-Electron Energy =                 405.3399580361908079
    Total Energy =                       -309.1355188327059409
  Basis Set: (AUG-CC-PVTZ AUX)
    Blend: AUG-CC-PVTZ-RI
    Molecular point group: c1

    Geometry (in Angstrom), charge = 0, multiplicity = 1:

       Center              X                  Y                   Z               Mass
    ------------   -----------------  -----------------  -----------------  -----------------
         O            0.893969062588     0.104724955719    -0.292262841261    15.994914619570
         C           -1.987283937412    -0.358386044281    -0.539071841261    12.000000000000
         C            2.107032062588     0.164482955719     0.466683158739    12.000000000000
         C           -1.330411937412     0.918211955719    -0.109955841261    12.000000000000
         C           -3.002866937412    -0.854141044281     0.493445158739    12.000000000000
         C            0.040109562588     1.094604755719     0.037099358739    12.000000000000
         C            3.045703062588    -0.875776044281    -0.103077841261    12.000000000000
         H           -2.494467937412    -0.208792044281    -1.501172841261     1.007825032230
         H           -1.216522937412    -1.116645044281    -0.703804841261     1.007825032230
         H            2.540610062588     1.171784955719     0.389560158739     1.007825032230
         H            1.892758062588    -0.031064044281     1.525734158739     1.007825032230
         H           -1.964322937412     1.774829955719     0.110540158739     1.007825032230
         H           -3.490735937412    -1.774346044281     0.157595158739     1.007825032230
         H           -2.510692937412    -1.056512044281     1.448721158739     1.007825032230
         H           -3.781496937412    -0.105196044281     0.668891158739     1.007825032230
         H            0.427622062588     2.032249955719     0.362249158739     1.007825032230
         H            3.992908062588    -0.874509044281     0.443639158739     1.007825032230
         H            2.598162062588    -1.868856044281    -0.026621841261     1.007825032230
         H            3.245788062588    -0.664672044281    -1.155534841261     1.007825032230

  Basis Set: AUG-CC-PVTZ
    Blend: AUG-CC-PVTZ
  Basis Set: (AUG-CC-PVTZ AUX)
    Blend: AUG-CC-PVTZ-JKFIT
	 Reference Energy          =    -309.1355188327059409 [Eh]
	 Singles Energy            =      -0.0000000000000000 [Eh]
	 Same-Spin Energy          =      -0.3144086445191147 [Eh]
	 Opposite-Spin Energy      =      -1.1004366911319130 [Eh]
	 Correlation Energy        =      -1.4148453356510278 [Eh]
	 Total Energy              =    -310.5503641683569640 [Eh]

	 ================> DF-SCS-MP2 Energies <==================
	-----------------------------------------------------------
	 SCS Same-Spin Scale       =       0.3333333333333333 [-]
	 SCS Opposite-Spin Scale   =       1.2000000000000000 [-]
	 SCS Same-Spin Energy      =      -0.1048028815063716 [Eh]
	 SCS Opposite-Spin Energy  =      -1.3205240293582956 [Eh]
	 SCS Correlation Energy    =      -1.4253269108646671 [Eh]
	 SCS Total Energy          =    -310.5608457435706100 [Eh]
	-----------------------------------------------------------

  Dipole Moment: [D]
     X:     1.2371      Y:     0.2418      Z:     0.7485     Total:     1.4660

*** Psi4 exiting successfully. Buy a developer a beer!
