                               Psi4 1.3.2 release

  ==> Input File <==

--------------------------------------------------------------------------
#psi4
#
memory 32 gb

molecule  {
0 1
  O       -0.8411900    -0.2286010    -0.2822800
  C        2.0174600     0.2824600    -0.5354820
  C       -2.1232200    -0.2252560     0.3552070
  C        1.3918360    -0.8685520     0.1861030
  C        2.7542727     1.2123333     0.4298452
  C        0.0733200    -1.0572940     0.3167640
  C       -3.0226980     0.6919650    -0.4518750
  H        2.7074744    -0.0959601    -1.2965064
  H        1.2438280     0.8410150    -1.0636660
  H       -2.5250500    -1.2529680     0.3825710
  H       -2.0263210     0.1331820     1.3936400
  H        2.0399100    -1.6071390     0.6510050
  H        3.2481390     2.0275410    -0.1185540
  H        2.0757450     1.6393580     1.1523020
  H        3.5397370     0.6653480     0.9697790
  H       -0.3482160    -1.8932280     0.8773390
  H       -4.0255760     0.7295450    -0.0161740
  H       -2.6128620     1.7059100    -0.4684560
  H       -3.0981720     0.3293290    -1.4847820
units angstrom
no_reorient  #important for SAPT in psi4, default
symmetry c1  #important for SAPT in psi4, default
}

set PROPERTIES_ORIGIN ["COM"]
properties('MP2/aug-cc-pvtz', properties = ['dipole'])
--------------------------------------------------------------------------

    Molecular point group: c1
  Charge       = 0
  Multiplicity = 1
  Basis Set: AUG-CC-PVTZ
    Blend: AUG-CC-PVTZ
  Basis Set: (AUG-CC-PVTZ AUX)
    Blend: AUG-CC-PVTZ-JKFIT

    Orbital Energies [Eh]
    ---------------------

    Doubly Occupied:

       1A    -20.572198     2A    -11.286386     3A    -11.277997
       4A    -11.221084     5A    -11.214752     6A    -11.213196
       7A    -11.207573     8A     -1.393148     9A     -1.074735
      10A     -1.025007    11A     -0.966581    12A     -0.851586
      13A     -0.841542    14A     -0.754545    15A     -0.683677
      16A     -0.654367    17A     -0.642203    18A     -0.598305
      19A     -0.560396    20A     -0.556279    21A     -0.541806
      22A     -0.527107    23A     -0.511971    24A     -0.501001
      25A     -0.479481    26A     -0.473050    27A     -0.463249
      28A     -0.325566

  @DF-RHF Final Energy:  -309.14066832369741

   => Energetics <=

    Nuclear Repulsion Energy =            302.1862002327662822
    One-Electron Energy =               -1017.8161640984110363
    Two-Electron Energy =                 406.4892955419473424
    Total Energy =                       -309.1406683236974118
  Basis Set: (AUG-CC-PVTZ AUX)
    Blend: AUG-CC-PVTZ-RI
    Molecular point group: c1

    Geometry (in Angstrom), charge = 0, multiplicity = 1:

       Center              X                  Y                   Z               Mass
    ------------   -----------------  -----------------  -----------------  -----------------
         O           -0.839763600937    -0.228786502764    -0.283057871897    15.994914619570
         C            2.018886399063     0.282274497236    -0.536259871897    12.000000000000
         C           -2.121793600937    -0.225441502764     0.354429128103    12.000000000000
         C            1.393262399063    -0.868737502764     0.185325128103    12.000000000000
         C            2.755699099063     1.212147797236     0.429067328103    12.000000000000
         C            0.074746399063    -1.057479502764     0.315986128103    12.000000000000
         C           -3.021271600937     0.691779497236    -0.452652871897    12.000000000000
         H            2.708900799063    -0.096145602764    -1.297284271897     1.007825032230
         H            1.245254399063     0.840829497236    -1.064443871897     1.007825032230
         H           -2.523623600937    -1.253153502764     0.381793128103     1.007825032230
         H           -2.024894600937     0.132996497236     1.392862128103     1.007825032230
         H            2.041336399063    -1.607324502764     0.650227128103     1.007825032230
         H            3.249565399063     2.027355497236    -0.119331871897     1.007825032230
         H            2.077171399063     1.639172497236     1.151524128103     1.007825032230
         H            3.541163399063     0.665162497236     0.969001128103     1.007825032230
         H           -0.346789600937    -1.893413502764     0.876561128103     1.007825032230
         H           -4.024149600937     0.729359497236    -0.016951871897     1.007825032230
         H           -2.611435600937     1.705724497236    -0.469233871897     1.007825032230
         H           -3.096745600937     0.329143497236    -1.485559871897     1.007825032230

  Basis Set: AUG-CC-PVTZ
    Blend: AUG-CC-PVTZ
  Basis Set: (AUG-CC-PVTZ AUX)
    Blend: AUG-CC-PVTZ-JKFIT
	 Reference Energy          =    -309.1406683236974118 [Eh]
	 Singles Energy            =      -0.0000000000000000 [Eh]
	 Same-Spin Energy          =      -0.3138278616328130 [Eh]
	 Opposite-Spin Energy      =      -1.0992107891107883 [Eh]
	 Correlation Energy        =      -1.4130386507436012 [Eh]
	 Total Energy              =    -310.5537069744410132 [Eh]

	 ================> DF-SCS-MP2 Energies <==================
	-----------------------------------------------------------
	 SCS Same-Spin Scale       =       0.3333333333333333 [-]
	 SCS Opposite-Spin Scale   =       1.2000000000000000 [-]
	 SCS Same-Spin Energy      =      -0.1046092872109377 [Eh]
	 SCS Opposite-Spin Energy  =      -1.3190529469329459 [Eh]
	 SCS Correlation Energy    =      -1.4236622341438836 [Eh]
	 SCS Total Energy          =    -310.5643305578412878 [Eh]
	-----------------------------------------------------------

  Dipole Moment: [D]
     X:    -1.1026      Y:    -0.1878      Z:     0.7261     Total:     1.3335

*** Psi4 exiting successfully. Buy a developer a beer!
