                               Psi4 1.3.2 release

  ==> Input File <==

--------------------------------------------------------------------------
#psi4
#
memory 32 gb

molecule  {
0 1
  O       -0.8411900    -0.2286010    -0.2822800
  C        2.0174600     0.2824600    -0.5354820
  C       -2.1232200    -0.2252560     0.3552070
  C        1.3918360    -0.8685520     0.1861030
  C        2.8102009     1.2017968     0.3949994
  C        0.0733200    -1.0572940     0.3167640
  C       -3.0226980     0.6919650    -0.4518750
  H        2.7424010    -0.0707390    -1.2758811
  H        1.2438280     0.8410150    -1.0636660
  H       -2.5250500    -1.2529680     0.3825710
  H       -2.0263210     0.1331820     1.3936400
  H        2.0399100    -1.6071390     0.6510050
  H        3.2481390     2.0275410    -0.1185540
  H        2.0757450     1.6393580     1.1523020
  H        3.5397370     0.6653480     0.9697790
  H       -0.3482160    -1.8932280     0.8773390
  H       -4.0255760     0.7295450    -0.0161740
  H       -2.6128620     1.7059100    -0.4684560
  H       -3.0981720     0.3293290    -1.4847820
units angstrom
no_reorient  #important for SAPT in psi4, default
symmetry c1  #important for SAPT in psi4, default
}

set PROPERTIES_ORIGIN ["COM"]
properties('MP2/aug-cc-pvtz', properties = ['dipole'])
--------------------------------------------------------------------------

    Molecular point group: c1
  Charge       = 0
  Multiplicity = 1
  Basis Set: AUG-CC-PVTZ
    Blend: AUG-CC-PVTZ
  Basis Set: (AUG-CC-PVTZ AUX)
    Blend: AUG-CC-PVTZ-JKFIT

    Orbital Energies [Eh]
    ---------------------

    Doubly Occupied:

       1A    -20.572643     2A    -11.286592     3A    -11.278953
       4A    -11.221187     5A    -11.215087     6A    -11.214107
       7A    -11.207394     8A     -1.393589     9A     -1.074695
      10A     -1.025297    11A     -0.967770    12A     -0.851307
      13A     -0.841428    14A     -0.754828    15A     -0.684035
      16A     -0.654861    17A     -0.643622    18A     -0.595344
      19A     -0.566040    20A     -0.557229    21A     -0.543807
      22A     -0.528355    23A     -0.505996    24A     -0.504053
      25A     -0.475265    26A     -0.471985    27A     -0.463831
      28A     -0.325815

  @DF-RHF Final Energy:  -309.13765677716628

   => Energetics <=

    Nuclear Repulsion Energy =            301.9141882708511844
    One-Electron Energy =               -1017.2534618680806489
    Two-Electron Energy =                 406.2016168200632364
    Total Energy =                       -309.1376567771662849
  Basis Set: (AUG-CC-PVTZ AUX)
    Blend: AUG-CC-PVTZ-RI
    Molecular point group: c1

    Geometry (in Angstrom), charge = 0, multiplicity = 1:

       Center              X                  Y                   Z               Mass
    ------------   -----------------  -----------------  -----------------  -----------------
         O           -0.846820716177    -0.227777203732    -0.279087768881    15.994914619570
         C            2.011829283823     0.283283796268    -0.532289768881    12.000000000000
         C           -2.128850716177    -0.224432203732     0.358399231119    12.000000000000
         C            1.386205283823    -0.867728203732     0.189295231119    12.000000000000
         C            2.804570183823     1.202620596268     0.398191631119    12.000000000000
         C            0.067689283823    -1.056470203732     0.319956231119    12.000000000000
         C           -3.028328716177     0.692788796268    -0.448682768881    12.000000000000
         H            2.736770283823    -0.069915203732    -1.272688868881     1.007825032230
         H            1.238197283823     0.841838796268    -1.060473768881     1.007825032230
         H           -2.530680716177    -1.252144203732     0.385763231119     1.007825032230
         H           -2.031951716177     0.134005796268     1.396832231119     1.007825032230
         H            2.034279283823    -1.606315203732     0.654197231119     1.007825032230
         H            3.242508283823     2.028364796268    -0.115361768881     1.007825032230
         H            2.070114283823     1.640181796268     1.155494231119     1.007825032230
         H            3.534106283823     0.666171796268     0.972971231119     1.007825032230
         H           -0.353846716177    -1.892404203732     0.880531231119     1.007825032230
         H           -4.031206716177     0.730368796268    -0.012981768881     1.007825032230
         H           -2.618492716177     1.706733796268    -0.465263768881     1.007825032230
         H           -3.103802716177     0.330152796268    -1.481589768881     1.007825032230

  Basis Set: AUG-CC-PVTZ
    Blend: AUG-CC-PVTZ
  Basis Set: (AUG-CC-PVTZ AUX)
    Blend: AUG-CC-PVTZ-JKFIT
	 Reference Energy          =    -309.1376567771662849 [Eh]
	 Singles Energy            =      -0.0000000000000000 [Eh]
	 Same-Spin Energy          =      -0.3138649913386699 [Eh]
	 Opposite-Spin Energy      =      -1.0993212453167782 [Eh]
	 Correlation Energy        =      -1.4131862366554482 [Eh]
	 Total Energy              =    -310.5508430138217477 [Eh]

	 ================> DF-SCS-MP2 Energies <==================
	-----------------------------------------------------------
	 SCS Same-Spin Scale       =       0.3333333333333333 [-]
	 SCS Opposite-Spin Scale   =       1.2000000000000000 [-]
	 SCS Same-Spin Energy      =      -0.1046216637795566 [Eh]
	 SCS Opposite-Spin Energy  =      -1.3191854943801338 [Eh]
	 SCS Correlation Energy    =      -1.4238071581596903 [Eh]
	 SCS Total Energy          =    -310.5614639353260031 [Eh]
	-----------------------------------------------------------

  Dipole Moment: [D]
     X:    -1.0905      Y:    -0.2015      Z:     0.7172     Total:     1.3207

*** Psi4 exiting successfully. Buy a developer a beer!
