                               Psi4 1.4a3.dev225

  ==> Input File <==

--------------------------------------------------------------------------
#psi4
#
memory 32 gb

molecule  {
0 1
  O        0.9059480     0.1295110    -0.3069180
  C       -1.9753050    -0.3336000    -0.5537270
  C        2.1190110     0.1892690     0.4520280
  C       -1.3184330     0.9429980    -0.1246110
  C       -2.9908880    -0.8293550     0.4787900
  C       -0.0169490     1.1105053     0.0150365
  C        3.0576820    -0.8509900    -0.1177330
  H       -2.4824890    -0.1840060    -1.5158280
  H       -1.2045440    -1.0918590    -0.7184600
  H        2.5525890     1.1965710     0.3749050
  H        1.9047370    -0.0062780     1.5110790
  H       -1.9523440     1.7996160     0.0958850
  H       -3.4787570    -1.7495600     0.1429400
  H       -2.4987140    -1.0317260     1.4340660
  H       -3.7695180    -0.0804100     0.6542360
  H        0.4396010     2.0570360     0.3475940
  H        4.0048870    -0.8497230     0.4289840
  H        2.6101410    -1.8440700    -0.0412770
  H        3.2577670    -0.6398860    -1.1701900
units angstrom
no_reorient  #important for SAPT in psi4, default
symmetry c1  #important for SAPT in psi4, default
}

set PROPERTIES_ORIGIN ["COM"]
properties('MP2/aug-cc-pvtz', properties = ['dipole'])
--------------------------------------------------------------------------

    Molecular point group: c1
  Charge       = 0
  Multiplicity = 1
  Basis Set: AUG-CC-PVTZ
    Blend: AUG-CC-PVTZ
  Basis Set: (AUG-CC-PVTZ AUX)
    Blend: AUG-CC-PVTZ-JKFIT

    Orbital Energies [Eh]
    ---------------------

    Doubly Occupied:

       1A    -20.569666     2A    -11.283427     3A    -11.277100
       4A    -11.218905     5A    -11.216792     6A    -11.213303
       7A    -11.209375     8A     -1.386520     9A     -1.077031
      10A     -1.024957    11A     -0.970575    12A     -0.850589
      13A     -0.840576    14A     -0.753437    15A     -0.683252
      16A     -0.650582    17A     -0.640579    18A     -0.599372
      19A     -0.562995    20A     -0.558709    21A     -0.539185
      22A     -0.526892    23A     -0.508548    24A     -0.501009
      25A     -0.480247    26A     -0.473524    27A     -0.459487
      28A     -0.332736

  @DF-RHF Final Energy:  -309.14105335216107

   => Energetics <=

    Nuclear Repulsion Energy =            301.2565287844636259
    One-Electron Energy =               -1015.9764229847367005
    Two-Electron Energy =                 405.5788408481120086
    Total Energy =                       -309.1410533521610660
  Basis Set: (AUG-CC-PVTZ AUX)
    Blend: AUG-CC-PVTZ-RI
    Molecular point group: c1

    Geometry (in Angstrom), charge = 0, multiplicity = 1:

       Center              X                  Y                   Z               Mass
    ------------   -----------------  -----------------  -----------------  -----------------
         O            0.902246211238     0.105790269560    -0.291374706059    15.994914619570
         C           -1.979006788762    -0.357320730440    -0.538183706059    12.000000000000
         C            2.115309211238     0.165548269560     0.467571293941    12.000000000000
         C           -1.322134788762     0.919277269560    -0.109067706059    12.000000000000
         C           -2.994589788762    -0.853075730440     0.494333293941    12.000000000000
         C           -0.020650788762     1.086784569560     0.030579793941    12.000000000000
         C            3.053980211238    -0.874710730440    -0.102189706059    12.000000000000
         H           -2.486190788762    -0.207726730440    -1.500284706059     1.007825032230
         H           -1.208245788762    -1.115579730440    -0.702916706059     1.007825032230
         H            2.548887211238     1.172850269560     0.390448293941     1.007825032230
         H            1.901035211238    -0.029998730440     1.526622293941     1.007825032230
         H           -1.956045788762     1.775895269560     0.111428293941     1.007825032230
         H           -3.482458788762    -1.773280730440     0.158483293941     1.007825032230
         H           -2.502415788762    -1.055446730440     1.449609293941     1.007825032230
         H           -3.773219788762    -0.104130730440     0.669779293941     1.007825032230
         H            0.435899211238     2.033315269560     0.363137293941     1.007825032230
         H            4.001185211238    -0.873443730440     0.444527293941     1.007825032230
         H            2.606439211238    -1.867790730440    -0.025733706059     1.007825032230
         H            3.254065211238    -0.663606730440    -1.154646706059     1.007825032230

  Basis Set: AUG-CC-PVTZ
    Blend: AUG-CC-PVTZ
  Basis Set: (AUG-CC-PVTZ AUX)
    Blend: AUG-CC-PVTZ-JKFIT
	 Reference Energy          =    -309.1410533521610660 [Eh]
	 Singles Energy            =      -0.0000000000000000 [Eh]
	 Same-Spin Energy          =      -0.3135556816566112 [Eh]
	 Opposite-Spin Energy      =      -1.0987124366684282 [Eh]
	 Correlation Energy        =      -1.4122681183250394 [Eh]
	 Total Energy              =    -310.5533214704860825 [Eh]

	 ================> DF-SCS-MP2 Energies <==================
	-----------------------------------------------------------
	 SCS Same-Spin Scale       =       0.3333333333333333 [-]
	 SCS Opposite-Spin Scale   =       1.2000000000000000 [-]
	 SCS Same-Spin Energy      =      -0.1045185605522037 [Eh]
	 SCS Opposite-Spin Energy  =      -1.3184549240021137 [Eh]
	 SCS Correlation Energy    =      -1.4229734845543174 [Eh]
	 SCS Total Energy          =    -310.5640268367153567 [Eh]
	-----------------------------------------------------------

  Dipole Moment: [D]
     X:     0.9268      Y:     0.3079      Z:     0.7658     Total:     1.2410

*** Psi4 exiting successfully. Buy a developer a beer!
