                               Psi4 1.3.2 release

  ==> Input File <==

--------------------------------------------------------------------------
#psi4
#
memory 32 gb

molecule  {
0 1
  O       -0.8411900    -0.2286010    -0.2822800
  C        2.0174600     0.2824600    -0.5354820
  C       -2.1232200    -0.2252560     0.3552070
  C        1.3987315    -0.8768386     0.1787454
  C        2.7655740     1.2103670     0.4230210
  C        0.0733200    -1.0572940     0.3167640
  C       -3.0226980     0.6919650    -0.4518750
  H        2.7124761    -0.0999363    -1.2899391
  H        1.2438280     0.8410150    -1.0636660
  H       -2.5250500    -1.2529680     0.3825710
  H       -2.0263210     0.1331820     1.3936400
  H        2.0399100    -1.6071390     0.6510050
  H        3.2481390     2.0275410    -0.1185540
  H        2.0757450     1.6393580     1.1523020
  H        3.5397370     0.6653480     0.9697790
  H       -0.3482160    -1.8932280     0.8773390
  H       -4.0255760     0.7295450    -0.0161740
  H       -2.6128620     1.7059100    -0.4684560
  H       -3.0981720     0.3293290    -1.4847820
units angstrom
no_reorient  #important for SAPT in psi4, default
symmetry c1  #important for SAPT in psi4, default
}

set PROPERTIES_ORIGIN ["COM"]
properties('MP2/aug-cc-pvtz', properties = ['dipole'])
--------------------------------------------------------------------------

    Molecular point group: c1
  Charge       = 0
  Multiplicity = 1
  Basis Set: AUG-CC-PVTZ
    Blend: AUG-CC-PVTZ
  Basis Set: (AUG-CC-PVTZ AUX)
    Blend: AUG-CC-PVTZ-JKFIT

    Orbital Energies [Eh]
    ---------------------

    Doubly Occupied:

       1A    -20.572694     2A    -11.286585     3A    -11.279090
       4A    -11.221206     5A    -11.214711     6A    -11.213553
       7A    -11.207534     8A     -1.393407     9A     -1.074074
      10A     -1.025107    11A     -0.965915    12A     -0.851774
      13A     -0.841467    14A     -0.755148    15A     -0.683430
      16A     -0.654456    17A     -0.642699    18A     -0.596971
      19A     -0.561574    20A     -0.556871    21A     -0.542348
      22A     -0.527903    23A     -0.509994    24A     -0.501817
      25A     -0.477847    26A     -0.474065    27A     -0.464626
      28A     -0.324156

  @DF-RHF Final Energy:  -309.14053951065983

   => Energetics <=

    Nuclear Repulsion Energy =            302.0087296765306064
    One-Electron Energy =               -1017.4564920675168196
    Two-Electron Energy =                 406.3072228803263783
    Total Energy =                       -309.1405395106598348
  Basis Set: (AUG-CC-PVTZ AUX)
    Blend: AUG-CC-PVTZ-RI
    Molecular point group: c1

    Geometry (in Angstrom), charge = 0, multiplicity = 1:

       Center              X                  Y                   Z               Mass
    ------------   -----------------  -----------------  -----------------  -----------------
         O           -0.841995642933    -0.227517208949    -0.281423694186    15.994914619570
         C            2.016654357067     0.283543791051    -0.534625694186    12.000000000000
         C           -2.124025642933    -0.224172208949     0.356063305814    12.000000000000
         C            1.397925857067    -0.875754808949     0.179601705814    12.000000000000
         C            2.764768357067     1.211450791051     0.423877305814    12.000000000000
         C            0.072514357067    -1.056210208949     0.317620305814    12.000000000000
         C           -3.023503642933     0.693048791051    -0.451018694186    12.000000000000
         H            2.711670457067    -0.098852508949    -1.289082794186     1.007825032230
         H            1.243022357067     0.842098791051    -1.062809694186     1.007825032230
         H           -2.525855642933    -1.251884208949     0.383427305814     1.007825032230
         H           -2.027126642933     0.134265791051     1.394496305814     1.007825032230
         H            2.039104357067    -1.606055208949     0.651861305814     1.007825032230
         H            3.247333357067     2.028624791051    -0.117697694186     1.007825032230
         H            2.074939357067     1.640441791051     1.153158305814     1.007825032230
         H            3.538931357067     0.666431791051     0.970635305814     1.007825032230
         H           -0.349021642933    -1.892144208949     0.878195305814     1.007825032230
         H           -4.026381642933     0.730628791051    -0.015317694186     1.007825032230
         H           -2.613667642933     1.706993791051    -0.467599694186     1.007825032230
         H           -3.098977642933     0.330412791051    -1.483925694186     1.007825032230

  Basis Set: AUG-CC-PVTZ
    Blend: AUG-CC-PVTZ
  Basis Set: (AUG-CC-PVTZ AUX)
    Blend: AUG-CC-PVTZ-JKFIT
	 Reference Energy          =    -309.1405395106598348 [Eh]
	 Singles Energy            =      -0.0000000000000000 [Eh]
	 Same-Spin Energy          =      -0.3138825926458481 [Eh]
	 Opposite-Spin Energy      =      -1.0993593426180017 [Eh]
	 Correlation Energy        =      -1.4132419352638497 [Eh]
	 Total Energy              =    -310.5537814459236756 [Eh]

	 ================> DF-SCS-MP2 Energies <==================
	-----------------------------------------------------------
	 SCS Same-Spin Scale       =       0.3333333333333333 [-]
	 SCS Opposite-Spin Scale   =       1.2000000000000000 [-]
	 SCS Same-Spin Energy      =      -0.1046275308819493 [Eh]
	 SCS Opposite-Spin Energy  =      -1.3192312111416020 [Eh]
	 SCS Correlation Energy    =      -1.4238587420235513 [Eh]
	 SCS Total Energy          =    -310.5643982526833611 [Eh]
	-----------------------------------------------------------

  Dipole Moment: [D]
     X:    -1.1083      Y:    -0.1793      Z:     0.7384     Total:     1.3438

*** Psi4 exiting successfully. Buy a developer a beer!
