                               Psi4 1.3.2 release

  ==> Input File <==

--------------------------------------------------------------------------
#psi4
#
memory 32 gb

molecule  {
0 1
  O       -0.8480550    -0.3026996    -0.2912901
  C        2.0174600     0.2824600    -0.5354820
  C       -2.1232200    -0.2252560     0.3552070
  C        1.3918360    -0.8685520     0.1861030
  C        2.7655740     1.2103670     0.4230210
  C        0.0733200    -1.0572940     0.3167640
  C       -3.0226980     0.6919650    -0.4518750
  H        2.7145670    -0.0909720    -1.2924960
  H        1.2438280     0.8410150    -1.0636660
  H       -2.4770765    -1.2708149     0.3557457
  H       -2.0263210     0.1331820     1.3936400
  H        2.0399100    -1.6071390     0.6510050
  H        3.2481390     2.0275410    -0.1185540
  H        2.0757450     1.6393580     1.1523020
  H        3.5397370     0.6653480     0.9697790
  H       -0.3482160    -1.8932280     0.8773390
  H       -4.0255760     0.7295450    -0.0161740
  H       -2.6128620     1.7059100    -0.4684560
  H       -3.0981720     0.3293290    -1.4847820
units angstrom
no_reorient  #important for SAPT in psi4, default
symmetry c1  #important for SAPT in psi4, default
}

set PROPERTIES_ORIGIN ["COM"]
properties('MP2/aug-cc-pvtz', properties = ['dipole'])
--------------------------------------------------------------------------

    Molecular point group: c1
  Charge       = 0
  Multiplicity = 1
  Basis Set: AUG-CC-PVTZ
    Blend: AUG-CC-PVTZ
  Basis Set: (AUG-CC-PVTZ AUX)
    Blend: AUG-CC-PVTZ-JKFIT

    Orbital Energies [Eh]
    ---------------------

    Doubly Occupied:

       1A    -20.570810     2A    -11.289432     3A    -11.275928
       4A    -11.224471     5A    -11.213614     6A    -11.209918
       7A    -11.206477     8A     -1.405500     9A     -1.074228
      10A     -1.028432    11A     -0.965527    12A     -0.856151
      13A     -0.840608    14A     -0.756989    15A     -0.689130
      16A     -0.653437    17A     -0.645145    18A     -0.599161
      19A     -0.562832    20A     -0.559378    21A     -0.544071
      22A     -0.532227    23A     -0.509088    24A     -0.501953
      25A     -0.478389    26A     -0.473839    27A     -0.459272
      28A     -0.321895

  @DF-RHF Final Energy:  -309.13991520352204

   => Energetics <=

    Nuclear Repulsion Energy =            302.4993486479633020
    One-Electron Energy =               -1018.3827252450664673
    Two-Electron Energy =                 406.7434613935811285
    Total Energy =                       -309.1399152035220368
  Basis Set: (AUG-CC-PVTZ AUX)
    Blend: AUG-CC-PVTZ-RI
    Molecular point group: c1

    Geometry (in Angstrom), charge = 0, multiplicity = 1:

       Center              X                  Y                   Z               Mass
    ------------   -----------------  -----------------  -----------------  -----------------
         O           -0.847440954496    -0.290678386151    -0.289580185350    15.994914619570
         C            2.018074045504     0.294481213849    -0.533772085350    12.000000000000
         C           -2.122605954496    -0.213234786151     0.356916914650    12.000000000000
         C            1.392450045504    -0.856530786151     0.187812914650    12.000000000000
         C            2.766188045504     1.222388213849     0.424730914650    12.000000000000
         C            0.073934045504    -1.045272786151     0.318473914650    12.000000000000
         C           -3.022083954496     0.703986213849    -0.450165085350    12.000000000000
         H            2.715181045504    -0.078950786151    -1.290786085350     1.007825032230
         H            1.244442045504     0.853036213849    -1.061956085350     1.007825032230
         H           -2.476462454496    -1.258793686151     0.357455614650     1.007825032230
         H           -2.025706954496     0.145203213849     1.395349914650     1.007825032230
         H            2.040524045504    -1.595117786151     0.652714914650     1.007825032230
         H            3.248753045504     2.039562213849    -0.116844085350     1.007825032230
         H            2.076359045504     1.651379213849     1.154011914650     1.007825032230
         H            3.540351045504     0.677369213849     0.971488914650     1.007825032230
         H           -0.347601954496    -1.881206786151     0.879048914650     1.007825032230
         H           -4.024961954496     0.741566213849    -0.014464085350     1.007825032230
         H           -2.612247954496     1.717931213849    -0.466746085350     1.007825032230
         H           -3.097557954496     0.341350213849    -1.483072085350     1.007825032230

  Basis Set: AUG-CC-PVTZ
    Blend: AUG-CC-PVTZ
  Basis Set: (AUG-CC-PVTZ AUX)
    Blend: AUG-CC-PVTZ-JKFIT
	 Reference Energy          =    -309.1399152035220368 [Eh]
	 Singles Energy            =      -0.0000000000000000 [Eh]
	 Same-Spin Energy          =      -0.3137058422000855 [Eh]
	 Opposite-Spin Energy      =      -1.0982453981545843 [Eh]
	 Correlation Energy        =      -1.4119512403546697 [Eh]
	 Total Energy              =    -310.5518664438766905 [Eh]

	 ================> DF-SCS-MP2 Energies <==================
	-----------------------------------------------------------
	 SCS Same-Spin Scale       =       0.3333333333333333 [-]
	 SCS Opposite-Spin Scale   =       1.2000000000000000 [-]
	 SCS Same-Spin Energy      =      -0.1045686140666952 [Eh]
	 SCS Opposite-Spin Energy  =      -1.3178944777855011 [Eh]
	 SCS Correlation Energy    =      -1.4224630918521961 [Eh]
	 SCS Total Energy          =    -310.5623782953742307 [Eh]
	-----------------------------------------------------------

  Dipole Moment: [D]
     X:    -1.2730      Y:    -0.0111      Z:     0.6828     Total:     1.4446

*** Psi4 exiting successfully. Buy a developer a beer!
