                               Psi4 1.3.2 release

  ==> Input File <==

--------------------------------------------------------------------------
#psi4
#
memory 32 gb

molecule  {
0 1
  O       -0.8411900    -0.2286010    -0.2822800
  C        2.0174600     0.2824600    -0.5354820
  C       -2.1232200    -0.2252560     0.3552070
  C        1.3918360    -0.8685520     0.1861030
  C        2.7655740     1.2103670     0.4230210
  C        0.0775240    -1.0766931     0.3290771
  C       -3.0226980     0.6919650    -0.4518750
  H        2.7145670    -0.0909720    -1.2924960
  H        1.2438280     0.8410150    -1.0636660
  H       -2.5250500    -1.2529680     0.3825710
  H       -2.0263210     0.1331820     1.3936400
  H        2.0245807    -1.6165134     0.6570939
  H        3.2481390     2.0275410    -0.1185540
  H        2.0757450     1.6393580     1.1523020
  H        3.5397370     0.6653480     0.9697790
  H       -0.3482160    -1.8932280     0.8773390
  H       -4.0255760     0.7295450    -0.0161740
  H       -2.6128620     1.7059100    -0.4684560
  H       -3.0981720     0.3293290    -1.4847820
units angstrom
no_reorient  #important for SAPT in psi4, default
symmetry c1  #important for SAPT in psi4, default
}

set PROPERTIES_ORIGIN ["COM"]
properties('MP2/aug-cc-pvtz', properties = ['dipole'])
--------------------------------------------------------------------------

    Molecular point group: c1
  Charge       = 0
  Multiplicity = 1
  Basis Set: AUG-CC-PVTZ
    Blend: AUG-CC-PVTZ
  Basis Set: (AUG-CC-PVTZ AUX)
    Blend: AUG-CC-PVTZ-JKFIT

    Orbital Energies [Eh]
    ---------------------

    Doubly Occupied:

       1A    -20.569538     2A    -11.284346     3A    -11.277109
       4A    -11.219842     5A    -11.216551     6A    -11.215503
       7A    -11.208333     8A     -1.384664     9A     -1.074936
      10A     -1.023204    11A     -0.968226    12A     -0.851117
      13A     -0.841066    14A     -0.754523    15A     -0.683471
      16A     -0.652744    17A     -0.639068    18A     -0.598046
      19A     -0.560616    20A     -0.556561    21A     -0.541217
      22A     -0.525045    23A     -0.510983    24A     -0.500138
      25A     -0.481522    26A     -0.471574    27A     -0.463918
      28A     -0.327742

  @DF-RHF Final Energy:  -309.13982073873211

   => Energetics <=

    Nuclear Repulsion Energy =            301.7898378172708931
    One-Electron Energy =               -1017.0561071379756868
    Two-Electron Energy =                 406.1264485819727383
    Total Energy =                       -309.1398207387321122
  Basis Set: (AUG-CC-PVTZ AUX)
    Blend: AUG-CC-PVTZ-RI
    Molecular point group: c1

    Geometry (in Angstrom), charge = 0, multiplicity = 1:

       Center              X                  Y                   Z               Mass
    ------------   -----------------  -----------------  -----------------  -----------------
         O           -0.841539648016    -0.226180762823    -0.283817648375    15.994914619570
         C            2.017110351984     0.284880237177    -0.537019648375    12.000000000000
         C           -2.123569648016    -0.222835762823     0.353669351625    12.000000000000
         C            1.391486351984    -0.866131762823     0.184565351625    12.000000000000
         C            2.765224351984     1.212787237177     0.421483351625    12.000000000000
         C            0.077174351984    -1.074272862823     0.327539451625    12.000000000000
         C           -3.023047648016     0.694385237177    -0.453412648375    12.000000000000
         H            2.714217351984    -0.088551762823    -1.294033648375     1.007825032230
         H            1.243478351984     0.843435237177    -1.065203648375     1.007825032230
         H           -2.525399648016    -1.250547762823     0.381033351625     1.007825032230
         H           -2.026670648016     0.135602237177     1.392102351625     1.007825032230
         H            2.024231051984    -1.614093162823     0.655556251625     1.007825032230
         H            3.247789351984     2.029961237177    -0.120091648375     1.007825032230
         H            2.075395351984     1.641778237177     1.150764351625     1.007825032230
         H            3.539387351984     0.667768237177     0.968241351625     1.007825032230
         H           -0.348565648016    -1.890807762823     0.875801351625     1.007825032230
         H           -4.025925648016     0.731965237177    -0.017711648375     1.007825032230
         H           -2.613211648016     1.708330237177    -0.469993648375     1.007825032230
         H           -3.098521648016     0.331749237177    -1.486319648375     1.007825032230

  Basis Set: AUG-CC-PVTZ
    Blend: AUG-CC-PVTZ
  Basis Set: (AUG-CC-PVTZ AUX)
    Blend: AUG-CC-PVTZ-JKFIT
	 Reference Energy          =    -309.1398207387321122 [Eh]
	 Singles Energy            =      -0.0000000000000000 [Eh]
	 Same-Spin Energy          =      -0.3138088527514256 [Eh]
	 Opposite-Spin Energy      =      -1.0995471810122839 [Eh]
	 Correlation Energy        =      -1.4133560337637094 [Eh]
	 Total Energy              =    -310.5531767724958172 [Eh]

	 ================> DF-SCS-MP2 Energies <==================
	-----------------------------------------------------------
	 SCS Same-Spin Scale       =       0.3333333333333333 [-]
	 SCS Opposite-Spin Scale   =       1.2000000000000000 [-]
	 SCS Same-Spin Energy      =      -0.1046029509171419 [Eh]
	 SCS Opposite-Spin Energy  =      -1.3194566172147406 [Eh]
	 SCS Correlation Energy    =      -1.4240595681318824 [Eh]
	 SCS Total Energy          =    -310.5638803068640073 [Eh]
	-----------------------------------------------------------

  Dipole Moment: [D]
     X:    -0.9837      Y:    -0.2284      Z:     0.7501     Total:     1.2580

*** Psi4 exiting successfully. Buy a developer a beer!
