                               Psi4 1.3.2 release

  ==> Input File <==

--------------------------------------------------------------------------
#psi4
#
memory 32 gb

molecule  {
0 1
  O       -0.8411900    -0.2286010    -0.2822800
  C        2.0055812     0.2870303    -0.5383728
  C       -2.1232200    -0.2252560     0.3552070
  C        1.3918360    -0.8685520     0.1861030
  C        2.7655740     1.2103670     0.4230210
  C        0.0733200    -1.0572940     0.3167640
  C       -3.0226980     0.6919650    -0.4518750
  H        2.7145670    -0.0909720    -1.2924960
  H        1.2438280     0.8410150    -1.0636660
  H       -2.5250500    -1.2529680     0.3825710
  H       -2.0263210     0.1331820     1.3936400
  H        2.0322695    -1.6119066     0.6539849
  H        3.2481390     2.0275410    -0.1185540
  H        2.0757450     1.6393580     1.1523020
  H        3.5397370     0.6653480     0.9697790
  H       -0.3482160    -1.8932280     0.8773390
  H       -4.0255760     0.7295450    -0.0161740
  H       -2.6128620     1.7059100    -0.4684560
  H       -3.0981720     0.3293290    -1.4847820
units angstrom
no_reorient  #important for SAPT in psi4, default
symmetry c1  #important for SAPT in psi4, default
}

set PROPERTIES_ORIGIN ["COM"]
properties('MP2/aug-cc-pvtz', properties = ['dipole'])
--------------------------------------------------------------------------

    Molecular point group: c1
  Charge       = 0
  Multiplicity = 1
  Basis Set: AUG-CC-PVTZ
    Blend: AUG-CC-PVTZ
  Basis Set: (AUG-CC-PVTZ AUX)
    Blend: AUG-CC-PVTZ-JKFIT

    Orbital Energies [Eh]
    ---------------------

    Doubly Occupied:

       1A    -20.572204     2A    -11.286386     3A    -11.277746
       4A    -11.221099     5A    -11.214836     6A    -11.213332
       7A    -11.207583     8A     -1.393183     9A     -1.074631
      10A     -1.024724    11A     -0.966471    12A     -0.851318
      13A     -0.841702    14A     -0.754926    15A     -0.683535
      16A     -0.654435    17A     -0.642663    18A     -0.596660
      19A     -0.561210    20A     -0.556858    21A     -0.541965
      22A     -0.527402    23A     -0.508097    24A     -0.502027
      25A     -0.478359    26A     -0.475080    27A     -0.465049
      28A     -0.325223

  @DF-RHF Final Energy:  -309.14074572874802

   => Energetics <=

    Nuclear Repulsion Energy =            302.1692264266173424
    One-Electron Energy =               -1017.7825337488216064
    Two-Electron Energy =                 406.4725615934562484
    Total Energy =                       -309.1407457287480156
  Basis Set: (AUG-CC-PVTZ AUX)
    Blend: AUG-CC-PVTZ-RI
    Molecular point group: c1

    Geometry (in Angstrom), charge = 0, multiplicity = 1:

       Center              X                  Y                   Z               Mass
    ------------   -----------------  -----------------  -----------------  -----------------
         O           -0.839688845458    -0.229100925763    -0.281963493863    15.994914619570
         C            2.007082354542     0.286530374237    -0.538056293863    12.000000000000
         C           -2.121718845458    -0.225755925763     0.355523506137    12.000000000000
         C            1.393337154542    -0.869051925763     0.186419506137    12.000000000000
         C            2.767075154542     1.209867074237     0.423337506137    12.000000000000
         C            0.074821154542    -1.057793925763     0.317080506137    12.000000000000
         C           -3.021196845458     0.691465074237    -0.451558493863    12.000000000000
         H            2.716068154542    -0.091471925763    -1.292179493863     1.007825032230
         H            1.245329154542     0.840515074237    -1.063349493863     1.007825032230
         H           -2.523548845458    -1.253467925763     0.382887506137     1.007825032230
         H           -2.024819845458     0.132682074237     1.393956506137     1.007825032230
         H            2.033770654542    -1.612406525763     0.654301406137     1.007825032230
         H            3.249640154542     2.027041074237    -0.118237493863     1.007825032230
         H            2.077246154542     1.638858074237     1.152618506137     1.007825032230
         H            3.541238154542     0.664848074237     0.970095506137     1.007825032230
         H           -0.346714845458    -1.893727925763     0.877655506137     1.007825032230
         H           -4.024074845458     0.729045074237    -0.015857493863     1.007825032230
         H           -2.611360845458     1.705410074237    -0.468139493863     1.007825032230
         H           -3.096670845458     0.328829074237    -1.484465493863     1.007825032230

  Basis Set: AUG-CC-PVTZ
    Blend: AUG-CC-PVTZ
  Basis Set: (AUG-CC-PVTZ AUX)
    Blend: AUG-CC-PVTZ-JKFIT
	 Reference Energy          =    -309.1407457287480156 [Eh]
	 Singles Energy            =      -0.0000000000000000 [Eh]
	 Same-Spin Energy          =      -0.3138100466326322 [Eh]
	 Opposite-Spin Energy      =      -1.0991668362224722 [Eh]
	 Correlation Energy        =      -1.4129768828551046 [Eh]
	 Total Energy              =    -310.5537226116031206 [Eh]

	 ================> DF-SCS-MP2 Energies <==================
	-----------------------------------------------------------
	 SCS Same-Spin Scale       =       0.3333333333333333 [-]
	 SCS Opposite-Spin Scale   =       1.2000000000000000 [-]
	 SCS Same-Spin Energy      =      -0.1046033488775441 [Eh]
	 SCS Opposite-Spin Energy  =      -1.3190002034669666 [Eh]
	 SCS Correlation Energy    =      -1.4236035523445105 [Eh]
	 SCS Total Energy          =    -310.5643492810925181 [Eh]
	-----------------------------------------------------------

  Dipole Moment: [D]
     X:    -1.1004      Y:    -0.1890      Z:     0.7263     Total:     1.3319

*** Psi4 exiting successfully. Buy a developer a beer!
