                               Psi4 1.3.2 release

  ==> Input File <==

--------------------------------------------------------------------------
#psi4
#
memory 32 gb

molecule  {
0 1
  O       -0.8411900    -0.2286010    -0.2822800
  C        2.0174600     0.2824600    -0.5354820
  C       -2.1057802    -0.2582025     0.3884935
  C        1.3918360    -0.8685520     0.1861030
  C        2.7655740     1.2103670     0.4230210
  C        0.0399931    -1.0694359     0.3489310
  C       -3.0226980     0.6919650    -0.4518750
  H        2.7145670    -0.0909720    -1.2924960
  H        1.2438280     0.8410150    -1.0636660
  H       -2.5250500    -1.2529680     0.3825710
  H       -2.0263210     0.1331820     1.3936400
  H        2.0399100    -1.6071390     0.6510050
  H        3.2481390     2.0275410    -0.1185540
  H        2.0757450     1.6393580     1.1523020
  H        3.5397370     0.6653480     0.9697790
  H       -0.3482160    -1.8932280     0.8773390
  H       -4.0255760     0.7295450    -0.0161740
  H       -2.6128620     1.7059100    -0.4684560
  H       -3.0981720     0.3293290    -1.4847820
units angstrom
no_reorient  #important for SAPT in psi4, default
symmetry c1  #important for SAPT in psi4, default
}

set PROPERTIES_ORIGIN ["COM"]
properties('MP2/aug-cc-pvtz', properties = ['dipole'])
--------------------------------------------------------------------------

    Molecular point group: c1
  Charge       = 0
  Multiplicity = 1
  Basis Set: AUG-CC-PVTZ
    Blend: AUG-CC-PVTZ
  Basis Set: (AUG-CC-PVTZ AUX)
    Blend: AUG-CC-PVTZ-JKFIT

    Orbital Energies [Eh]
    ---------------------

    Doubly Occupied:

       1A    -20.575616     2A    -11.284168     3A    -11.279345
       4A    -11.221547     5A    -11.219118     6A    -11.215479
       7A    -11.207674     8A     -1.396793     9A     -1.068704
      10A     -1.018022    11A     -0.960018    12A     -0.852719
      13A     -0.848008    14A     -0.756509    15A     -0.689293
      16A     -0.660212    17A     -0.638378    18A     -0.597791
      19A     -0.558055    20A     -0.556678    21A     -0.542061
      22A     -0.524040    23A     -0.511254    24A     -0.494534
      25A     -0.482333    26A     -0.476282    27A     -0.468085
      28A     -0.318335

  @DF-RHF Final Energy:  -309.13309854249195

   => Energetics <=

    Nuclear Repulsion Energy =            301.5747971227525568
    One-Electron Energy =               -1016.5736879883955908
    Two-Electron Energy =                 405.8657923231510836
    Total Energy =                       -309.1330985424919504
  Basis Set: (AUG-CC-PVTZ AUX)
    Blend: AUG-CC-PVTZ-RI
    Molecular point group: c1

    Geometry (in Angstrom), charge = 0, multiplicity = 1:

       Center              X                  Y                   Z               Mass
    ------------   -----------------  -----------------  -----------------  -----------------
         O           -0.839285210817    -0.223195176022    -0.290127526798    15.994914619570
         C            2.019364789183     0.287865823978    -0.543329526798    12.000000000000
         C           -2.103875410817    -0.252796676022     0.380645973202    12.000000000000
         C            1.393740789183    -0.863146176022     0.178255473202    12.000000000000
         C            2.767478789183     1.215772823978     0.415173473202    12.000000000000
         C            0.041897889183    -1.064030076022     0.341083473202    12.000000000000
         C           -3.020793210817     0.697370823978    -0.459722526798    12.000000000000
         H            2.716471789183    -0.085566176022    -1.300343526798     1.007825032230
         H            1.245732789183     0.846420823978    -1.071513526798     1.007825032230
         H           -2.523145210817    -1.247562176022     0.374723473202     1.007825032230
         H           -2.024416210817     0.138587823978     1.385792473202     1.007825032230
         H            2.041814789183    -1.601733176022     0.643157473202     1.007825032230
         H            3.250043789183     2.032946823978    -0.126401526798     1.007825032230
         H            2.077649789183     1.644763823978     1.144454473202     1.007825032230
         H            3.541641789183     0.670753823978     0.961931473202     1.007825032230
         H           -0.346311210817    -1.887822176022     0.869491473202     1.007825032230
         H           -4.023671210817     0.734950823978    -0.024021526798     1.007825032230
         H           -2.610957210817     1.711315823978    -0.476303526798     1.007825032230
         H           -3.096267210817     0.334734823978    -1.492629526798     1.007825032230

  Basis Set: AUG-CC-PVTZ
    Blend: AUG-CC-PVTZ
  Basis Set: (AUG-CC-PVTZ AUX)
    Blend: AUG-CC-PVTZ-JKFIT
	 Reference Energy          =    -309.1330985424919504 [Eh]
	 Singles Energy            =      -0.0000000000000000 [Eh]
	 Same-Spin Energy          =      -0.3142210710946970 [Eh]
	 Opposite-Spin Energy      =      -1.1008400641187150 [Eh]
	 Correlation Energy        =      -1.4150611352134121 [Eh]
	 Total Energy              =    -310.5481596777053710 [Eh]

	 ================> DF-SCS-MP2 Energies <==================
	-----------------------------------------------------------
	 SCS Same-Spin Scale       =       0.3333333333333333 [-]
	 SCS Opposite-Spin Scale   =       1.2000000000000000 [-]
	 SCS Same-Spin Energy      =      -0.1047403570315657 [Eh]
	 SCS Opposite-Spin Energy  =      -1.3210080769424579 [Eh]
	 SCS Correlation Energy    =      -1.4257484339740236 [Eh]
	 SCS Total Energy          =    -310.5588469764659862 [Eh]
	-----------------------------------------------------------

  Dipole Moment: [D]
     X:    -1.0920      Y:    -0.2610      Z:     0.7586     Total:     1.3550

*** Psi4 exiting successfully. Buy a developer a beer!
