                               Psi4 1.3.2 release

  ==> Input File <==

--------------------------------------------------------------------------
#psi4
#
memory 32 gb

molecule  {
0 1
  O       -0.8420905    -0.2409569    -0.2839038
  C        2.0174600     0.2824600    -0.5354820
  C       -2.1232200    -0.2252560     0.3552070
  C        1.3918360    -0.8685520     0.1861030
  C        2.7655740     1.2103670     0.4230210
  C        0.0733200    -1.0572940     0.3167640
  C       -3.0226980     0.6919650    -0.4518750
  H        2.7145670    -0.0909720    -1.2924960
  H        1.2438280     0.8410150    -1.0636660
  H       -2.5171274    -1.2561395     0.3781033
  H       -2.0263210     0.1331820     1.3936400
  H        2.0399100    -1.6071390     0.6510050
  H        3.2481390     2.0275410    -0.1185540
  H        2.0757450     1.6393580     1.1523020
  H        3.5397370     0.6653480     0.9697790
  H       -0.3482160    -1.8932280     0.8773390
  H       -4.0255760     0.7295450    -0.0161740
  H       -2.6128620     1.7059100    -0.4684560
  H       -3.0981720     0.3293290    -1.4847820
units angstrom
no_reorient  #important for SAPT in psi4, default
symmetry c1  #important for SAPT in psi4, default
}

set PROPERTIES_ORIGIN ["COM"]
properties('MP2/aug-cc-pvtz', properties = ['dipole'])
--------------------------------------------------------------------------

    Molecular point group: c1
  Charge       = 0
  Multiplicity = 1
  Basis Set: AUG-CC-PVTZ
    Blend: AUG-CC-PVTZ
  Basis Set: (AUG-CC-PVTZ AUX)
    Blend: AUG-CC-PVTZ-JKFIT

    Orbital Energies [Eh]
    ---------------------

    Doubly Occupied:

       1A    -20.572040     2A    -11.286942     3A    -11.277783
       4A    -11.221679     5A    -11.214531     6A    -11.212752
       7A    -11.207222     8A     -1.395290     9A     -1.074580
      10A     -1.025626    11A     -0.966536    12A     -0.852120
      13A     -0.841420    14A     -0.754966    15A     -0.684550
      16A     -0.654403    17A     -0.642912    18A     -0.597859
      19A     -0.560883    20A     -0.557541    21A     -0.542579
      22A     -0.528105    23A     -0.509575    24A     -0.501720
      25A     -0.478708    26A     -0.473779    27A     -0.463295
      28A     -0.324941

  @DF-RHF Final Energy:  -309.14115949414474

   => Energetics <=

    Nuclear Repulsion Energy =            302.1961035541534670
    One-Electron Energy =               -1017.8258583843081624
    Two-Electron Energy =                 406.4885953360100075
    Total Energy =                       -309.1411594941447447
  Basis Set: (AUG-CC-PVTZ AUX)
    Blend: AUG-CC-PVTZ-RI
    Molecular point group: c1

    Geometry (in Angstrom), charge = 0, multiplicity = 1:

       Center              X                  Y                   Z               Mass
    ------------   -----------------  -----------------  -----------------  -----------------
         O           -0.842026339802    -0.238950386098    -0.283599394914    15.994914619570
         C            2.017524160198     0.284466513902    -0.535177594914    12.000000000000
         C           -2.123155839802    -0.223249486098     0.355511405086    12.000000000000
         C            1.391900160198    -0.866545486098     0.186407405086    12.000000000000
         C            2.765638160198     1.212373513902     0.423325405086    12.000000000000
         C            0.073384160198    -1.055287486098     0.317068405086    12.000000000000
         C           -3.022633839802     0.693971513902    -0.451570594914    12.000000000000
         H            2.714631160198    -0.088965486098    -1.292191594914     1.007825032230
         H            1.243892160198     0.843021513902    -1.063361594914     1.007825032230
         H           -2.517063239802    -1.254132986098     0.378407705086     1.007825032230
         H           -2.026256839802     0.135188513902     1.393944405086     1.007825032230
         H            2.039974160198    -1.605132486098     0.651309405086     1.007825032230
         H            3.248203160198     2.029547513902    -0.118249594914     1.007825032230
         H            2.075809160198     1.641364513902     1.152606405086     1.007825032230
         H            3.539801160198     0.667354513902     0.970083405086     1.007825032230
         H           -0.348151839802    -1.891221486098     0.877643405086     1.007825032230
         H           -4.025511839802     0.731551513902    -0.015869594914     1.007825032230
         H           -2.612797839802     1.707916513902    -0.468151594914     1.007825032230
         H           -3.098107839802     0.331335513902    -1.484477594914     1.007825032230

  Basis Set: AUG-CC-PVTZ
    Blend: AUG-CC-PVTZ
  Basis Set: (AUG-CC-PVTZ AUX)
    Blend: AUG-CC-PVTZ-JKFIT
	 Reference Energy          =    -309.1411594941447447 [Eh]
	 Singles Energy            =      -0.0000000000000000 [Eh]
	 Same-Spin Energy          =      -0.3137863742196081 [Eh]
	 Opposite-Spin Energy      =      -1.0990006645138908 [Eh]
	 Correlation Energy        =      -1.4127870387334989 [Eh]
	 Total Energy              =    -310.5539465328782285 [Eh]

	 ================> DF-SCS-MP2 Energies <==================
	-----------------------------------------------------------
	 SCS Same-Spin Scale       =       0.3333333333333333 [-]
	 SCS Opposite-Spin Scale   =       1.2000000000000000 [-]
	 SCS Same-Spin Energy      =      -0.1045954580732027 [Eh]
	 SCS Opposite-Spin Energy  =      -1.3188007974166689 [Eh]
	 SCS Correlation Energy    =      -1.4233962554898716 [Eh]
	 SCS Total Energy          =    -310.5645557496346214 [Eh]
	-----------------------------------------------------------

  Dipole Moment: [D]
     X:    -1.1315      Y:    -0.1600      Z:     0.7189     Total:     1.3501

*** Psi4 exiting successfully. Buy a developer a beer!
