                               Psi4 1.3.2 release

  ==> Input File <==

--------------------------------------------------------------------------
#psi4
#
memory 32 gb

molecule  {
0 1
  O       -0.8411900    -0.2286010    -0.2822800
  C        2.0174600     0.2824600    -0.5354820
  C       -2.1232200    -0.2252560     0.3552070
  C        1.3918360    -0.8685520     0.1861030
  C        2.7655740     1.2103670     0.4230210
  C        0.0661180    -1.0183293     0.2920221
  C       -3.0226980     0.6919650    -0.4518750
  H        2.7145670    -0.0909720    -1.2924960
  H        1.2438280     0.8410150    -1.0636660
  H       -2.5250500    -1.2529680     0.3825710
  H       -2.0263210     0.1331820     1.3936400
  H        2.0699717    -1.5877182     0.6384043
  H        3.2481390     2.0275410    -0.1185540
  H        2.0757450     1.6393580     1.1523020
  H        3.5397370     0.6653480     0.9697790
  H       -0.3482160    -1.8932280     0.8773390
  H       -4.0255760     0.7295450    -0.0161740
  H       -2.6128620     1.7059100    -0.4684560
  H       -3.0981720     0.3293290    -1.4847820
units angstrom
no_reorient  #important for SAPT in psi4, default
symmetry c1  #important for SAPT in psi4, default
}

set PROPERTIES_ORIGIN ["COM"]
properties('MP2/aug-cc-pvtz', properties = ['dipole'])
--------------------------------------------------------------------------

    Molecular point group: c1
  Charge       = 0
  Multiplicity = 1
  Basis Set: AUG-CC-PVTZ
    Blend: AUG-CC-PVTZ
  Basis Set: (AUG-CC-PVTZ AUX)
    Blend: AUG-CC-PVTZ-JKFIT

    Orbital Energies [Eh]
    ---------------------

    Doubly Occupied:

       1A    -20.577765     2A    -11.290682     3A    -11.280857
       4A    -11.223650     5A    -11.211319     6A    -11.209311
       7A    -11.205556     8A     -1.411235     9A     -1.074709
      10A     -1.028867    11A     -0.964012    12A     -0.855311
      13A     -0.839658    14A     -0.756473    15A     -0.685052
      16A     -0.657316    17A     -0.649480    18A     -0.597491
      19A     -0.561994    20A     -0.557902    21A     -0.543167
      22A     -0.531345    23A     -0.507395    24A     -0.504889
      25A     -0.478299    26A     -0.474246    27A     -0.459687
      28A     -0.321531

  @DF-RHF Final Energy:  -309.13889903755461

   => Energetics <=

    Nuclear Repulsion Energy =            302.8235755572613357
    One-Electron Energy =               -1019.0065477044646514
    Two-Electron Energy =                 407.0440731096487639
    Total Energy =                       -309.1388990375546086
  Basis Set: (AUG-CC-PVTZ AUX)
    Blend: AUG-CC-PVTZ-RI
    Molecular point group: c1

    Geometry (in Angstrom), charge = 0, multiplicity = 1:

       Center              X                  Y                   Z               Mass
    ------------   -----------------  -----------------  -----------------  -----------------
         O           -0.840629198492    -0.233468151762    -0.279186802794    15.994914619570
         C            2.018020801508     0.277592848238    -0.532388802794    12.000000000000
         C           -2.122659198492    -0.230123151762     0.358300197206    12.000000000000
         C            1.392396801508    -0.873419151762     0.189196197206    12.000000000000
         C            2.766134801508     1.205499848238     0.426114197206    12.000000000000
         C            0.066678801508    -1.023196451762     0.295115297206    12.000000000000
         C           -3.022137198492     0.687097848238    -0.448781802794    12.000000000000
         H            2.715127801508    -0.095839151762    -1.289402802794     1.007825032230
         H            1.244388801508     0.836147848238    -1.060572802794     1.007825032230
         H           -2.524489198492    -1.257835151762     0.385664197206     1.007825032230
         H           -2.025760198492     0.128314848238     1.396733197206     1.007825032230
         H            2.070532501508    -1.592585351762     0.641497497206     1.007825032230
         H            3.248699801508     2.022673848238    -0.115460802794     1.007825032230
         H            2.076305801508     1.634490848238     1.155395197206     1.007825032230
         H            3.540297801508     0.660480848238     0.972872197206     1.007825032230
         H           -0.347655198492    -1.898095151762     0.880432197206     1.007825032230
         H           -4.025015198492     0.724677848238    -0.013080802794     1.007825032230
         H           -2.612301198492     1.701042848238    -0.465362802794     1.007825032230
         H           -3.097611198492     0.324461848238    -1.481688802794     1.007825032230

  Basis Set: AUG-CC-PVTZ
    Blend: AUG-CC-PVTZ
  Basis Set: (AUG-CC-PVTZ AUX)
    Blend: AUG-CC-PVTZ-JKFIT
	 Reference Energy          =    -309.1388990375546086 [Eh]
	 Singles Energy            =      -0.0000000000000000 [Eh]
	 Same-Spin Energy          =      -0.3139453856482870 [Eh]
	 Opposite-Spin Energy      =      -1.0987329088228004 [Eh]
	 Correlation Energy        =      -1.4126782944710874 [Eh]
	 Total Energy              =    -310.5515773320257154 [Eh]

	 ================> DF-SCS-MP2 Energies <==================
	-----------------------------------------------------------
	 SCS Same-Spin Scale       =       0.3333333333333333 [-]
	 SCS Opposite-Spin Scale   =       1.2000000000000000 [-]
	 SCS Same-Spin Energy      =      -0.1046484618827623 [Eh]
	 SCS Opposite-Spin Energy  =      -1.3184794905873605 [Eh]
	 SCS Correlation Energy    =      -1.4231279524701228 [Eh]
	 SCS Total Energy          =    -310.5620269900247195 [Eh]
	-----------------------------------------------------------

  Dipole Moment: [D]
     X:    -1.3322      Y:    -0.1013      Z:     0.6707     Total:     1.4949

*** Psi4 exiting successfully. Buy a developer a beer!
