                               Psi4 1.3.2 release

  ==> Input File <==

--------------------------------------------------------------------------
#psi4
#
memory 32 gb

molecule  {
0 1
  O       -0.8411900    -0.2286010    -0.2822800
  C        2.0174600     0.2824600    -0.5354820
  C       -2.1232200    -0.2252560     0.3552070
  C        1.3645029    -0.8941442     0.1173339
  C        2.7850265     1.2560921     0.3602278
  C        0.0733200    -1.0572940     0.3167640
  C       -3.0226980     0.6919650    -0.4518750
  H        2.7145670    -0.0909720    -1.2924960
  H        1.2438280     0.8410150    -1.0636660
  H       -2.5250500    -1.2529680     0.3825710
  H       -2.0263210     0.1331820     1.3936400
  H        2.0399100    -1.6071390     0.6510050
  H        3.2481390     2.0275410    -0.1185540
  H        2.0757450     1.6393580     1.1523020
  H        3.5397370     0.6653480     0.9697790
  H       -0.3482160    -1.8932280     0.8773390
  H       -4.0255760     0.7295450    -0.0161740
  H       -2.6128620     1.7059100    -0.4684560
  H       -3.0981720     0.3293290    -1.4847820
units angstrom
no_reorient  #important for SAPT in psi4, default
symmetry c1  #important for SAPT in psi4, default
}

set PROPERTIES_ORIGIN ["COM"]
properties('MP2/aug-cc-pvtz', properties = ['dipole'])
--------------------------------------------------------------------------

    Molecular point group: c1
  Charge       = 0
  Multiplicity = 1
  Basis Set: AUG-CC-PVTZ
    Blend: AUG-CC-PVTZ
  Basis Set: (AUG-CC-PVTZ AUX)
    Blend: AUG-CC-PVTZ-JKFIT

    Orbital Energies [Eh]
    ---------------------

    Doubly Occupied:

       1A    -20.571628     2A    -11.286422     3A    -11.276947
       4A    -11.221096     5A    -11.215164     6A    -11.214028
       7A    -11.210200     8A     -1.393599     9A     -1.076399
      10A     -1.024851    11A     -0.971541    12A     -0.854166
      13A     -0.842625    14A     -0.751105    15A     -0.684672
      16A     -0.654785    17A     -0.641271    18A     -0.599390
      19A     -0.564612    20A     -0.554293    21A     -0.546233
      22A     -0.523905    23A     -0.513234    24A     -0.501018
      25A     -0.477443    26A     -0.471115    27A     -0.456260
      28A     -0.330668

  @DF-RHF Final Energy:  -309.13073342490048

   => Energetics <=

    Nuclear Repulsion Energy =            302.0789060343146275
    One-Electron Energy =               -1017.5619384292926952
    Two-Electron Energy =                 406.3522989700775838
    Total Energy =                       -309.1307334249004839
  Basis Set: (AUG-CC-PVTZ AUX)
    Blend: AUG-CC-PVTZ-RI
    Molecular point group: c1

    Geometry (in Angstrom), charge = 0, multiplicity = 1:

       Center              X                  Y                   Z               Mass
    ------------   -----------------  -----------------  -----------------  -----------------
         O           -0.840245138258    -0.231014787034    -0.266506609717    15.994914619570
         C            2.018404861742     0.280046212966    -0.519708609717    12.000000000000
         C           -2.122275138258    -0.227669787034     0.370980390283    12.000000000000
         C            1.365447761742    -0.896557987034     0.133107290283    12.000000000000
         C            2.785971361742     1.253678312966     0.376001190283    12.000000000000
         C            0.074264861742    -1.059707787034     0.332537390283    12.000000000000
         C           -3.021753138258     0.689551212966    -0.436101609717    12.000000000000
         H            2.715511861742    -0.093385787034    -1.276722609717     1.007825032230
         H            1.244772861742     0.838601212966    -1.047892609717     1.007825032230
         H           -2.524105138258    -1.255381787034     0.398344390283     1.007825032230
         H           -2.025376138258     0.130768212966     1.409413390283     1.007825032230
         H            2.040854861742    -1.609552787034     0.666778390283     1.007825032230
         H            3.249083861742     2.025127212966    -0.102780609717     1.007825032230
         H            2.076689861742     1.636944212966     1.168075390283     1.007825032230
         H            3.540681861742     0.662934212966     0.985552390283     1.007825032230
         H           -0.347271138258    -1.895641787034     0.893112390283     1.007825032230
         H           -4.024631138258     0.727131212966    -0.000400609717     1.007825032230
         H           -2.611917138258     1.703496212966    -0.452682609717     1.007825032230
         H           -3.097227138258     0.326915212966    -1.469008609717     1.007825032230

  Basis Set: AUG-CC-PVTZ
    Blend: AUG-CC-PVTZ
  Basis Set: (AUG-CC-PVTZ AUX)
    Blend: AUG-CC-PVTZ-JKFIT
	 Reference Energy          =    -309.1307334249004839 [Eh]
	 Singles Energy            =      -0.0000000000000000 [Eh]
	 Same-Spin Energy          =      -0.3137905453620118 [Eh]
	 Opposite-Spin Energy      =      -1.0992540001838518 [Eh]
	 Correlation Energy        =      -1.4130445455458636 [Eh]
	 Total Energy              =    -310.5437779704463424 [Eh]

	 ================> DF-SCS-MP2 Energies <==================
	-----------------------------------------------------------
	 SCS Same-Spin Scale       =       0.3333333333333333 [-]
	 SCS Opposite-Spin Scale   =       1.2000000000000000 [-]
	 SCS Same-Spin Energy      =      -0.1045968484540039 [Eh]
	 SCS Opposite-Spin Energy  =      -1.3191048002206220 [Eh]
	 SCS Correlation Energy    =      -1.4237016486746259 [Eh]
	 SCS Total Energy          =    -310.5544350735751209 [Eh]
	-----------------------------------------------------------

  Dipole Moment: [D]
     X:    -1.1209      Y:    -0.1255      Z:     0.7915     Total:     1.3779

*** Psi4 exiting successfully. Buy a developer a beer!
