                               Psi4 1.3.2 release

  ==> Input File <==

--------------------------------------------------------------------------
#psi4
#
memory 32 gb

molecule  {
0 1
  O       -0.8403871    -0.2162449    -0.2806077
  C        2.0174600     0.2824600    -0.5354820
  C       -2.1232200    -0.2252560     0.3552070
  C        1.3918360    -0.8685520     0.1861030
  C        2.7655740     1.2103670     0.4230210
  C        0.0733200    -1.0572940     0.3167640
  C       -3.0226980     0.6919650    -0.4518750
  H        2.7145670    -0.0909720    -1.2924960
  H        1.2438280     0.8410150    -1.0636660
  H       -2.5329420    -1.2497182     0.3870366
  H       -2.0263210     0.1331820     1.3936400
  H        2.0399100    -1.6071390     0.6510050
  H        3.2481390     2.0275410    -0.1185540
  H        2.0757450     1.6393580     1.1523020
  H        3.5397370     0.6653480     0.9697790
  H       -0.3482160    -1.8932280     0.8773390
  H       -4.0255760     0.7295450    -0.0161740
  H       -2.6128620     1.7059100    -0.4684560
  H       -3.0981720     0.3293290    -1.4847820
units angstrom
no_reorient  #important for SAPT in psi4, default
symmetry c1  #important for SAPT in psi4, default
}

set PROPERTIES_ORIGIN ["COM"]
properties('MP2/aug-cc-pvtz', properties = ['dipole'])
--------------------------------------------------------------------------

    Molecular point group: c1
  Charge       = 0
  Multiplicity = 1
  Basis Set: AUG-CC-PVTZ
    Blend: AUG-CC-PVTZ
  Basis Set: (AUG-CC-PVTZ AUX)
    Blend: AUG-CC-PVTZ-JKFIT

    Orbital Energies [Eh]
    ---------------------

    Doubly Occupied:

       1A    -20.572518     2A    -11.285900     3A    -11.278582
       4A    -11.220520     5A    -11.215008     6A    -11.213972
       7A    -11.207564     8A     -1.391167     9A     -1.074810
      10A     -1.024440    11A     -0.967010    12A     -0.850852
      13A     -0.841474    14A     -0.754165    15A     -0.682934
      16A     -0.654441    17A     -0.641931    18A     -0.597455
      19A     -0.560710    20A     -0.556419    21A     -0.541873
      22A     -0.526640    23A     -0.509735    24A     -0.501579
      25A     -0.479181    26A     -0.473169    27A     -0.464375
      28A     -0.326321

  @DF-RHF Final Energy:  -309.14051913259311

   => Energetics <=

    Nuclear Repulsion Energy =            302.0618175986948586
    One-Electron Energy =               -1017.5751827488713843
    Two-Electron Energy =                 406.3728460175833561
    Total Energy =                       -309.1405191325931128
  Basis Set: (AUG-CC-PVTZ AUX)
    Blend: AUG-CC-PVTZ-RI
    Molecular point group: c1

    Geometry (in Angstrom), charge = 0, multiplicity = 1:

       Center              X                  Y                   Z               Mass
    ------------   -----------------  -----------------  -----------------  -----------------
         O           -0.840435913343    -0.218252199998    -0.280919987613    15.994914619570
         C            2.017411186657     0.280452700002    -0.535794287613    12.000000000000
         C           -2.123268813343    -0.227263299998     0.354894712387    12.000000000000
         C            1.391787186657    -0.870559299998     0.185790712387    12.000000000000
         C            2.765525186657     1.208359700002     0.422708712387    12.000000000000
         C            0.073271186657    -1.059301299998     0.316451712387    12.000000000000
         C           -3.022746813343     0.689957700002    -0.452187287613    12.000000000000
         H            2.714518186657    -0.092979299998    -1.292808287613     1.007825032230
         H            1.243779186657     0.839007700002    -1.063978287613     1.007825032230
         H           -2.532990813343    -1.251725499998     0.386724312387     1.007825032230
         H           -2.026369813343     0.131174700002     1.393327712387     1.007825032230
         H            2.039861186657    -1.609146299998     0.650692712387     1.007825032230
         H            3.248090186657     2.025533700002    -0.118866287613     1.007825032230
         H            2.075696186657     1.637350700002     1.151989712387     1.007825032230
         H            3.539688186657     0.663340700002     0.969466712387     1.007825032230
         H           -0.348264813343    -1.895235299998     0.877026712387     1.007825032230
         H           -4.025624813343     0.727537700002    -0.016486287613     1.007825032230
         H           -2.612910813343     1.703902700002    -0.468768287613     1.007825032230
         H           -3.098220813343     0.327321700002    -1.485094287613     1.007825032230

  Basis Set: AUG-CC-PVTZ
    Blend: AUG-CC-PVTZ
  Basis Set: (AUG-CC-PVTZ AUX)
    Blend: AUG-CC-PVTZ-JKFIT
	 Reference Energy          =    -309.1405191325931128 [Eh]
	 Singles Energy            =      -0.0000000000000000 [Eh]
	 Same-Spin Energy          =      -0.3138580857383308 [Eh]
	 Opposite-Spin Energy      =      -1.0993951266338615 [Eh]
	 Correlation Energy        =      -1.4132532123721924 [Eh]
	 Total Energy              =    -310.5537723449652958 [Eh]

	 ================> DF-SCS-MP2 Energies <==================
	-----------------------------------------------------------
	 SCS Same-Spin Scale       =       0.3333333333333333 [-]
	 SCS Opposite-Spin Scale   =       1.2000000000000000 [-]
	 SCS Same-Spin Energy      =      -0.1046193619127769 [Eh]
	 SCS Opposite-Spin Energy  =      -1.3192741519606337 [Eh]
	 SCS Correlation Energy    =      -1.4238935138734106 [Eh]
	 SCS Total Energy          =    -310.5644126464665078 [Eh]
	-----------------------------------------------------------

  Dipole Moment: [D]
     X:    -1.0678      Y:    -0.2189      Z:     0.7318     Total:     1.3128

*** Psi4 exiting successfully. Buy a developer a beer!
