                               Psi4 1.3.2 release

  ==> Input File <==

--------------------------------------------------------------------------
#psi4
#
memory 32 gb

molecule  {
0 1
  O       -0.8934518    -0.2686982    -0.2536598
  C        2.0174600     0.2824600    -0.5354820
  C       -2.1232200    -0.2252560     0.3552070
  C        1.4020411    -0.9248244     0.2265848
  C        2.7655740     1.2103670     0.4230210
  C        0.0733200    -1.0572940     0.3167640
  C       -3.0226980     0.6919650    -0.4518750
  H        2.7145670    -0.0909720    -1.2924960
  H        1.2438280     0.8410150    -1.0636660
  H       -2.5250500    -1.2529680     0.3825710
  H       -2.0263210     0.1331820     1.3936400
  H        2.0399100    -1.6071390     0.6510050
  H        3.2481390     2.0275410    -0.1185540
  H        2.0757450     1.6393580     1.1523020
  H        3.5397370     0.6653480     0.9697790
  H       -0.3482160    -1.8932280     0.8773390
  H       -4.0255760     0.7295450    -0.0161740
  H       -2.6128620     1.7059100    -0.4684560
  H       -3.0981720     0.3293290    -1.4847820
units angstrom
no_reorient  #important for SAPT in psi4, default
symmetry c1  #important for SAPT in psi4, default
}

set PROPERTIES_ORIGIN ["COM"]
properties('MP2/aug-cc-pvtz', properties = ['dipole'])
--------------------------------------------------------------------------

    Molecular point group: c1
  Charge       = 0
  Multiplicity = 1
  Basis Set: AUG-CC-PVTZ
    Blend: AUG-CC-PVTZ
  Basis Set: (AUG-CC-PVTZ AUX)
    Blend: AUG-CC-PVTZ-JKFIT

    Orbital Energies [Eh]
    ---------------------

    Doubly Occupied:

       1A    -20.573373     2A    -11.283248     3A    -11.281836
       4A    -11.219723     5A    -11.219338     6A    -11.215460
       7A    -11.207805     8A     -1.411329     9A     -1.073748
      10A     -1.023780    11A     -0.970558    12A     -0.855134
      13A     -0.837501    14A     -0.767955    15A     -0.687859
      16A     -0.659695    17A     -0.654254    18A     -0.596751
      19A     -0.570958    20A     -0.559687    21A     -0.541176
      22A     -0.538003    23A     -0.507471    24A     -0.494129
      25A     -0.478203    26A     -0.468447    27A     -0.453310
      28A     -0.331661

  @DF-RHF Final Energy:  -309.13509736865655

   => Energetics <=

    Nuclear Repulsion Energy =            301.9528252302007445
    One-Electron Energy =               -1017.2110574543156645
    Two-Electron Energy =                 406.1231348554583178
    Total Energy =                       -309.1350973686565453
  Basis Set: (AUG-CC-PVTZ AUX)
    Blend: AUG-CC-PVTZ-RI
    Molecular point group: c1

    Geometry (in Angstrom), charge = 0, multiplicity = 1:

       Center              X                  Y                   Z               Mass
    ------------   -----------------  -----------------  -----------------  -----------------
         O           -0.886323483804    -0.255543665135    -0.263087096280    15.994914619570
         C            2.024588316196     0.295614534865    -0.544909296280    12.000000000000
         C           -2.116091683804    -0.212101465135     0.345779703720    12.000000000000
         C            1.409169416196    -0.911669865135     0.217157503720    12.000000000000
         C            2.772702316196     1.223521534865     0.413593703720    12.000000000000
         C            0.080448316196    -1.044139465135     0.307336703720    12.000000000000
         C           -3.015569683804     0.705119534865    -0.461302296280    12.000000000000
         H            2.721695316196    -0.077817465135    -1.301923296280     1.007825032230
         H            1.250956316196     0.854169534865    -1.073093296280     1.007825032230
         H           -2.517921683804    -1.239813465135     0.373143703720     1.007825032230
         H           -2.019192683804     0.146336534865     1.384212703720     1.007825032230
         H            2.047038316196    -1.593984465135     0.641577703720     1.007825032230
         H            3.255267316196     2.040695534865    -0.127981296280     1.007825032230
         H            2.082873316196     1.652512534865     1.142874703720     1.007825032230
         H            3.546865316196     0.678502534865     0.960351703720     1.007825032230
         H           -0.341087683804    -1.880073465135     0.867911703720     1.007825032230
         H           -4.018447683804     0.742699534865    -0.025601296280     1.007825032230
         H           -2.605733683804     1.719064534865    -0.477883296280     1.007825032230
         H           -3.091043683804     0.342483534865    -1.494209296280     1.007825032230

  Basis Set: AUG-CC-PVTZ
    Blend: AUG-CC-PVTZ
  Basis Set: (AUG-CC-PVTZ AUX)
    Blend: AUG-CC-PVTZ-JKFIT
	 Reference Energy          =    -309.1350973686565453 [Eh]
	 Singles Energy            =      -0.0000000000000000 [Eh]
	 Same-Spin Energy          =      -0.3129266673921986 [Eh]
	 Opposite-Spin Energy      =      -1.0973127378987848 [Eh]
	 Correlation Energy        =      -1.4102394052909835 [Eh]
	 Total Energy              =    -310.5453367739475539 [Eh]

	 ================> DF-SCS-MP2 Energies <==================
	-----------------------------------------------------------
	 SCS Same-Spin Scale       =       0.3333333333333333 [-]
	 SCS Opposite-Spin Scale   =       1.2000000000000000 [-]
	 SCS Same-Spin Energy      =      -0.1043088891307329 [Eh]
	 SCS Opposite-Spin Energy  =      -1.3167752854785417 [Eh]
	 SCS Correlation Energy    =      -1.4210841746092746 [Eh]
	 SCS Total Energy          =    -310.5561815432658364 [Eh]
	-----------------------------------------------------------

  Dipole Moment: [D]
     X:    -0.8514      Y:    -0.1474      Z:     0.6494     Total:     1.0809

*** Psi4 exiting successfully. Buy a developer a beer!
