                               Psi4 1.4a3.dev225

  ==> Input File <==

--------------------------------------------------------------------------
#psi4
#
memory 32 gb

molecule  {
0 1
  O        0.9059480     0.1295110    -0.3069180
  C       -1.9753050    -0.3336000    -0.5537270
  C        2.1020707     0.1884345     0.4414294
  C       -1.3184330     0.9429980    -0.1246110
  C       -2.9908880    -0.8293550     0.4787900
  C        0.0027760     1.1130440     0.0171530
  C        3.0576820    -0.8509900    -0.1177330
  H       -2.4824890    -0.1840060    -1.5158280
  H       -1.2045440    -1.0918590    -0.7184600
  H        2.5525890     1.1965710     0.3749050
  H        1.9047370    -0.0062780     1.5110790
  H       -1.9523440     1.7996160     0.0958850
  H       -3.4787570    -1.7495600     0.1429400
  H       -2.4987140    -1.0317260     1.4340660
  H       -3.7695180    -0.0804100     0.6542360
  H        0.4396010     2.0570360     0.3475940
  H        4.0048870    -0.8497230     0.4289840
  H        2.6101410    -1.8440700    -0.0412770
  H        3.2577670    -0.6398860    -1.1701900
units angstrom
no_reorient  #important for SAPT in psi4, default
symmetry c1  #important for SAPT in psi4, default
}

set PROPERTIES_ORIGIN ["COM"]
properties('MP2/aug-cc-pvtz', properties = ['dipole'])
--------------------------------------------------------------------------

    Molecular point group: c1
  Charge       = 0
  Multiplicity = 1
  Basis Set: AUG-CC-PVTZ
    Blend: AUG-CC-PVTZ
  Basis Set: (AUG-CC-PVTZ AUX)
    Blend: AUG-CC-PVTZ-JKFIT

    Orbital Energies [Eh]
    ---------------------

    Doubly Occupied:

       1A    -20.573651     2A    -11.284116     3A    -11.279525
       4A    -11.218874     5A    -11.217240     6A    -11.216279
       7A    -11.209517     8A     -1.398861     9A     -1.075121
      10A     -1.024565    11A     -0.967889    12A     -0.852159
      13A     -0.840838    14A     -0.757322    15A     -0.686816
      16A     -0.653963    17A     -0.641009    18A     -0.600555
      19A     -0.564222    20A     -0.559791    21A     -0.540299
      22A     -0.529083    23A     -0.508413    24A     -0.498893
      25A     -0.480495    26A     -0.473013    27A     -0.460452
      28A     -0.328595

  @DF-RHF Final Energy:  -309.14112039441261

   => Energetics <=

    Nuclear Repulsion Energy =            301.4962024500356961
    One-Electron Energy =               -1016.3915355611228506
    Two-Electron Energy =                 405.7542127166746013
    Total Energy =                       -309.1411203944126100
  Basis Set: (AUG-CC-PVTZ AUX)
    Blend: AUG-CC-PVTZ-RI
    Molecular point group: c1

    Geometry (in Angstrom), charge = 0, multiplicity = 1:

       Center              X                  Y                   Z               Mass
    ------------   -----------------  -----------------  -----------------  -----------------
         O            0.901912343762     0.105585947029    -0.290357757262    15.994914619570
         C           -1.979340656238    -0.357525052971    -0.537166757262    12.000000000000
         C            2.098035043762     0.164509447029     0.457989642738    12.000000000000
         C           -1.322468656238     0.919072947029    -0.108050757262    12.000000000000
         C           -2.994923656238    -0.853280052971     0.495350242738    12.000000000000
         C           -0.001259656238     1.089118947029     0.033713242738    12.000000000000
         C            3.053646343762    -0.874915052971    -0.101172757262    12.000000000000
         H           -2.486524656238    -0.207931052971    -1.499267757262     1.007825032230
         H           -1.208579656238    -1.115784052971    -0.701899757262     1.007825032230
         H            2.548553343762     1.172645947029     0.391465242738     1.007825032230
         H            1.900701343762    -0.030203052971     1.527639242738     1.007825032230
         H           -1.956379656238     1.775690947029     0.112445242738     1.007825032230
         H           -3.482792656238    -1.773485052971     0.159500242738     1.007825032230
         H           -2.502749656238    -1.055651052971     1.450626242738     1.007825032230
         H           -3.773553656238    -0.104335052971     0.670796242738     1.007825032230
         H            0.435565343762     2.033110947029     0.364154242738     1.007825032230
         H            4.000851343762    -0.873648052971     0.445544242738     1.007825032230
         H            2.606105343762    -1.867995052971    -0.024716757262     1.007825032230
         H            3.253731343762    -0.663811052971    -1.153629757262     1.007825032230

  Basis Set: AUG-CC-PVTZ
    Blend: AUG-CC-PVTZ
  Basis Set: (AUG-CC-PVTZ AUX)
    Blend: AUG-CC-PVTZ-JKFIT
	 Reference Energy          =    -309.1411203944126100 [Eh]
	 Singles Energy            =      -0.0000000000000000 [Eh]
	 Same-Spin Energy          =      -0.3136804694504603 [Eh]
	 Opposite-Spin Energy      =      -1.0988231717942174 [Eh]
	 Correlation Energy        =      -1.4125036412446776 [Eh]
	 Total Energy              =    -310.5536240356572648 [Eh]

	 ================> DF-SCS-MP2 Energies <==================
	-----------------------------------------------------------
	 SCS Same-Spin Scale       =       0.3333333333333333 [-]
	 SCS Opposite-Spin Scale   =       1.2000000000000000 [-]
	 SCS Same-Spin Energy      =      -0.1045601564834868 [Eh]
	 SCS Opposite-Spin Energy  =      -1.3185878061530609 [Eh]
	 SCS Correlation Energy    =      -1.4231479626365477 [Eh]
	 SCS Total Energy          =    -310.5642683570491727 [Eh]
	-----------------------------------------------------------

  Dipole Moment: [D]
     X:     0.9118      Y:     0.3005      Z:     0.7257     Total:     1.2035

*** Psi4 exiting successfully. Buy a developer a beer!
