                               Psi4 1.3.2 release

  ==> Input File <==

--------------------------------------------------------------------------
#psi4
#
memory 32 gb

molecule  {
0 1
  O       -0.8411900    -0.2286010    -0.2822800
  C        2.0174600     0.2824600    -0.5354820
  C       -2.1232200    -0.2252560     0.3552070
  C        1.3918360    -0.8685520     0.1861030
  C        2.7655740     1.2103670     0.4230210
  C        0.0733200    -1.0572940     0.3167640
  C       -3.0226980     0.6919650    -0.4518750
  H        2.7782442    -0.1250831    -1.3616454
  H        1.2438280     0.8410150    -1.0636660
  H       -2.5250500    -1.2529680     0.3825710
  H       -2.0263210     0.1331820     1.3936400
  H        2.0399100    -1.6071390     0.6510050
  H        3.2481390     2.0275410    -0.1185540
  H        2.0757450     1.6393580     1.1523020
  H        3.5397370     0.6653480     0.9697790
  H       -0.3482160    -1.8932280     0.8773390
  H       -4.0255760     0.7295450    -0.0161740
  H       -2.6128620     1.7059100    -0.4684560
  H       -3.0981720     0.3293290    -1.4847820
units angstrom
no_reorient  #important for SAPT in psi4, default
symmetry c1  #important for SAPT in psi4, default
}

set PROPERTIES_ORIGIN ["COM"]
properties('MP2/aug-cc-pvtz', properties = ['dipole'])
--------------------------------------------------------------------------

    Molecular point group: c1
  Charge       = 0
  Multiplicity = 1
  Basis Set: AUG-CC-PVTZ
    Blend: AUG-CC-PVTZ
  Basis Set: (AUG-CC-PVTZ AUX)
    Blend: AUG-CC-PVTZ-JKFIT

    Orbital Energies [Eh]
    ---------------------

    Doubly Occupied:

       1A    -20.573003     2A    -11.286929     3A    -11.279194
       4A    -11.226934     5A    -11.221467     6A    -11.214562
       7A    -11.208593     8A     -1.393958     9A     -1.073779
      10A     -1.024348    11A     -0.966868    12A     -0.850075
      13A     -0.839876    14A     -0.752323    15A     -0.682709
      16A     -0.654670    17A     -0.643113    18A     -0.591470
      19A     -0.560871    20A     -0.557443    21A     -0.542819
      22A     -0.527980    23A     -0.509054    24A     -0.502284
      25A     -0.474483    26A     -0.470953    27A     -0.463482
      28A     -0.325690

  @DF-RHF Final Energy:  -309.13485831811852

   => Energetics <=

    Nuclear Repulsion Energy =            301.6837251291108828
    One-Electron Energy =               -1016.7993077042744972
    Two-Electron Energy =                 405.9807242570451535
    Total Energy =                       -309.1348583181185177
  Basis Set: (AUG-CC-PVTZ AUX)
    Blend: AUG-CC-PVTZ-RI
    Molecular point group: c1

    Geometry (in Angstrom), charge = 0, multiplicity = 1:

       Center              X                  Y                   Z               Mass
    ------------   -----------------  -----------------  -----------------  -----------------
         O           -0.841831156397    -0.228257507707    -0.281583789956    15.994914619570
         C            2.016818843603     0.282803492293    -0.534785789956    12.000000000000
         C           -2.123861156397    -0.224912507707     0.355903210044    12.000000000000
         C            1.391194843603    -0.868208507707     0.186799210044    12.000000000000
         C            2.764932843603     1.210710492293     0.423717210044    12.000000000000
         C            0.072678843603    -1.056950507707     0.317460210044    12.000000000000
         C           -3.023339156397     0.692308492293    -0.451178789956    12.000000000000
         H            2.777603043603    -0.124739607707    -1.360949189956     1.007825032230
         H            1.243186843603     0.841358492293    -1.062969789956     1.007825032230
         H           -2.525691156397    -1.252624507707     0.383267210044     1.007825032230
         H           -2.026962156397     0.133525492293     1.394336210044     1.007825032230
         H            2.039268843603    -1.606795507707     0.651701210044     1.007825032230
         H            3.247497843603     2.027884492293    -0.117857789956     1.007825032230
         H            2.075103843603     1.639701492293     1.152998210044     1.007825032230
         H            3.539095843603     0.665691492293     0.970475210044     1.007825032230
         H           -0.348857156397    -1.892884507707     0.878035210044     1.007825032230
         H           -4.026217156397     0.729888492293    -0.015477789956     1.007825032230
         H           -2.613503156397     1.706253492293    -0.467759789956     1.007825032230
         H           -3.098813156397     0.329672492293    -1.484085789956     1.007825032230

  Basis Set: AUG-CC-PVTZ
    Blend: AUG-CC-PVTZ
  Basis Set: (AUG-CC-PVTZ AUX)
    Blend: AUG-CC-PVTZ-JKFIT
	 Reference Energy          =    -309.1348583181185177 [Eh]
	 Singles Energy            =      -0.0000000000000000 [Eh]
	 Same-Spin Energy          =      -0.3137914955540042 [Eh]
	 Opposite-Spin Energy      =      -1.0998529499974767 [Eh]
	 Correlation Energy        =      -1.4136444455514809 [Eh]
	 Total Energy              =    -310.5485027636700011 [Eh]

	 ================> DF-SCS-MP2 Energies <==================
	-----------------------------------------------------------
	 SCS Same-Spin Scale       =       0.3333333333333333 [-]
	 SCS Opposite-Spin Scale   =       1.2000000000000000 [-]
	 SCS Same-Spin Energy      =      -0.1045971651846681 [Eh]
	 SCS Opposite-Spin Energy  =      -1.3198235399969720 [Eh]
	 SCS Correlation Energy    =      -1.4244207051816400 [Eh]
	 SCS Total Energy          =    -310.5592790233001779 [Eh]
	-----------------------------------------------------------

  Dipole Moment: [D]
     X:    -1.1595      Y:    -0.1756      Z:     0.7919     Total:     1.4151

*** Psi4 exiting successfully. Buy a developer a beer!
