                               Psi4 1.3.2 release

  ==> Input File <==

--------------------------------------------------------------------------
#psi4
#
memory 32 gb

molecule  {
0 1
  O       -0.8411900    -0.2286010    -0.2822800
  C        2.0174600     0.2824600    -0.5354820
  C       -2.1232200    -0.2252560     0.3552070
  C        1.4110155    -0.8497332     0.2308617
  C        2.7514630     1.1784626     0.4634339
  C        0.0733200    -1.0572940     0.3167640
  C       -3.0226980     0.6919650    -0.4518750
  H        2.7145670    -0.0909720    -1.2924960
  H        1.2438280     0.8410150    -1.0636660
  H       -2.5250500    -1.2529680     0.3825710
  H       -2.0263210     0.1331820     1.3936400
  H        2.0399100    -1.6071390     0.6510050
  H        3.2481390     2.0275410    -0.1185540
  H        2.0757450     1.6393580     1.1523020
  H        3.5397370     0.6653480     0.9697790
  H       -0.3482160    -1.8932280     0.8773390
  H       -4.0255760     0.7295450    -0.0161740
  H       -2.6128620     1.7059100    -0.4684560
  H       -3.0981720     0.3293290    -1.4847820
units angstrom
no_reorient  #important for SAPT in psi4, default
symmetry c1  #important for SAPT in psi4, default
}

set PROPERTIES_ORIGIN ["COM"]
properties('MP2/aug-cc-pvtz', properties = ['dipole'])
--------------------------------------------------------------------------

    Molecular point group: c1
  Charge       = 0
  Multiplicity = 1
  Basis Set: AUG-CC-PVTZ
    Blend: AUG-CC-PVTZ
  Basis Set: (AUG-CC-PVTZ AUX)
    Blend: AUG-CC-PVTZ-JKFIT

    Orbital Energies [Eh]
    ---------------------

    Doubly Occupied:

       1A    -20.573389     2A    -11.286758     3A    -11.280390
       4A    -11.221349     5A    -11.215107     6A    -11.213970
       7A    -11.206906     8A     -1.393641     9A     -1.074115
      10A     -1.025645    11A     -0.963540    12A     -0.850902
      13A     -0.841047    14A     -0.757482    15A     -0.683456
      16A     -0.654762    17A     -0.643029    18A     -0.599215
      19A     -0.565525    20A     -0.554588    21A     -0.539890
      22A     -0.528424    23A     -0.512454    24A     -0.500387
      25A     -0.479637    26A     -0.474901    27A     -0.459372
      28A     -0.321759

  @DF-RHF Final Energy:  -309.13523463393483

   => Energetics <=

    Nuclear Repulsion Energy =            302.1480004283704943
    One-Electron Energy =               -1017.7231864637099079
    Two-Electron Energy =                 406.4399514014045280
    Total Energy =                       -309.1352346339348287
  Basis Set: (AUG-CC-PVTZ AUX)
    Blend: AUG-CC-PVTZ-RI
    Molecular point group: c1

    Geometry (in Angstrom), charge = 0, multiplicity = 1:

       Center              X                  Y                   Z               Mass
    ------------   -----------------  -----------------  -----------------  -----------------
         O           -0.841797651393    -0.227032104254    -0.292491599147    15.994914619570
         C            2.016852348607     0.284028895746    -0.545693599147    12.000000000000
         C           -2.123827651393    -0.223687104254     0.344995400853    12.000000000000
         C            1.410407848607    -0.848164304254     0.220650100853    12.000000000000
         C            2.750855348607     1.180031495746     0.453222300853    12.000000000000
         C            0.072712348607    -1.055725104254     0.306552400853    12.000000000000
         C           -3.023305651393     0.693533895746    -0.462086599147    12.000000000000
         H            2.713959348607    -0.089403104254    -1.302707599147     1.007825032230
         H            1.243220348607     0.842583895746    -1.073877599147     1.007825032230
         H           -2.525657651393    -1.251399104254     0.372359400853     1.007825032230
         H           -2.026928651393     0.134750895746     1.383428400853     1.007825032230
         H            2.039302348607    -1.605570104254     0.640793400853     1.007825032230
         H            3.247531348607     2.029109895746    -0.128765599147     1.007825032230
         H            2.075137348607     1.640926895746     1.142090400853     1.007825032230
         H            3.539129348607     0.666916895746     0.959567400853     1.007825032230
         H           -0.348823651393    -1.891659104254     0.867127400853     1.007825032230
         H           -4.026183651393     0.731113895746    -0.026385599147     1.007825032230
         H           -2.613469651393     1.707478895746    -0.478667599147     1.007825032230
         H           -3.098779651393     0.330897895746    -1.494993599147     1.007825032230

  Basis Set: AUG-CC-PVTZ
    Blend: AUG-CC-PVTZ
  Basis Set: (AUG-CC-PVTZ AUX)
    Blend: AUG-CC-PVTZ-JKFIT
	 Reference Energy          =    -309.1352346339348287 [Eh]
	 Singles Energy            =      -0.0000000000000000 [Eh]
	 Same-Spin Energy          =      -0.3142077043680199 [Eh]
	 Opposite-Spin Energy      =      -1.1000833631883848 [Eh]
	 Correlation Energy        =      -1.4142910675564049 [Eh]
	 Total Energy              =    -310.5495257014912340 [Eh]

	 ================> DF-SCS-MP2 Energies <==================
	-----------------------------------------------------------
	 SCS Same-Spin Scale       =       0.3333333333333333 [-]
	 SCS Opposite-Spin Scale   =       1.2000000000000000 [-]
	 SCS Same-Spin Energy      =      -0.1047359014560066 [Eh]
	 SCS Opposite-Spin Energy  =      -1.3201000358260617 [Eh]
	 SCS Correlation Energy    =      -1.4248359372820683 [Eh]
	 SCS Total Energy          =    -310.5600705712168974 [Eh]
	-----------------------------------------------------------

  Dipole Moment: [D]
     X:    -1.1247      Y:    -0.2462      Z:     0.6783     Total:     1.3363

*** Psi4 exiting successfully. Buy a developer a beer!
