                               Psi4 1.4a3.dev225

  ==> Input File <==

--------------------------------------------------------------------------
#psi4
#
memory 32 gb

molecule  {
0 1
  O        0.9059480     0.1295110    -0.3069180
  C       -1.9753050    -0.3336000    -0.5537270
  C        2.1190110     0.1892690     0.4520280
  C       -1.2965145     0.9855956    -0.1102922
  C       -2.9908880    -0.8293550     0.4787900
  C        0.0027760     1.1130440     0.0171530
  C        3.0576820    -0.8509900    -0.1177330
  H       -2.4824890    -0.1840060    -1.5158280
  H       -1.2045440    -1.0918590    -0.7184600
  H        2.5525890     1.1965710     0.3749050
  H        1.9047370    -0.0062780     1.5110790
  H       -1.9523440     1.7996160     0.0958850
  H       -3.4787570    -1.7495600     0.1429400
  H       -2.4987140    -1.0317260     1.4340660
  H       -3.7695180    -0.0804100     0.6542360
  H        0.4396010     2.0570360     0.3475940
  H        4.0048870    -0.8497230     0.4289840
  H        2.6101410    -1.8440700    -0.0412770
  H        3.2577670    -0.6398860    -1.1701900
units angstrom
no_reorient  #important for SAPT in psi4, default
symmetry c1  #important for SAPT in psi4, default
}

set PROPERTIES_ORIGIN ["COM"]
properties('MP2/aug-cc-pvtz', properties = ['dipole'])
--------------------------------------------------------------------------

    Molecular point group: c1
  Charge       = 0
  Multiplicity = 1
  Basis Set: AUG-CC-PVTZ
    Blend: AUG-CC-PVTZ
  Basis Set: (AUG-CC-PVTZ AUX)
    Blend: AUG-CC-PVTZ-JKFIT

    Orbital Energies [Eh]
    ---------------------

    Doubly Occupied:

       1A    -20.572270     2A    -11.284508     3A    -11.274583
       4A    -11.219587     5A    -11.218320     6A    -11.211473
       7A    -11.208483     8A     -1.392054     9A     -1.072230
      10A     -1.023943    11A     -0.972586    12A     -0.848748
      13A     -0.839552    14A     -0.756512    15A     -0.685601
      16A     -0.653216    17A     -0.642594    18A     -0.596160
      19A     -0.565975    20A     -0.559155    21A     -0.540665
      22A     -0.527713    23A     -0.506273    24A     -0.501272
      25A     -0.479593    26A     -0.471448    27A     -0.456185
      28A     -0.335011

  @DF-RHF Final Energy:  -309.14017469688463

   => Energetics <=

    Nuclear Repulsion Energy =            301.0219155028699447
    One-Electron Energy =               -1015.4927522954178585
    Two-Electron Energy =                 405.3306620956633424
    Total Energy =                       -309.1401746968846282
  Basis Set: (AUG-CC-PVTZ AUX)
    Blend: AUG-CC-PVTZ-RI
    Molecular point group: c1

    Geometry (in Angstrom), charge = 0, multiplicity = 1:

       Center              X                  Y                   Z               Mass
    ------------   -----------------  -----------------  -----------------  -----------------
         O            0.897253425581     0.100378719829    -0.293345191971    15.994914619570
         C           -1.983999574419    -0.362732280171    -0.540154191971    12.000000000000
         C            2.110316425581     0.160136719829     0.465600808029    12.000000000000
         C           -1.305209074419     0.956463319829    -0.096719391971    12.000000000000
         C           -2.999582574419    -0.858487280171     0.492362808029    12.000000000000
         C           -0.005918574419     1.083911719829     0.030725808029    12.000000000000
         C            3.048987425581    -0.880122280171    -0.104160191971    12.000000000000
         H           -2.491183574419    -0.213138280171    -1.502255191971     1.007825032230
         H           -1.213238574419    -1.120991280171    -0.704887191971     1.007825032230
         H            2.543894425581     1.167438719829     0.388477808029     1.007825032230
         H            1.896042425581    -0.035410280171     1.524651808029     1.007825032230
         H           -1.961038574419     1.770483719829     0.109457808029     1.007825032230
         H           -3.487451574419    -1.778692280171     0.156512808029     1.007825032230
         H           -2.507408574419    -1.060858280171     1.447638808029     1.007825032230
         H           -3.778212574419    -0.109542280171     0.667808808029     1.007825032230
         H            0.430906425581     2.027903719829     0.361166808029     1.007825032230
         H            3.996192425581    -0.878855280171     0.442556808029     1.007825032230
         H            2.601446425581    -1.873202280171    -0.027704191971     1.007825032230
         H            3.249072425581    -0.669018280171    -1.156617191971     1.007825032230

  Basis Set: AUG-CC-PVTZ
    Blend: AUG-CC-PVTZ
  Basis Set: (AUG-CC-PVTZ AUX)
    Blend: AUG-CC-PVTZ-JKFIT
	 Reference Energy          =    -309.1401746968846282 [Eh]
	 Singles Energy            =      -0.0000000000000000 [Eh]
	 Same-Spin Energy          =      -0.3130346723359497 [Eh]
	 Opposite-Spin Energy      =      -1.0980517597954038 [Eh]
	 Correlation Energy        =      -1.4110864321313534 [Eh]
	 Total Energy              =    -310.5512611290159839 [Eh]

	 ================> DF-SCS-MP2 Energies <==================
	-----------------------------------------------------------
	 SCS Same-Spin Scale       =       0.3333333333333333 [-]
	 SCS Opposite-Spin Scale   =       1.2000000000000000 [-]
	 SCS Same-Spin Energy      =      -0.1043448907786499 [Eh]
	 SCS Opposite-Spin Energy  =      -1.3176621117544844 [Eh]
	 SCS Correlation Energy    =      -1.4220070025331344 [Eh]
	 SCS Total Energy          =    -310.5621816994177493 [Eh]
	-----------------------------------------------------------

  Dipole Moment: [D]
     X:     1.0046      Y:     0.3112      Z:     0.7748     Total:     1.3063

*** Psi4 exiting successfully. Buy a developer a beer!
