                               Psi4 1.3.2 release

  ==> Input File <==

--------------------------------------------------------------------------
#psi4
#
memory 32 gb

molecule  {
0 1
  O       -0.8763187    -0.2550867    -0.2633775
  C        2.0174600     0.2824600    -0.5354820
  C       -2.1232200    -0.2252560     0.3552070
  C        1.3990429    -0.9060190     0.2130579
  C        2.7655740     1.2103670     0.4230210
  C        0.0733200    -1.0572940     0.3167640
  C       -3.0226980     0.6919650    -0.4518750
  H        2.7145670    -0.0909720    -1.2924960
  H        1.2438280     0.8410150    -1.0636660
  H       -2.5250500    -1.2529680     0.3825710
  H       -2.0263210     0.1331820     1.3936400
  H        2.0399100    -1.6071390     0.6510050
  H        3.2481390     2.0275410    -0.1185540
  H        2.0757450     1.6393580     1.1523020
  H        3.5397370     0.6653480     0.9697790
  H       -0.3482160    -1.8932280     0.8773390
  H       -4.0255760     0.7295450    -0.0161740
  H       -2.6128620     1.7059100    -0.4684560
  H       -3.0981720     0.3293290    -1.4847820
units angstrom
no_reorient  #important for SAPT in psi4, default
symmetry c1  #important for SAPT in psi4, default
}

set PROPERTIES_ORIGIN ["COM"]
properties('MP2/aug-cc-pvtz', properties = ['dipole'])
--------------------------------------------------------------------------

    Molecular point group: c1
  Charge       = 0
  Multiplicity = 1
  Basis Set: AUG-CC-PVTZ
    Blend: AUG-CC-PVTZ
  Basis Set: (AUG-CC-PVTZ AUX)
    Blend: AUG-CC-PVTZ-JKFIT

    Orbital Energies [Eh]
    ---------------------

    Doubly Occupied:

       1A    -20.573044     2A    -11.283313     3A    -11.281383
       4A    -11.220171     5A    -11.217789     6A    -11.214631
       7A    -11.207634     8A     -1.405010     9A     -1.073837
      10A     -1.024150    11A     -0.969301    12A     -0.853329
      13A     -0.838893    14A     -0.763628    15A     -0.686200
      16A     -0.657587    17A     -0.650031    18A     -0.596807
      19A     -0.567440    20A     -0.558791    21A     -0.541530
      22A     -0.535110    23A     -0.508078    24A     -0.496690
      25A     -0.477467    26A     -0.471097    27A     -0.457672
      28A     -0.329635

  @DF-RHF Final Energy:  -309.13934643759171

   => Energetics <=

    Nuclear Repulsion Energy =            302.0007662469682828
    One-Electron Energy =               -1017.3597312825779682
    Two-Electron Energy =                 406.2196185980179735
    Total Energy =                       -309.1393464375917119
  Basis Set: (AUG-CC-PVTZ AUX)
    Blend: AUG-CC-PVTZ-RI
    Molecular point group: c1

    Geometry (in Angstrom), charge = 0, multiplicity = 1:

       Center              X                  Y                   Z               Mass
    ------------   -----------------  -----------------  -----------------  -----------------
         O           -0.871568912031    -0.246362026557    -0.269630050113    15.994914619570
         C            2.022209787969     0.291184673443    -0.541734550113    12.000000000000
         C           -2.118470212031    -0.216531326557     0.348954449887    12.000000000000
         C            1.403792687969    -0.897294326557     0.206805349887    12.000000000000
         C            2.770323787969     1.219091673443     0.416768449887    12.000000000000
         C            0.078069787969    -1.048569326557     0.310511449887    12.000000000000
         C           -3.017948212031     0.700689673443    -0.458127550113    12.000000000000
         H            2.719316787969    -0.082247326557    -1.298748550113     1.007825032230
         H            1.248577787969     0.849739673443    -1.069918550113     1.007825032230
         H           -2.520300212031    -1.244243326557     0.376318449887     1.007825032230
         H           -2.021571212031     0.141906673443     1.387387449887     1.007825032230
         H            2.044659787969    -1.598414326557     0.644752449887     1.007825032230
         H            3.252888787969     2.036265673443    -0.124806550113     1.007825032230
         H            2.080494787969     1.648082673443     1.146049449887     1.007825032230
         H            3.544486787969     0.674072673443     0.963526449887     1.007825032230
         H           -0.343466212031    -1.884503326557     0.871086449887     1.007825032230
         H           -4.020826212031     0.738269673443    -0.022426550113     1.007825032230
         H           -2.608112212031     1.714634673443    -0.474708550113     1.007825032230
         H           -3.093422212031     0.338053673443    -1.491034550113     1.007825032230

  Basis Set: AUG-CC-PVTZ
    Blend: AUG-CC-PVTZ
  Basis Set: (AUG-CC-PVTZ AUX)
    Blend: AUG-CC-PVTZ-JKFIT
	 Reference Energy          =    -309.1393464375917119 [Eh]
	 Singles Energy            =      -0.0000000000000000 [Eh]
	 Same-Spin Energy          =      -0.3131566860129132 [Eh]
	 Opposite-Spin Energy      =      -1.0977827343314979 [Eh]
	 Correlation Energy        =      -1.4109394203444110 [Eh]
	 Total Energy              =    -310.5502858579361032 [Eh]

	 ================> DF-SCS-MP2 Energies <==================
	-----------------------------------------------------------
	 SCS Same-Spin Scale       =       0.3333333333333333 [-]
	 SCS Opposite-Spin Scale   =       1.2000000000000000 [-]
	 SCS Same-Spin Energy      =      -0.1043855620043044 [Eh]
	 SCS Opposite-Spin Energy  =      -1.3173392811977973 [Eh]
	 SCS Correlation Energy    =      -1.4217248432021017 [Eh]
	 SCS Total Energy          =    -310.5610712807938398 [Eh]
	-----------------------------------------------------------

  Dipole Moment: [D]
     X:    -0.9349      Y:    -0.1642      Z:     0.6770     Total:     1.1659

*** Psi4 exiting successfully. Buy a developer a beer!
