                               Psi4 1.3.2 release

  ==> Input File <==

--------------------------------------------------------------------------
#psi4
#
memory 32 gb

molecule  {
0 1
  O       -0.7864216    -0.1907752    -0.3092583
  C        2.0174600     0.2824600    -0.5354820
  C       -2.1232200    -0.2252560     0.3552070
  C        1.3780169    -0.8127969     0.1459794
  C        2.7655740     1.2103670     0.4230210
  C        0.0733200    -1.0572940     0.3167640
  C       -3.0226980     0.6919650    -0.4518750
  H        2.7145670    -0.0909720    -1.2924960
  H        1.2438280     0.8410150    -1.0636660
  H       -2.5250500    -1.2529680     0.3825710
  H       -2.0263210     0.1331820     1.3936400
  H        2.0399100    -1.6071390     0.6510050
  H        3.2481390     2.0275410    -0.1185540
  H        2.0757450     1.6393580     1.1523020
  H        3.5397370     0.6653480     0.9697790
  H       -0.3482160    -1.8932280     0.8773390
  H       -4.0255760     0.7295450    -0.0161740
  H       -2.6128620     1.7059100    -0.4684560
  H       -3.0981720     0.3293290    -1.4847820
units angstrom
no_reorient  #important for SAPT in psi4, default
symmetry c1  #important for SAPT in psi4, default
}

set PROPERTIES_ORIGIN ["COM"]
properties('MP2/aug-cc-pvtz', properties = ['dipole'])
--------------------------------------------------------------------------

    Molecular point group: c1
  Charge       = 0
  Multiplicity = 1
  Basis Set: AUG-CC-PVTZ
    Blend: AUG-CC-PVTZ
  Basis Set: (AUG-CC-PVTZ AUX)
    Blend: AUG-CC-PVTZ-JKFIT

    Orbital Energies [Eh]
    ---------------------

    Doubly Occupied:

       1A    -20.570859     2A    -11.291418     3A    -11.274686
       4A    -11.222648     5A    -11.212831     6A    -11.210149
       7A    -11.207286     8A     -1.377926     9A     -1.077661
      10A     -1.026723    11A     -0.962969    12A     -0.853443
      13A     -0.843747    14A     -0.741155    15A     -0.681197
      16A     -0.650369    17A     -0.634943    18A     -0.600510
      19A     -0.556866    20A     -0.551762    21A     -0.542385
      22A     -0.516183    23A     -0.510562    24A     -0.507690
      25A     -0.487630    26A     -0.475284    27A     -0.460013
      28A     -0.319769

  @DF-RHF Final Energy:  -309.12681767625685

   => Energetics <=

    Nuclear Repulsion Energy =            302.4119055131613436
    One-Electron Energy =               -1018.3401130892943911
    Two-Electron Energy =                 406.8013898998761420
    Total Energy =                       -309.1268176762568487
  Basis Set: (AUG-CC-PVTZ AUX)
    Blend: AUG-CC-PVTZ-RI
    Molecular point group: c1

    Geometry (in Angstrom), charge = 0, multiplicity = 1:

       Center              X                  Y                   Z               Mass
    ------------   -----------------  -----------------  -----------------  -----------------
         O           -0.793517135996    -0.203504693552    -0.300136490065    15.994914619570
         C            2.010364464004     0.269730506448    -0.526360190065    12.000000000000
         C           -2.130315535996    -0.237985493552     0.364328809935    12.000000000000
         C            1.370921364004    -0.825526393552     0.155101209935    12.000000000000
         C            2.758478464004     1.197637506448     0.432142809935    12.000000000000
         C            0.066224464004    -1.070023493552     0.325885809935    12.000000000000
         C           -3.029793535996     0.679235506448    -0.442753190065    12.000000000000
         H            2.707471464004    -0.103701493552    -1.283374190065     1.007825032230
         H            1.236732464004     0.828285506448    -1.054544190065     1.007825032230
         H           -2.532145535996    -1.265697493552     0.391692809935     1.007825032230
         H           -2.033416535996     0.120452506448     1.402761809935     1.007825032230
         H            2.032814464004    -1.619868493552     0.660126809935     1.007825032230
         H            3.241043464004     2.014811506448    -0.109432190065     1.007825032230
         H            2.068649464004     1.626628506448     1.161423809935     1.007825032230
         H            3.532641464004     0.652618506448     0.978900809935     1.007825032230
         H           -0.355311535996    -1.905957493552     0.886460809935     1.007825032230
         H           -4.032671535996     0.716815506448    -0.007052190065     1.007825032230
         H           -2.619957535996     1.693180506448    -0.459334190065     1.007825032230
         H           -3.105267535996     0.316599506448    -1.475660190065     1.007825032230

  Basis Set: AUG-CC-PVTZ
    Blend: AUG-CC-PVTZ
  Basis Set: (AUG-CC-PVTZ AUX)
    Blend: AUG-CC-PVTZ-JKFIT
	 Reference Energy          =    -309.1268176762568487 [Eh]
	 Singles Energy            =      -0.0000000000000000 [Eh]
	 Same-Spin Energy          =      -0.3153104098189818 [Eh]
	 Opposite-Spin Energy      =      -1.1024298933733769 [Eh]
	 Correlation Energy        =      -1.4177403031923588 [Eh]
	 Total Energy              =    -310.5445579794492232 [Eh]

	 ================> DF-SCS-MP2 Energies <==================
	-----------------------------------------------------------
	 SCS Same-Spin Scale       =       0.3333333333333333 [-]
	 SCS Opposite-Spin Scale   =       1.2000000000000000 [-]
	 SCS Same-Spin Energy      =      -0.1051034699396606 [Eh]
	 SCS Opposite-Spin Energy  =      -1.3229158720480523 [Eh]
	 SCS Correlation Energy    =      -1.4280193419877130 [Eh]
	 SCS Total Energy          =    -310.5548370182445410 [Eh]
	-----------------------------------------------------------

  Dipole Moment: [D]
     X:    -1.3454      Y:    -0.2022      Z:     0.7786     Total:     1.5675

*** Psi4 exiting successfully. Buy a developer a beer!
