                               Psi4 1.3.2 release

  ==> Input File <==

--------------------------------------------------------------------------
#psi4
#
memory 32 gb

molecule  {
0 1
  O       -0.8588963    -0.2417197    -0.2729186
  C        2.0174600     0.2824600    -0.5354820
  C       -2.1232200    -0.2252560     0.3552070
  C        1.3956408    -0.8872596     0.1995626
  C        2.7655740     1.2103670     0.4230210
  C        0.0733200    -1.0572940     0.3167640
  C       -3.0226980     0.6919650    -0.4518750
  H        2.7145670    -0.0909720    -1.2924960
  H        1.2438280     0.8410150    -1.0636660
  H       -2.5250500    -1.2529680     0.3825710
  H       -2.0263210     0.1331820     1.3936400
  H        2.0399100    -1.6071390     0.6510050
  H        3.2481390     2.0275410    -0.1185540
  H        2.0757450     1.6393580     1.1523020
  H        3.5397370     0.6653480     0.9697790
  H       -0.3482160    -1.8932280     0.8773390
  H       -4.0255760     0.7295450    -0.0161740
  H       -2.6128620     1.7059100    -0.4684560
  H       -3.0981720     0.3293290    -1.4847820
units angstrom
no_reorient  #important for SAPT in psi4, default
symmetry c1  #important for SAPT in psi4, default
}

set PROPERTIES_ORIGIN ["COM"]
properties('MP2/aug-cc-pvtz', properties = ['dipole'])
--------------------------------------------------------------------------

    Molecular point group: c1
  Charge       = 0
  Multiplicity = 1
  Basis Set: AUG-CC-PVTZ
    Blend: AUG-CC-PVTZ
  Basis Set: (AUG-CC-PVTZ AUX)
    Blend: AUG-CC-PVTZ-JKFIT

    Orbital Energies [Eh]
    ---------------------

    Doubly Occupied:

       1A    -20.572680     2A    -11.284844     3A    -11.279693
       4A    -11.220629     5A    -11.216250     6A    -11.213939
       7A    -11.207495     8A     -1.398972     9A     -1.074150
      10A     -1.024569    11A     -0.968037    12A     -0.852085
      13A     -0.840247    14A     -0.759139    15A     -0.684842
      16A     -0.655951    17A     -0.645973    18A     -0.597110
      19A     -0.563968    20A     -0.557901    21A     -0.541896
      22A     -0.531538    23A     -0.508809    24A     -0.499217
      25A     -0.477252    26A     -0.473166    27A     -0.461302
      28A     -0.327620

  @DF-RHF Final Energy:  -309.14126940738851

   => Energetics <=

    Nuclear Repulsion Energy =            302.0596249447287960
    One-Electron Energy =               -1017.5232413466931121
    Two-Electron Energy =                 406.3223469945758666
    Total Energy =                       -309.1412694073885064
  Basis Set: (AUG-CC-PVTZ AUX)
    Blend: AUG-CC-PVTZ-RI
    Molecular point group: c1

    Geometry (in Angstrom), charge = 0, multiplicity = 1:

       Center              X                  Y                   Z               Mass
    ------------   -----------------  -----------------  -----------------  -----------------
         O           -0.856522847493    -0.237380300013    -0.276028414535    15.994914619570
         C            2.019833452507     0.286799399987    -0.538591814535    12.000000000000
         C           -2.120846547493    -0.220916600013     0.352097185465    12.000000000000
         C            1.398014252507    -0.882920200013     0.196452785465    12.000000000000
         C            2.767947452507     1.214706399987     0.419911185465    12.000000000000
         C            0.075693452507    -1.052954600013     0.313654185465    12.000000000000
         C           -3.020324547493     0.696304399987    -0.454984814535    12.000000000000
         H            2.716940452507    -0.086632600013    -1.295605814535     1.007825032230
         H            1.246201452507     0.845354399987    -1.066775814535     1.007825032230
         H           -2.522676547493    -1.248628600013     0.379461185465     1.007825032230
         H           -2.023947547493     0.137521399987     1.390530185465     1.007825032230
         H            2.042283452507    -1.602799600013     0.647895185465     1.007825032230
         H            3.250512452507     2.031880399987    -0.121663814535     1.007825032230
         H            2.078118452507     1.643697399987     1.149192185465     1.007825032230
         H            3.542110452507     0.669687399987     0.966669185465     1.007825032230
         H           -0.345842547493    -1.888888600013     0.874229185465     1.007825032230
         H           -4.023202547493     0.733884399987    -0.019283814535     1.007825032230
         H           -2.610488547493     1.710249399987    -0.471565814535     1.007825032230
         H           -3.095798547493     0.333668399987    -1.487891814535     1.007825032230

  Basis Set: AUG-CC-PVTZ
    Blend: AUG-CC-PVTZ
  Basis Set: (AUG-CC-PVTZ AUX)
    Blend: AUG-CC-PVTZ-JKFIT
	 Reference Energy          =    -309.1412694073885064 [Eh]
	 Singles Energy            =      -0.0000000000000000 [Eh]
	 Same-Spin Energy          =      -0.3134544388734962 [Eh]
	 Opposite-Spin Energy      =      -1.0984095207612219 [Eh]
	 Correlation Energy        =      -1.4118639596347182 [Eh]
	 Total Energy              =    -310.5531333670232357 [Eh]

	 ================> DF-SCS-MP2 Energies <==================
	-----------------------------------------------------------
	 SCS Same-Spin Scale       =       0.3333333333333333 [-]
	 SCS Opposite-Spin Scale   =       1.2000000000000000 [-]
	 SCS Same-Spin Energy      =      -0.1044848129578321 [Eh]
	 SCS Opposite-Spin Energy  =      -1.3180914249134663 [Eh]
	 SCS Correlation Energy    =      -1.4225762378712985 [Eh]
	 SCS Total Energy          =    -310.5638456452597893 [Eh]
	-----------------------------------------------------------

  Dipole Moment: [D]
     X:    -1.0178      Y:    -0.1783      Z:     0.7024     Total:     1.2494

*** Psi4 exiting successfully. Buy a developer a beer!
