                               Psi4 1.4a3.dev225

  ==> Input File <==

--------------------------------------------------------------------------
#psi4
#
memory 32 gb

molecule  {
0 1
  O        0.9059480     0.1295110    -0.3069180
  C       -1.9753050    -0.3336000    -0.5537270
  C        2.1190110     0.1892690     0.4520280
  C       -1.3184330     0.9429980    -0.1246110
  C       -2.9908880    -0.8293550     0.4787900
  C       -0.0103699     1.1273596     0.0218699
  C        3.0576820    -0.8509900    -0.1177330
  H       -2.4824890    -0.1840060    -1.5158280
  H       -1.2045440    -1.0918590    -0.7184600
  H        2.5525890     1.1965710     0.3749050
  H        1.9047370    -0.0062780     1.5110790
  H       -1.9523440     1.7996160     0.0958850
  H       -3.4787570    -1.7495600     0.1429400
  H       -2.4987140    -1.0317260     1.4340660
  H       -3.7695180    -0.0804100     0.6542360
  H        0.4396010     2.0570360     0.3475940
  H        4.0048870    -0.8497230     0.4289840
  H        2.6101410    -1.8440700    -0.0412770
  H        3.2577670    -0.6398860    -1.1701900
units angstrom
no_reorient  #important for SAPT in psi4, default
symmetry c1  #important for SAPT in psi4, default
}

set PROPERTIES_ORIGIN ["COM"]
properties('MP2/aug-cc-pvtz', properties = ['dipole'])
--------------------------------------------------------------------------

    Molecular point group: c1
  Charge       = 0
  Multiplicity = 1
  Basis Set: AUG-CC-PVTZ
    Blend: AUG-CC-PVTZ
  Basis Set: (AUG-CC-PVTZ AUX)
    Blend: AUG-CC-PVTZ-JKFIT

    Orbital Energies [Eh]
    ---------------------

    Doubly Occupied:

       1A    -20.568856     2A    -11.282435     3A    -11.277139
       4A    -11.218329     5A    -11.217569     6A    -11.215687
       7A    -11.209791     8A     -1.383100     9A     -1.075695
      10A     -1.024169    11A     -0.969845    12A     -0.850652
      13A     -0.840739    14A     -0.754036    15A     -0.683786
      16A     -0.650765    17A     -0.638570    18A     -0.599429
      19A     -0.562520    20A     -0.559015    21A     -0.539079
      22A     -0.525375    23A     -0.509203    24A     -0.500376
      25A     -0.481678    26A     -0.472792    27A     -0.460224
      28A     -0.331636

  @DF-RHF Final Energy:  -309.14063557275261

   => Energetics <=

    Nuclear Repulsion Energy =            300.9898493135508488
    One-Electron Energy =               -1015.4559893131835224
    Two-Electron Energy =                 405.3255044268800589
    Total Energy =                       -309.1406355727526147
  Basis Set: (AUG-CC-PVTZ AUX)
    Blend: AUG-CC-PVTZ-RI
    Molecular point group: c1

    Geometry (in Angstrom), charge = 0, multiplicity = 1:

       Center              X                  Y                   Z               Mass
    ------------   -----------------  -----------------  -----------------  -----------------
         O            0.901457419803     0.103769548264    -0.292193986415    15.994914619570
         C           -1.979795580197    -0.359341451736    -0.539002986415    12.000000000000
         C            2.114520419803     0.163527548264     0.466752013585    12.000000000000
         C           -1.322923580197     0.917256548264    -0.109886986415    12.000000000000
         C           -2.995378580197    -0.855096451736     0.493514013585    12.000000000000
         C           -0.014860480197     1.101618148264     0.036593913585    12.000000000000
         C            3.053191419803    -0.876731451736    -0.103008986415    12.000000000000
         H           -2.486979580197    -0.209747451736    -1.501103986415     1.007825032230
         H           -1.209034580197    -1.117600451736    -0.703735986415     1.007825032230
         H            2.548098419803     1.170829548264     0.389629013585     1.007825032230
         H            1.900246419803    -0.032019451736     1.525803013585     1.007825032230
         H           -1.956834580197     1.773874548264     0.110609013585     1.007825032230
         H           -3.483247580197    -1.775301451736     0.157664013585     1.007825032230
         H           -2.503204580197    -1.057467451736     1.448790013585     1.007825032230
         H           -3.774008580197    -0.106151451736     0.668960013585     1.007825032230
         H            0.435110419803     2.031294548264     0.362318013585     1.007825032230
         H            4.000396419803    -0.875464451736     0.443708013585     1.007825032230
         H            2.605650419803    -1.869811451736    -0.026552986415     1.007825032230
         H            3.253276419803    -0.665627451736    -1.155465986415     1.007825032230

  Basis Set: AUG-CC-PVTZ
    Blend: AUG-CC-PVTZ
  Basis Set: (AUG-CC-PVTZ AUX)
    Blend: AUG-CC-PVTZ-JKFIT
	 Reference Energy          =    -309.1406355727526147 [Eh]
	 Singles Energy            =      -0.0000000000000000 [Eh]
	 Same-Spin Energy          =      -0.3136238517714525 [Eh]
	 Opposite-Spin Energy      =      -1.0991272838104658 [Eh]
	 Correlation Energy        =      -1.4127511355819182 [Eh]
	 Total Energy              =    -310.5533867083345285 [Eh]

	 ================> DF-SCS-MP2 Energies <==================
	-----------------------------------------------------------
	 SCS Same-Spin Scale       =       0.3333333333333333 [-]
	 SCS Opposite-Spin Scale   =       1.2000000000000000 [-]
	 SCS Same-Spin Energy      =      -0.1045412839238175 [Eh]
	 SCS Opposite-Spin Energy  =      -1.3189527405725590 [Eh]
	 SCS Correlation Energy    =      -1.4234940244963765 [Eh]
	 SCS Total Energy          =    -310.5641295972490070 [Eh]
	-----------------------------------------------------------

  Dipole Moment: [D]
     X:     0.8890      Y:     0.3368      Z:     0.7682     Total:     1.2222

*** Psi4 exiting successfully. Buy a developer a beer!
