                               Psi4 1.3.2 release

  ==> Input File <==

--------------------------------------------------------------------------
#psi4
#
memory 32 gb

molecule  {
0 1
  O       -0.8411900    -0.2286010    -0.2822800
  C        2.0174600     0.2824600    -0.5354820
  C       -2.1232200    -0.2252560     0.3552070
  C        1.3849882    -0.8601778     0.1934057
  C        2.7655740     1.2103670     0.4230210
  C        0.0733200    -1.0572940     0.3167640
  C       -3.0226980     0.6919650    -0.4518750
  H        2.7166048    -0.0819792    -1.2949953
  H        1.2438280     0.8410150    -1.0636660
  H       -2.5250500    -1.2529680     0.3825710
  H       -2.0263210     0.1331820     1.3936400
  H        2.0399100    -1.6071390     0.6510050
  H        3.2481390     2.0275410    -0.1185540
  H        2.0757450     1.6393580     1.1523020
  H        3.5397370     0.6653480     0.9697790
  H       -0.3482160    -1.8932280     0.8773390
  H       -4.0255760     0.7295450    -0.0161740
  H       -2.6128620     1.7059100    -0.4684560
  H       -3.0981720     0.3293290    -1.4847820
units angstrom
no_reorient  #important for SAPT in psi4, default
symmetry c1  #important for SAPT in psi4, default
}

set PROPERTIES_ORIGIN ["COM"]
properties('MP2/aug-cc-pvtz', properties = ['dipole'])
--------------------------------------------------------------------------

    Molecular point group: c1
  Charge       = 0
  Multiplicity = 1
  Basis Set: AUG-CC-PVTZ
    Blend: AUG-CC-PVTZ
  Basis Set: (AUG-CC-PVTZ AUX)
    Blend: AUG-CC-PVTZ-JKFIT

    Orbital Energies [Eh]
    ---------------------

    Doubly Occupied:

       1A    -20.571886     2A    -11.286273     3A    -11.277315
       4A    -11.221006     5A    -11.214814     6A    -11.213199
       7A    -11.207242     8A     -1.393074     9A     -1.075316
      10A     -1.024980    11A     -0.967613    12A     -0.851137
      13A     -0.841489    14A     -0.754008    15A     -0.684017
      16A     -0.654457    17A     -0.642150    18A     -0.598312
      19A     -0.560109    20A     -0.556992    21A     -0.542126
      22A     -0.526794    23A     -0.509330    24A     -0.501513
      25A     -0.479947    26A     -0.472990    27A     -0.463017
      28A     -0.327071

  @DF-RHF Final Energy:  -309.14100006122942

   => Energetics <=

    Nuclear Repulsion Energy =            302.2498935685494530
    One-Electron Energy =               -1017.9454348841679803
    Two-Electron Energy =                 406.5545412543891644
    Total Energy =                       -309.1410000612294198
  Basis Set: (AUG-CC-PVTZ AUX)
    Blend: AUG-CC-PVTZ-RI
    Molecular point group: c1

    Geometry (in Angstrom), charge = 0, multiplicity = 1:

       Center              X                  Y                   Z               Mass
    ------------   -----------------  -----------------  -----------------  -----------------
         O           -0.840389483516    -0.229695546407    -0.283130456675    15.994914619570
         C            2.018260516484     0.281365453593    -0.536332456675    12.000000000000
         C           -2.122419483516    -0.226350546407     0.354356543325    12.000000000000
         C            1.385788716484    -0.861272346407     0.192555243325    12.000000000000
         C            2.766374516484     1.209272453593     0.422170543325    12.000000000000
         C            0.074120516484    -1.058388546407     0.315913543325    12.000000000000
         C           -3.021897483516     0.690870453593    -0.452725456675    12.000000000000
         H            2.717405316484    -0.083073746407    -1.295845756675     1.007825032230
         H            1.244628516484     0.839920453593    -1.064516456675     1.007825032230
         H           -2.524249483516    -1.254062546407     0.381720543325     1.007825032230
         H           -2.025520483516     0.132087453593     1.392789543325     1.007825032230
         H            2.040710516484    -1.608233546407     0.650154543325     1.007825032230
         H            3.248939516484     2.026446453593    -0.119404456675     1.007825032230
         H            2.076545516484     1.638263453593     1.151451543325     1.007825032230
         H            3.540537516484     0.664253453593     0.968928543325     1.007825032230
         H           -0.347415483516    -1.894322546407     0.876488543325     1.007825032230
         H           -4.024775483516     0.728450453593    -0.017024456675     1.007825032230
         H           -2.612061483516     1.704815453593    -0.469306456675     1.007825032230
         H           -3.097371483516     0.328234453593    -1.485632456675     1.007825032230

  Basis Set: AUG-CC-PVTZ
    Blend: AUG-CC-PVTZ
  Basis Set: (AUG-CC-PVTZ AUX)
    Blend: AUG-CC-PVTZ-JKFIT
	 Reference Energy          =    -309.1410000612294198 [Eh]
	 Singles Energy            =      -0.0000000000000000 [Eh]
	 Same-Spin Energy          =      -0.3137685908041251 [Eh]
	 Opposite-Spin Energy      =      -1.0990518805640743 [Eh]
	 Correlation Energy        =      -1.4128204713681995 [Eh]
	 Total Energy              =    -310.5538205325976264 [Eh]

	 ================> DF-SCS-MP2 Energies <==================
	-----------------------------------------------------------
	 SCS Same-Spin Scale       =       0.3333333333333333 [-]
	 SCS Opposite-Spin Scale   =       1.2000000000000000 [-]
	 SCS Same-Spin Energy      =      -0.1045895302680417 [Eh]
	 SCS Opposite-Spin Energy  =      -1.3188622566768891 [Eh]
	 SCS Correlation Energy    =      -1.4234517869449308 [Eh]
	 SCS Total Energy          =    -310.5644518481743717 [Eh]
	-----------------------------------------------------------

  Dipole Moment: [D]
     X:    -1.0929      Y:    -0.1993      Z:     0.7125     Total:     1.3198

*** Psi4 exiting successfully. Buy a developer a beer!
