                               Psi4 1.3.2 release

  ==> Input File <==

--------------------------------------------------------------------------
#psi4
#
memory 32 gb

molecule  {
0 1
  O       -0.8411900    -0.2286010    -0.2822800
  C        2.0174600     0.2824600    -0.5354820
  C       -2.1232200    -0.2252560     0.3552070
  C        1.3918360    -0.8685520     0.1861030
  C        2.7655740     1.2103670     0.4230210
  C        0.0733200    -1.0572940     0.3167640
  C       -3.0226980     0.6919650    -0.4518750
  H        2.7145670    -0.0909720    -1.2924960
  H        1.2438280     0.8410150    -1.0636660
  H       -2.5250500    -1.2529680     0.3825710
  H       -2.0263210     0.1331820     1.3936400
  H        2.0399100    -1.6071390     0.6510050
  H        3.2481390     2.0275410    -0.1185540
  H        2.0757450     1.6393580     1.1523020
  H        3.5397370     0.6653480     0.9697790
  H       -0.3868464    -1.9698347     0.9287112
  H       -4.0255760     0.7295450    -0.0161740
  H       -2.6128620     1.7059100    -0.4684560
  H       -3.0981720     0.3293290    -1.4847820
units angstrom
no_reorient  #important for SAPT in psi4, default
symmetry c1  #important for SAPT in psi4, default
}

set PROPERTIES_ORIGIN ["COM"]
properties('MP2/aug-cc-pvtz', properties = ['dipole'])
--------------------------------------------------------------------------

    Molecular point group: c1
  Charge       = 0
  Multiplicity = 1
  Basis Set: AUG-CC-PVTZ
    Blend: AUG-CC-PVTZ
  Basis Set: (AUG-CC-PVTZ AUX)
    Blend: AUG-CC-PVTZ-JKFIT

    Orbital Energies [Eh]
    ---------------------

    Doubly Occupied:

       1A    -20.574467     2A    -11.289285     3A    -11.286670
       4A    -11.221252     5A    -11.215544     6A    -11.214256
       7A    -11.207740     8A     -1.394352     9A     -1.074652
      10A     -1.025251    11A     -0.965281    12A     -0.851071
      13A     -0.838149    14A     -0.750983    15A     -0.676269
      16A     -0.649491    17A     -0.642908    18A     -0.598028
      19A     -0.561169    20A     -0.554892    21A     -0.540506
      22A     -0.527546    23A     -0.508993    24A     -0.502080
      25A     -0.477555    26A     -0.474066    27A     -0.461918
      28A     -0.326360

  @DF-RHF Final Energy:  -309.13342721600901

   => Energetics <=

    Nuclear Repulsion Energy =            301.6660466281186928
    One-Electron Energy =               -1016.7774780193445849
    Two-Electron Energy =                 405.9780041752168813
    Total Energy =                       -309.1334272160090109
  Basis Set: (AUG-CC-PVTZ AUX)
    Blend: AUG-CC-PVTZ-RI
    Molecular point group: c1

    Geometry (in Angstrom), charge = 0, multiplicity = 1:

       Center              X                  Y                   Z               Mass
    ------------   -----------------  -----------------  -----------------  -----------------
         O           -0.840800989737    -0.227829606453    -0.282797358978    15.994914619570
         C            2.017849010263     0.283231393547    -0.535999358978    12.000000000000
         C           -2.122830989737    -0.224484606453     0.354689641022    12.000000000000
         C            1.392225010263    -0.867780606453     0.185585641022    12.000000000000
         C            2.765963010263     1.211138393547     0.422503641022    12.000000000000
         C            0.073709010263    -1.056522606453     0.316246641022    12.000000000000
         C           -3.022308989737     0.692736393547    -0.452392358978    12.000000000000
         H            2.714956010263    -0.090200606453    -1.293013358978     1.007825032230
         H            1.244217010263     0.841786393547    -1.064183358978     1.007825032230
         H           -2.524660989737    -1.252196606453     0.382053641022     1.007825032230
         H           -2.025931989737     0.133953393547     1.393122641022     1.007825032230
         H            2.040299010263    -1.606367606453     0.650487641022     1.007825032230
         H            3.248528010263     2.028312393547    -0.119071358978     1.007825032230
         H            2.076134010263     1.640129393547     1.151784641022     1.007825032230
         H            3.540126010263     0.666119393547     0.969261641022     1.007825032230
         H           -0.386457389737    -1.969063306453     0.928193841022     1.007825032230
         H           -4.025186989737     0.730316393547    -0.016691358978     1.007825032230
         H           -2.612472989737     1.706681393547    -0.468973358978     1.007825032230
         H           -3.097782989737     0.330100393547    -1.485299358978     1.007825032230

  Basis Set: AUG-CC-PVTZ
    Blend: AUG-CC-PVTZ
  Basis Set: (AUG-CC-PVTZ AUX)
    Blend: AUG-CC-PVTZ-JKFIT
	 Reference Energy          =    -309.1334272160090109 [Eh]
	 Singles Energy            =      -0.0000000000000000 [Eh]
	 Same-Spin Energy          =      -0.3141820514796408 [Eh]
	 Opposite-Spin Energy      =      -1.1002620614223151 [Eh]
	 Correlation Energy        =      -1.4144441129019558 [Eh]
	 Total Energy              =    -310.5478713289109578 [Eh]

	 ================> DF-SCS-MP2 Energies <==================
	-----------------------------------------------------------
	 SCS Same-Spin Scale       =       0.3333333333333333 [-]
	 SCS Opposite-Spin Scale   =       1.2000000000000000 [-]
	 SCS Same-Spin Energy      =      -0.1047273504932136 [Eh]
	 SCS Opposite-Spin Energy  =      -1.3203144737067780 [Eh]
	 SCS Correlation Energy    =      -1.4250418241999916 [Eh]
	 SCS Total Energy          =    -310.5584690402089905 [Eh]
	-----------------------------------------------------------

  Dipole Moment: [D]
     X:    -1.0922      Y:    -0.1348      Z:     0.6982     Total:     1.3033

*** Psi4 exiting successfully. Buy a developer a beer!
