                               Psi4 1.3.2 release

  ==> Input File <==

--------------------------------------------------------------------------
#psi4
#
memory 32 gb

molecule  {
0 1
  O       -0.8411900    -0.2286010    -0.2822800
  C        2.0174600     0.2824600    -0.5354820
  C       -2.1232200    -0.2252560     0.3552070
  C        1.3647357    -0.8345355     0.2149785
  C        2.7655740     1.2103670     0.4230210
  C        0.0733200    -1.0572940     0.3167640
  C       -3.0226980     0.6919650    -0.4518750
  H        2.7223982    -0.0548372    -1.3021453
  H        1.2438280     0.8410150    -1.0636660
  H       -2.5250500    -1.2529680     0.3825710
  H       -2.0263210     0.1331820     1.3936400
  H        2.0399100    -1.6071390     0.6510050
  H        3.2481390     2.0275410    -0.1185540
  H        2.0757450     1.6393580     1.1523020
  H        3.5397370     0.6653480     0.9697790
  H       -0.3482160    -1.8932280     0.8773390
  H       -4.0255760     0.7295450    -0.0161740
  H       -2.6128620     1.7059100    -0.4684560
  H       -3.0981720     0.3293290    -1.4847820
units angstrom
no_reorient  #important for SAPT in psi4, default
symmetry c1  #important for SAPT in psi4, default
}

set PROPERTIES_ORIGIN ["COM"]
properties('MP2/aug-cc-pvtz', properties = ['dipole'])
--------------------------------------------------------------------------

    Molecular point group: c1
  Charge       = 0
  Multiplicity = 1
  Basis Set: AUG-CC-PVTZ
    Blend: AUG-CC-PVTZ
  Basis Set: (AUG-CC-PVTZ AUX)
    Blend: AUG-CC-PVTZ-JKFIT

    Orbital Energies [Eh]
    ---------------------

    Doubly Occupied:

       1A    -20.570820     2A    -11.285890     3A    -11.275021
       4A    -11.220767     5A    -11.215055     6A    -11.212908
       7A    -11.206773     8A     -1.392747     9A     -1.077269
      10A     -1.024885    11A     -0.970079    12A     -0.850239
      13A     -0.841562    14A     -0.752531    15A     -0.684882
      16A     -0.654584    17A     -0.641305    18A     -0.600182
      19A     -0.559695    20A     -0.555654    21A     -0.541840
      22A     -0.525066    23A     -0.508444    24A     -0.501055
      25A     -0.482697    26A     -0.471580    27A     -0.459867
      28A     -0.331324

  @DF-RHF Final Energy:  -309.13944711750628

   => Energetics <=

    Nuclear Repulsion Energy =            302.6032114934715196
    One-Electron Energy =               -1018.6558729657039066
    Two-Electron Energy =                 406.9132143547260512
    Total Energy =                       -309.1394471175062790
  Basis Set: (AUG-CC-PVTZ AUX)
    Blend: AUG-CC-PVTZ-RI
    Molecular point group: c1

    Geometry (in Angstrom), charge = 0, multiplicity = 1:

       Center              X                  Y                   Z               Mass
    ------------   -----------------  -----------------  -----------------  -----------------
         O           -0.838019675596    -0.233043193064    -0.285644899983    15.994914619570
         C            2.020630324404     0.278017806936    -0.538846899983    12.000000000000
         C           -2.120049675596    -0.229698193064     0.351842100017    12.000000000000
         C            1.367906024404    -0.838977693064     0.211613600017    12.000000000000
         C            2.768744324404     1.205924806936     0.419656100017    12.000000000000
         C            0.076490324404    -1.061736193064     0.313399100017    12.000000000000
         C           -3.019527675596     0.687522806936    -0.455239899983    12.000000000000
         H            2.725568524404    -0.059279393064    -1.305510199983     1.007825032230
         H            1.246998324404     0.836572806936    -1.067030899983     1.007825032230
         H           -2.521879675596    -1.257410193064     0.379206100017     1.007825032230
         H           -2.023150675596     0.128739806936     1.390275100017     1.007825032230
         H            2.043080324404    -1.611581193064     0.647640100017     1.007825032230
         H            3.251309324404     2.023098806936    -0.121918899983     1.007825032230
         H            2.078915324404     1.634915806936     1.148937100017     1.007825032230
         H            3.542907324404     0.660905806936     0.966414100017     1.007825032230
         H           -0.345045675596    -1.897670193064     0.873974100017     1.007825032230
         H           -4.022405675596     0.725102806936    -0.019538899983     1.007825032230
         H           -2.609691675596     1.701467806936    -0.471820899983     1.007825032230
         H           -3.095001675596     0.324886806936    -1.488146899983     1.007825032230

  Basis Set: AUG-CC-PVTZ
    Blend: AUG-CC-PVTZ
  Basis Set: (AUG-CC-PVTZ AUX)
    Blend: AUG-CC-PVTZ-JKFIT
	 Reference Energy          =    -309.1394471175062790 [Eh]
	 Singles Energy            =      -0.0000000000000000 [Eh]
	 Same-Spin Energy          =      -0.3136892760724231 [Eh]
	 Opposite-Spin Energy      =      -1.0988017947214912 [Eh]
	 Correlation Energy        =      -1.4124910707939144 [Eh]
	 Total Energy              =    -310.5519381883001984 [Eh]

	 ================> DF-SCS-MP2 Energies <==================
	-----------------------------------------------------------
	 SCS Same-Spin Scale       =       0.3333333333333333 [-]
	 SCS Opposite-Spin Scale   =       1.2000000000000000 [-]
	 SCS Same-Spin Energy      =      -0.1045630920241410 [Eh]
	 SCS Opposite-Spin Energy  =      -1.3185621536657894 [Eh]
	 SCS Correlation Energy    =      -1.4231252456899304 [Eh]
	 SCS Total Energy          =    -310.5625723631961819 [Eh]
	-----------------------------------------------------------

  Dipole Moment: [D]
     X:    -1.0772      Y:    -0.2270      Z:     0.6734     Total:     1.2905

*** Psi4 exiting successfully. Buy a developer a beer!
