                               Psi4 1.3.2 release

  ==> Input File <==

--------------------------------------------------------------------------
#psi4
#
memory 32 gb

molecule  {
0 1
  O       -0.8385648    -0.1791843    -0.2753008
  C        2.0174600     0.2824600    -0.5354820
  C       -2.1232200    -0.2252560     0.3552070
  C        1.3918360    -0.8685520     0.1861030
  C        2.7655740     1.2103670     0.4230210
  C        0.0733200    -1.0572940     0.3167640
  C       -3.0226980     0.6919650    -0.4518750
  H        2.7145670    -0.0909720    -1.2924960
  H        1.2438280     0.8410150    -1.0636660
  H       -2.5564285    -1.2395018     0.4004174
  H       -2.0263210     0.1331820     1.3936400
  H        2.0399100    -1.6071390     0.6510050
  H        3.2481390     2.0275410    -0.1185540
  H        2.0757450     1.6393580     1.1523020
  H        3.5397370     0.6653480     0.9697790
  H       -0.3482160    -1.8932280     0.8773390
  H       -4.0255760     0.7295450    -0.0161740
  H       -2.6128620     1.7059100    -0.4684560
  H       -3.0981720     0.3293290    -1.4847820
units angstrom
no_reorient  #important for SAPT in psi4, default
symmetry c1  #important for SAPT in psi4, default
}

set PROPERTIES_ORIGIN ["COM"]
properties('MP2/aug-cc-pvtz', properties = ['dipole'])
--------------------------------------------------------------------------

    Molecular point group: c1
  Charge       = 0
  Multiplicity = 1
  Basis Set: AUG-CC-PVTZ
    Blend: AUG-CC-PVTZ
  Basis Set: (AUG-CC-PVTZ AUX)
    Blend: AUG-CC-PVTZ-JKFIT

    Orbital Energies [Eh]
    ---------------------

    Doubly Occupied:

       1A    -20.573217     2A    -11.284316     3A    -11.279840
       4A    -11.218754     5A    -11.216313     6A    -11.215388
       7A    -11.208114     8A     -1.385000     9A     -1.075247
      10A     -1.022607    11A     -0.967784    12A     -0.849571
      13A     -0.841031    14A     -0.752992    15A     -0.680796
      16A     -0.654109    17A     -0.640361    18A     -0.596967
      19A     -0.560823    20A     -0.554687    21A     -0.540703
      22A     -0.524811    23A     -0.509994    24A     -0.500969
      25A     -0.480157    26A     -0.471728    27A     -0.465480
      28A     -0.328542

  @DF-RHF Final Energy:  -309.13835444922972

   => Energetics <=

    Nuclear Repulsion Energy =            301.8479295110972203
    One-Electron Energy =               -1017.1719646134766890
    Two-Electron Energy =                 406.1856806531496886
    Total Energy =                       -309.1383544492297233
  Basis Set: (AUG-CC-PVTZ AUX)
    Blend: AUG-CC-PVTZ-RI
    Molecular point group: c1

    Geometry (in Angstrom), charge = 0, multiplicity = 1:

       Center              X                  Y                   Z               Mass
    ------------   -----------------  -----------------  -----------------  -----------------
         O           -0.838668337243    -0.187217023282    -0.276595903901    15.994914619570
         C            2.017356462757     0.274427276718    -0.536777103901    12.000000000000
         C           -2.123323537243    -0.233288723282     0.353911896099    12.000000000000
         C            1.391732462757    -0.876584723282     0.184807896099    12.000000000000
         C            2.765470462757     1.202334276718     0.421725896099    12.000000000000
         C            0.073216462757    -1.065326723282     0.315468896099    12.000000000000
         C           -3.022801537243     0.683932276718    -0.453170103901    12.000000000000
         H            2.714463462757    -0.099004723282    -1.293791103901     1.007825032230
         H            1.243724462757     0.832982276718    -1.064961103901     1.007825032230
         H           -2.556532037243    -1.247534523282     0.399122296099     1.007825032230
         H           -2.026424537243     0.125149276718     1.392344896099     1.007825032230
         H            2.039806462757    -1.615171723282     0.649709896099     1.007825032230
         H            3.248035462757     2.019508276718    -0.119849103901     1.007825032230
         H            2.075641462757     1.631325276718     1.151006896099     1.007825032230
         H            3.539633462757     0.657315276718     0.968483896099     1.007825032230
         H           -0.348319537243    -1.901260723282     0.876043896099     1.007825032230
         H           -4.025679537243     0.721512276718    -0.017469103901     1.007825032230
         H           -2.612965537243     1.697877276718    -0.469751103901     1.007825032230
         H           -3.098275537243     0.321296276718    -1.486077103901     1.007825032230

  Basis Set: AUG-CC-PVTZ
    Blend: AUG-CC-PVTZ
  Basis Set: (AUG-CC-PVTZ AUX)
    Blend: AUG-CC-PVTZ-JKFIT
	 Reference Energy          =    -309.1383544492297233 [Eh]
	 Singles Energy            =      -0.0000000000000000 [Eh]
	 Same-Spin Energy          =      -0.3140081528655405 [Eh]
	 Opposite-Spin Energy      =      -1.1000839846618895 [Eh]
	 Correlation Energy        =      -1.4140921375274300 [Eh]
	 Total Energy              =    -310.5524465867571280 [Eh]

	 ================> DF-SCS-MP2 Energies <==================
	-----------------------------------------------------------
	 SCS Same-Spin Scale       =       0.3333333333333333 [-]
	 SCS Opposite-Spin Scale   =       1.2000000000000000 [-]
	 SCS Same-Spin Energy      =      -0.1046693842885135 [Eh]
	 SCS Opposite-Spin Energy  =      -1.3201007815942674 [Eh]
	 SCS Correlation Energy    =      -1.4247701658827809 [Eh]
	 SCS Total Energy          =    -310.5631246151124856 [Eh]
	-----------------------------------------------------------

  Dipole Moment: [D]
     X:    -0.9661      Y:    -0.3062      Z:     0.7494     Total:     1.2604

*** Psi4 exiting successfully. Buy a developer a beer!
