                               Psi4 1.3.2 release

  ==> Input File <==

--------------------------------------------------------------------------
#psi4
#
memory 32 gb

molecule  {
0 1
  O       -0.8411900    -0.2286010    -0.2822800
  C        2.0876976     0.2527476    -0.5177313
  C       -2.1232200    -0.2252560     0.3552070
  C        1.3918360    -0.8685520     0.1861030
  C        2.7655740     1.2103670     0.4230210
  C        0.0871258    -1.1157035     0.3529196
  C       -3.0226980     0.6919650    -0.4518750
  H        2.7145670    -0.0909720    -1.2924960
  H        1.2438280     0.8410150    -1.0636660
  H       -2.5250500    -1.2529680     0.3825710
  H       -2.0263210     0.1331820     1.3936400
  H        2.0399100    -1.6071390     0.6510050
  H        3.2481390     2.0275410    -0.1185540
  H        2.0757450     1.6393580     1.1523020
  H        3.5397370     0.6653480     0.9697790
  H       -0.3482160    -1.8932280     0.8773390
  H       -4.0255760     0.7295450    -0.0161740
  H       -2.6128620     1.7059100    -0.4684560
  H       -3.0981720     0.3293290    -1.4847820
units angstrom
no_reorient  #important for SAPT in psi4, default
symmetry c1  #important for SAPT in psi4, default
}

set PROPERTIES_ORIGIN ["COM"]
properties('MP2/aug-cc-pvtz', properties = ['dipole'])
--------------------------------------------------------------------------

    Molecular point group: c1
  Charge       = 0
  Multiplicity = 1
  Basis Set: AUG-CC-PVTZ
    Blend: AUG-CC-PVTZ
  Basis Set: (AUG-CC-PVTZ AUX)
    Blend: AUG-CC-PVTZ-JKFIT

    Orbital Energies [Eh]
    ---------------------

    Doubly Occupied:

       1A    -20.564614     2A    -11.280579     3A    -11.278272
       4A    -11.221191     5A    -11.220361     6A    -11.217400
       7A    -11.209629     8A     -1.368821     9A     -1.076831
      10A     -1.021802    11A     -0.972582    12A     -0.854366
      13A     -0.837531    14A     -0.755885    15A     -0.683865
      16A     -0.649250    17A     -0.631822    18A     -0.605671
      19A     -0.559197    20A     -0.556367    21A     -0.540786
      22A     -0.523519    23A     -0.520165    24A     -0.497391
      25A     -0.486779    26A     -0.463511    27A     -0.446227
      28A     -0.334254

  @DF-RHF Final Energy:  -309.12685390936895

   => Energetics <=

    Nuclear Repulsion Energy =            300.8891979971925821
    One-Electron Energy =               -1015.2747681173617593
    Two-Electron Energy =                 405.2587162108002303
    Total Energy =                       -309.1268539093689469
  Basis Set: (AUG-CC-PVTZ AUX)
    Blend: AUG-CC-PVTZ-RI
    Molecular point group: c1

    Geometry (in Angstrom), charge = 0, multiplicity = 1:

       Center              X                  Y                   Z               Mass
    ------------   -----------------  -----------------  -----------------  -----------------
         O           -0.851266229874    -0.218035738377    -0.288743092384    15.994914619570
         C            2.077621370126     0.263312861623    -0.524194392384    12.000000000000
         C           -2.133296229874    -0.214690738377     0.348743907616    12.000000000000
         C            1.381759770126    -0.857986738377     0.179639907616    12.000000000000
         C            2.755497770126     1.220932261623     0.416557907616    12.000000000000
         C            0.077049570126    -1.105138238377     0.346456507616    12.000000000000
         C           -3.032774229874     0.702530261623    -0.458338092384    12.000000000000
         H            2.704490770126    -0.080406738377    -1.298959092384     1.007825032230
         H            1.233751770126     0.851580261623    -1.070129092384     1.007825032230
         H           -2.535126229874    -1.242402738377     0.376107907616     1.007825032230
         H           -2.036397229874     0.143747261623     1.387176907616     1.007825032230
         H            2.029833770126    -1.596573738377     0.644541907616     1.007825032230
         H            3.238062770126     2.038106261623    -0.125017092384     1.007825032230
         H            2.065668770126     1.649923261623     1.145838907616     1.007825032230
         H            3.529660770126     0.675913261623     0.963315907616     1.007825032230
         H           -0.358292229874    -1.882662738377     0.870875907616     1.007825032230
         H           -4.035652229874     0.740110261623    -0.022637092384     1.007825032230
         H           -2.622938229874     1.716475261623    -0.474919092384     1.007825032230
         H           -3.108248229874     0.339894261623    -1.491245092384     1.007825032230

  Basis Set: AUG-CC-PVTZ
    Blend: AUG-CC-PVTZ
  Basis Set: (AUG-CC-PVTZ AUX)
    Blend: AUG-CC-PVTZ-JKFIT
	 Reference Energy          =    -309.1268539093689469 [Eh]
	 Singles Energy            =      -0.0000000000000000 [Eh]
	 Same-Spin Energy          =      -0.3140963121636829 [Eh]
	 Opposite-Spin Energy      =      -1.1010754842055679 [Eh]
	 Correlation Energy        =      -1.4151717963692509 [Eh]
	 Total Energy              =    -310.5420257057381832 [Eh]

	 ================> DF-SCS-MP2 Energies <==================
	-----------------------------------------------------------
	 SCS Same-Spin Scale       =       0.3333333333333333 [-]
	 SCS Opposite-Spin Scale   =       1.2000000000000000 [-]
	 SCS Same-Spin Energy      =      -0.1046987707212276 [Eh]
	 SCS Opposite-Spin Energy  =      -1.3212905810466815 [Eh]
	 SCS Correlation Energy    =      -1.4259893517679092 [Eh]
	 SCS Total Energy          =    -310.5528432611368430 [Eh]
	-----------------------------------------------------------

  Dipole Moment: [D]
     X:    -0.7503      Y:    -0.3043      Z:     0.7999     Total:     1.1382

*** Psi4 exiting successfully. Buy a developer a beer!
