                               Psi4 1.4a3.dev225

  ==> Input File <==

--------------------------------------------------------------------------
#psi4
#
memory 32 gb

molecule  {
0 1
  O        0.9059480     0.1295110    -0.3069180
  C       -1.9753050    -0.3336000    -0.5537270
  C        2.1613617     0.1913553     0.4785245
  C       -1.3184330     0.9429980    -0.1246110
  C       -2.9908880    -0.8293550     0.4787900
  C        0.0027760     1.1130440     0.0171530
  C        3.0576820    -0.8509900    -0.1177330
  H       -2.4824890    -0.1840060    -1.5158280
  H       -1.2045440    -1.0918590    -0.7184600
  H        2.5525890     1.1965710     0.3749050
  H        1.9047370    -0.0062780     1.5110790
  H       -1.9523440     1.7996160     0.0958850
  H       -3.4787570    -1.7495600     0.1429400
  H       -2.4987140    -1.0317260     1.4340660
  H       -3.7695180    -0.0804100     0.6542360
  H        0.4396010     2.0570360     0.3475940
  H        4.0048870    -0.8497230     0.4289840
  H        2.6101410    -1.8440700    -0.0412770
  H        3.2577670    -0.6398860    -1.1701900
units angstrom
no_reorient  #important for SAPT in psi4, default
symmetry c1  #important for SAPT in psi4, default
}

set PROPERTIES_ORIGIN ["COM"]
properties('MP2/aug-cc-pvtz', properties = ['dipole'])
--------------------------------------------------------------------------

    Molecular point group: c1
  Charge       = 0
  Multiplicity = 1
  Basis Set: AUG-CC-PVTZ
    Blend: AUG-CC-PVTZ
  Basis Set: (AUG-CC-PVTZ AUX)
    Blend: AUG-CC-PVTZ-JKFIT

    Orbital Energies [Eh]
    ---------------------

    Doubly Occupied:

       1A    -20.566992     2A    -11.285589     3A    -11.275743
       4A    -11.221293     5A    -11.214358     6A    -11.211849
       7A    -11.207491     8A     -1.376043     9A     -1.071557
      10A     -1.029747    11A     -0.965517    12A     -0.851082
      13A     -0.841846    14A     -0.748843    15A     -0.681554
      16A     -0.651469    17A     -0.637433    18A     -0.596511
      19A     -0.562338    20A     -0.557332    21A     -0.541018
      22A     -0.521109    23A     -0.508421    24A     -0.507517
      25A     -0.478858    26A     -0.476856    27A     -0.460915
      28A     -0.323761

  @DF-RHF Final Energy:  -309.13801319556745

   => Energetics <=

    Nuclear Repulsion Energy =            300.4978798558974518
    One-Electron Energy =               -1014.5256956838801443
    Two-Electron Energy =                 404.8898026324152966
    Total Energy =                       -309.1380131955674528
  Basis Set: (AUG-CC-PVTZ AUX)
    Blend: AUG-CC-PVTZ-RI
    Molecular point group: c1

    Geometry (in Angstrom), charge = 0, multiplicity = 1:

       Center              X                  Y                   Z               Mass
    ------------   -----------------  -----------------  -----------------  -----------------
         O            0.894803737272     0.105235762046    -0.294805219248    15.994914619570
         C           -1.986449262728    -0.357875237954    -0.541614219248    12.000000000000
         C            2.150217437272     0.167080062046     0.490637280752    12.000000000000
         C           -1.329577262728     0.918722762046    -0.112498219248    12.000000000000
         C           -3.002032262728    -0.853630237954     0.490902780752    12.000000000000
         C           -0.008368262728     1.088768762046     0.029265780752    12.000000000000
         C            3.046537737272    -0.875265237954    -0.105620219248    12.000000000000
         H           -2.493633262728    -0.208281237954    -1.503715219248     1.007825032230
         H           -1.215688262728    -1.116134237954    -0.706347219248     1.007825032230
         H            2.541444737272     1.172295762046     0.387017780752     1.007825032230
         H            1.893592737272    -0.030553237954     1.523191780752     1.007825032230
         H           -1.963488262728     1.775340762046     0.107997780752     1.007825032230
         H           -3.489901262728    -1.773835237954     0.155052780752     1.007825032230
         H           -2.509858262728    -1.056001237954     1.446178780752     1.007825032230
         H           -3.780662262728    -0.104685237954     0.666348780752     1.007825032230
         H            0.428456737272     2.032760762046     0.359706780752     1.007825032230
         H            3.993742737272    -0.873998237954     0.441096780752     1.007825032230
         H            2.598996737272    -1.868345237954    -0.029164219248     1.007825032230
         H            3.246622737272    -0.664161237954    -1.158077219248     1.007825032230

  Basis Set: AUG-CC-PVTZ
    Blend: AUG-CC-PVTZ
  Basis Set: (AUG-CC-PVTZ AUX)
    Blend: AUG-CC-PVTZ-JKFIT
	 Reference Energy          =    -309.1380131955674528 [Eh]
	 Singles Energy            =      -0.0000000000000000 [Eh]
	 Same-Spin Energy          =      -0.3140338623744774 [Eh]
	 Opposite-Spin Energy      =      -1.1000131740848673 [Eh]
	 Correlation Energy        =      -1.4140470364593447 [Eh]
	 Total Energy              =    -310.5520602320268040 [Eh]

	 ================> DF-SCS-MP2 Energies <==================
	-----------------------------------------------------------
	 SCS Same-Spin Scale       =       0.3333333333333333 [-]
	 SCS Opposite-Spin Scale   =       1.2000000000000000 [-]
	 SCS Same-Spin Energy      =      -0.1046779541248258 [Eh]
	 SCS Opposite-Spin Energy  =      -1.3200158089018408 [Eh]
	 SCS Correlation Energy    =      -1.4246937630266665 [Eh]
	 SCS Total Energy          =    -310.5627069585941058 [Eh]
	-----------------------------------------------------------

  Dipole Moment: [D]
     X:     1.2679      Y:     0.2623      Z:     0.8432     Total:     1.5452

*** Psi4 exiting successfully. Buy a developer a beer!
