                               Psi4 1.4a3.dev225

  ==> Input File <==

--------------------------------------------------------------------------
#psi4
#
memory 32 gb

molecule  {
0 1
  O        0.9059480     0.1295110    -0.3069180
  C       -1.9753050    -0.3336000    -0.5537270
  C        2.1190110     0.1892690     0.4520280
  C       -1.3184330     0.9429980    -0.1246110
  C       -2.9908880    -0.8293550     0.4787900
  C        0.0027760     1.1130440     0.0171530
  C        3.0576820    -0.8509900    -0.1177330
  H       -2.4824890    -0.1840060    -1.5158280
  H       -1.2045440    -1.0918590    -0.7184600
  H        2.5525890     1.1965710     0.3749050
  H        1.9047370    -0.0062780     1.5110790
  H       -1.9406937     1.7838728     0.0918326
  H       -3.4787570    -1.7495600     0.1429400
  H       -2.4987140    -1.0317260     1.4340660
  H       -3.7695180    -0.0804100     0.6542360
  H        0.4396010     2.0570360     0.3475940
  H        4.0048870    -0.8497230     0.4289840
  H        2.6101410    -1.8440700    -0.0412770
  H        3.2577670    -0.6398860    -1.1701900
units angstrom
no_reorient  #important for SAPT in psi4, default
symmetry c1  #important for SAPT in psi4, default
}

set PROPERTIES_ORIGIN ["COM"]
properties('MP2/aug-cc-pvtz', properties = ['dipole'])
--------------------------------------------------------------------------

    Molecular point group: c1
  Charge       = 0
  Multiplicity = 1
  Basis Set: AUG-CC-PVTZ
    Blend: AUG-CC-PVTZ
  Basis Set: (AUG-CC-PVTZ AUX)
    Blend: AUG-CC-PVTZ-JKFIT

    Orbital Energies [Eh]
    ---------------------

    Doubly Occupied:

       1A    -20.571667     2A    -11.284272     3A    -11.278287
       4A    -11.219466     5A    -11.216072     6A    -11.212677
       7A    -11.208903     8A     -1.391805     9A     -1.074381
      10A     -1.025943    11A     -0.967662    12A     -0.851461
      13A     -0.841359    14A     -0.756485    15A     -0.685535
      16A     -0.652977    17A     -0.640763    18A     -0.599274
      19A     -0.563712    20A     -0.560187    21A     -0.540443
      22A     -0.527123    23A     -0.507909    24A     -0.502144
      25A     -0.479515    26A     -0.474901    27A     -0.461431
      28A     -0.327105

  @DF-RHF Final Energy:  -309.14115205663035

   => Energetics <=

    Nuclear Repulsion Energy =            301.3026656636517941
    One-Electron Energy =               -1016.0407168145129617
    Two-Electron Energy =                 405.5968990942307641
    Total Energy =                       -309.1411520566303466
  Basis Set: (AUG-CC-PVTZ AUX)
    Blend: AUG-CC-PVTZ-RI
    Molecular point group: c1

    Geometry (in Angstrom), charge = 0, multiplicity = 1:

       Center              X                  Y                   Z               Mass
    ------------   -----------------  -----------------  -----------------  -----------------
         O            0.899764001173     0.105644419008    -0.291587655826    15.994914619570
         C           -1.981488998827    -0.357466580992    -0.538396655826    12.000000000000
         C            2.112827001173     0.165402419008     0.467358344174    12.000000000000
         C           -1.324616998827     0.919131419008    -0.109280655826    12.000000000000
         C           -2.997071998827    -0.853221580992     0.494120344174    12.000000000000
         C           -0.003407998827     1.089177419008     0.032483344174    12.000000000000
         C            3.051498001173    -0.874856580992    -0.102402655826    12.000000000000
         H           -2.488672998827    -0.207872580992    -1.500497655826     1.007825032230
         H           -1.210727998827    -1.115725580992    -0.703129655826     1.007825032230
         H            2.546405001173     1.172704419008     0.390235344174     1.007825032230
         H            1.898553001173    -0.030144580992     1.526409344174     1.007825032230
         H           -1.946877698827     1.760006219008     0.107162944174     1.007825032230
         H           -3.484940998827    -1.773426580992     0.158270344174     1.007825032230
         H           -2.504897998827    -1.055592580992     1.449396344174     1.007825032230
         H           -3.775701998827    -0.104276580992     0.669566344174     1.007825032230
         H            0.433417001173     2.033169419008     0.362924344174     1.007825032230
         H            3.998703001173    -0.873589580992     0.444314344174     1.007825032230
         H            2.603957001173    -1.867936580992    -0.025946655826     1.007825032230
         H            3.251583001173    -0.663752580992    -1.154859655826     1.007825032230

  Basis Set: AUG-CC-PVTZ
    Blend: AUG-CC-PVTZ
  Basis Set: (AUG-CC-PVTZ AUX)
    Blend: AUG-CC-PVTZ-JKFIT
	 Reference Energy          =    -309.1411520566303466 [Eh]
	 Singles Energy            =      -0.0000000000000000 [Eh]
	 Same-Spin Energy          =      -0.3137281682626397 [Eh]
	 Opposite-Spin Energy      =      -1.0989981160681506 [Eh]
	 Correlation Energy        =      -1.4127262843307902 [Eh]
	 Total Energy              =    -310.5538783409611483 [Eh]

	 ================> DF-SCS-MP2 Energies <==================
	-----------------------------------------------------------
	 SCS Same-Spin Scale       =       0.3333333333333333 [-]
	 SCS Opposite-Spin Scale   =       1.2000000000000000 [-]
	 SCS Same-Spin Energy      =      -0.1045760560875466 [Eh]
	 SCS Opposite-Spin Energy  =      -1.3187977392817807 [Eh]
	 SCS Correlation Energy    =      -1.4233737953693273 [Eh]
	 SCS Total Energy          =    -310.5645258519996901 [Eh]
	-----------------------------------------------------------

  Dipole Moment: [D]
     X:     1.0143      Y:     0.2982      Z:     0.7632     Total:     1.3039

*** Psi4 exiting successfully. Buy a developer a beer!
