                               Psi4 1.3.2 release

  ==> Input File <==

--------------------------------------------------------------------------
#psi4
#
memory 32 gb

molecule  {
0 1
  O       -0.8411900    -0.2286010    -0.2822800
  C        2.0877007     0.2532099    -0.5169911
  C       -2.1232200    -0.2252560     0.3552070
  C        1.3918360    -0.8685520     0.1861030
  C        2.7655740     1.2103670     0.4230210
  C        0.0733200    -1.0572940     0.3167640
  C       -3.0226980     0.6919650    -0.4518750
  H        2.7145670    -0.0909720    -1.2924960
  H        1.2438280     0.8410150    -1.0636660
  H       -2.5250500    -1.2529680     0.3825710
  H       -2.0263210     0.1331820     1.3936400
  H        2.0846965    -1.5773653     0.6323905
  H        3.2481390     2.0275410    -0.1185540
  H        2.0757450     1.6393580     1.1523020
  H        3.5397370     0.6653480     0.9697790
  H       -0.3482160    -1.8932280     0.8773390
  H       -4.0255760     0.7295450    -0.0161740
  H       -2.6128620     1.7059100    -0.4684560
  H       -3.0981720     0.3293290    -1.4847820
units angstrom
no_reorient  #important for SAPT in psi4, default
symmetry c1  #important for SAPT in psi4, default
}

set PROPERTIES_ORIGIN ["COM"]
properties('MP2/aug-cc-pvtz', properties = ['dipole'])
--------------------------------------------------------------------------

    Molecular point group: c1
  Charge       = 0
  Multiplicity = 1
  Basis Set: AUG-CC-PVTZ
    Blend: AUG-CC-PVTZ
  Basis Set: (AUG-CC-PVTZ AUX)
    Blend: AUG-CC-PVTZ-JKFIT

    Orbital Energies [Eh]
    ---------------------

    Doubly Occupied:

       1A    -20.572811     2A    -11.286688     3A    -11.280957
       4A    -11.221129     5A    -11.215403     6A    -11.214115
       7A    -11.206832     8A     -1.393604     9A     -1.075589
      10A     -1.027042    11A     -0.968614    12A     -0.852898
      13A     -0.840765    14A     -0.753514    15A     -0.684711
      16A     -0.655002    17A     -0.642301    18A     -0.602931
      19A     -0.559309    20A     -0.557835    21A     -0.544219
      22A     -0.527147    23A     -0.520033    24A     -0.500724
      25A     -0.481880    26A     -0.470596    27A     -0.444556
      28A     -0.327898

  @DF-RHF Final Energy:  -309.13327282109458

   => Energetics <=

    Nuclear Repulsion Energy =            301.9032068831581341
    One-Electron Energy =               -1017.2147565408539549
    Two-Electron Energy =                 406.1782768366012988
    Total Energy =                       -309.1332728210945788
  Basis Set: (AUG-CC-PVTZ AUX)
    Blend: AUG-CC-PVTZ-RI
    Molecular point group: c1

    Geometry (in Angstrom), charge = 0, multiplicity = 1:

       Center              X                  Y                   Z               Mass
    ------------   -----------------  -----------------  -----------------  -----------------
         O           -0.850062344663    -0.225393886039    -0.284309580417    15.994914619570
         C            2.078828355337     0.256417013961    -0.519020680417    12.000000000000
         C           -2.132092344663    -0.222048886039     0.353177419583    12.000000000000
         C            1.382963655337    -0.865344886039     0.184073419583    12.000000000000
         C            2.756701655337     1.213574113961     0.420991419583    12.000000000000
         C            0.064447655337    -1.054086886039     0.314734419583    12.000000000000
         C           -3.031570344663     0.695172113961    -0.453904580417    12.000000000000
         H            2.705694655337    -0.087764886039    -1.294525580417     1.007825032230
         H            1.234955655337     0.844222113961    -1.065695580417     1.007825032230
         H           -2.533922344663    -1.249760886039     0.380541419583     1.007825032230
         H           -2.035193344663     0.136389113961     1.391610419583     1.007825032230
         H            2.075824155337    -1.574158186039     0.630360919583     1.007825032230
         H            3.239266655337     2.030748113961    -0.120583580417     1.007825032230
         H            2.066872655337     1.642565113961     1.150272419583     1.007825032230
         H            3.530864655337     0.668555113961     0.967749419583     1.007825032230
         H           -0.357088344663    -1.890020886039     0.875309419583     1.007825032230
         H           -4.034448344663     0.732752113961    -0.018203580417     1.007825032230
         H           -2.621734344663     1.709117113961    -0.470485580417     1.007825032230
         H           -3.107044344663     0.332536113961    -1.486811580417     1.007825032230

  Basis Set: AUG-CC-PVTZ
    Blend: AUG-CC-PVTZ
  Basis Set: (AUG-CC-PVTZ AUX)
    Blend: AUG-CC-PVTZ-JKFIT
	 Reference Energy          =    -309.1332728210945788 [Eh]
	 Singles Energy            =      -0.0000000000000000 [Eh]
	 Same-Spin Energy          =      -0.3140734120280040 [Eh]
	 Opposite-Spin Energy      =      -1.0998364960514388 [Eh]
	 Correlation Energy        =      -1.4139099080794428 [Eh]
	 Total Energy              =    -310.5471827291740397 [Eh]

	 ================> DF-SCS-MP2 Energies <==================
	-----------------------------------------------------------
	 SCS Same-Spin Scale       =       0.3333333333333333 [-]
	 SCS Opposite-Spin Scale   =       1.2000000000000000 [-]
	 SCS Same-Spin Energy      =      -0.1046911373426680 [Eh]
	 SCS Opposite-Spin Energy  =      -1.3198037952617265 [Eh]
	 SCS Correlation Energy    =      -1.4244949326043945 [Eh]
	 SCS Total Energy          =    -310.5577677536989540 [Eh]
	-----------------------------------------------------------

  Dipole Moment: [D]
     X:    -1.0981      Y:    -0.1949      Z:     0.7312     Total:     1.3336

*** Psi4 exiting successfully. Buy a developer a beer!
