                               Psi4 1.4a3.dev225

  ==> Input File <==

--------------------------------------------------------------------------
#psi4
#
memory 32 gb

molecule  {
0 1
  O        0.9059480     0.1295110    -0.3069180
  C       -1.9753050    -0.3336000    -0.5537270
  C        2.1190110     0.1892690     0.4520280
  C       -1.3184330     0.9429980    -0.1246110
  C       -2.9908880    -0.8293550     0.4787900
  C        0.0027760     1.1130440     0.0171530
  C        3.0576820    -0.8509900    -0.1177330
  H       -2.4824890    -0.1840060    -1.5158280
  H       -1.2045440    -1.0918590    -0.7184600
  H        2.5525890     1.1965710     0.3749050
  H        1.9047370    -0.0062780     1.5110790
  H       -1.9814696     1.8389741     0.1060159
  H       -3.4787570    -1.7495600     0.1429400
  H       -2.4987140    -1.0317260     1.4340660
  H       -3.7695180    -0.0804100     0.6542360
  H        0.4396010     2.0570360     0.3475940
  H        4.0048870    -0.8497230     0.4289840
  H        2.6101410    -1.8440700    -0.0412770
  H        3.2577670    -0.6398860    -1.1701900
units angstrom
no_reorient  #important for SAPT in psi4, default
symmetry c1  #important for SAPT in psi4, default
}

set PROPERTIES_ORIGIN ["COM"]
properties('MP2/aug-cc-pvtz', properties = ['dipole'])
--------------------------------------------------------------------------

    Molecular point group: c1
  Charge       = 0
  Multiplicity = 1
  Basis Set: AUG-CC-PVTZ
    Blend: AUG-CC-PVTZ
  Basis Set: (AUG-CC-PVTZ AUX)
    Blend: AUG-CC-PVTZ-JKFIT

    Orbital Energies [Eh]
    ---------------------

    Doubly Occupied:

       1A    -20.572143     2A    -11.284552     3A    -11.278862
       4A    -11.220990     5A    -11.219675     6A    -11.216917
       7A    -11.208998     8A     -1.392252     9A     -1.073223
      10A     -1.026113    11A     -0.966499    12A     -0.851328
      13A     -0.841507    14A     -0.751244    15A     -0.684317
      16A     -0.652814    17A     -0.638080    18A     -0.599462
      19A     -0.563160    20A     -0.555908    21A     -0.540211
      22A     -0.525265    23A     -0.508220    24A     -0.502428
      25A     -0.479999    26A     -0.473398    27A     -0.461100
      28A     -0.327584

  @DF-RHF Final Energy:  -309.13872694014282

   => Energetics <=

    Nuclear Repulsion Energy =            300.9703674212631768
    One-Electron Energy =               -1015.3856893795149290
    Two-Electron Energy =                 405.2765950181089352
    Total Energy =                       -309.1387269401428171
  Basis Set: (AUG-CC-PVTZ AUX)
    Blend: AUG-CC-PVTZ-RI
    Molecular point group: c1

    Geometry (in Angstrom), charge = 0, multiplicity = 1:

       Center              X                  Y                   Z               Mass
    ------------   -----------------  -----------------  -----------------  -----------------
         O            0.900174586239     0.105089587088    -0.291730471831    15.994914619570
         C           -1.981078413761    -0.358021412912    -0.538539471831    12.000000000000
         C            2.113237586239     0.164847587088     0.467215528169    12.000000000000
         C           -1.324206413761     0.918576587088    -0.109423471831    12.000000000000
         C           -2.996661413761    -0.853776412912     0.493977528169    12.000000000000
         C           -0.002997413761     1.088622587088     0.032340528169    12.000000000000
         C            3.051908586239    -0.875411412912    -0.102545471831    12.000000000000
         H           -2.488262413761    -0.208427412912    -1.500640471831     1.007825032230
         H           -1.210317413761    -1.116280412912    -0.703272471831     1.007825032230
         H            2.546815586239     1.172149587088     0.390092528169     1.007825032230
         H            1.898963586239    -0.030699412912     1.526266528169     1.007825032230
         H           -1.987243013761     1.814552687088     0.121203428169     1.007825032230
         H           -3.484530413761    -1.773981412912     0.158127528169     1.007825032230
         H           -2.504487413761    -1.056147412912     1.449253528169     1.007825032230
         H           -3.775291413761    -0.104831412912     0.669423528169     1.007825032230
         H            0.433827586239     2.032614587088     0.362781528169     1.007825032230
         H            3.999113586239    -0.874144412912     0.444171528169     1.007825032230
         H            2.604367586239    -1.868491412912    -0.026089471831     1.007825032230
         H            3.251993586239    -0.664307412912    -1.155002471831     1.007825032230

  Basis Set: AUG-CC-PVTZ
    Blend: AUG-CC-PVTZ
  Basis Set: (AUG-CC-PVTZ AUX)
    Blend: AUG-CC-PVTZ-JKFIT
	 Reference Energy          =    -309.1387269401428171 [Eh]
	 Singles Energy            =      -0.0000000000000000 [Eh]
	 Same-Spin Energy          =      -0.3138190747810129 [Eh]
	 Opposite-Spin Energy      =      -1.0994703843906715 [Eh]
	 Correlation Energy        =      -1.4132894591716845 [Eh]
	 Total Energy              =    -310.5520163993144820 [Eh]

	 ================> DF-SCS-MP2 Energies <==================
	-----------------------------------------------------------
	 SCS Same-Spin Scale       =       0.3333333333333333 [-]
	 SCS Opposite-Spin Scale   =       1.2000000000000000 [-]
	 SCS Same-Spin Energy      =      -0.1046063582603376 [Eh]
	 SCS Opposite-Spin Energy  =      -1.3193644612688058 [Eh]
	 SCS Correlation Energy    =      -1.4239708195291434 [Eh]
	 SCS Total Energy          =    -310.5626977596719485 [Eh]
	-----------------------------------------------------------

  Dipole Moment: [D]
     X:     1.0265      Y:     0.2679      Z:     0.7564     Total:     1.3030

*** Psi4 exiting successfully. Buy a developer a beer!
