                               Psi4 1.4a3.dev225

  ==> Input File <==

--------------------------------------------------------------------------
#psi4
#
memory 32 gb

molecule  {
0 1
  O        0.9059480     0.1295110    -0.3069180
  C       -1.9753050    -0.3336000    -0.5537270
  C        2.1190110     0.1892690     0.4520280
  C       -1.3403515     0.9004004    -0.1389298
  C       -2.9908880    -0.8293550     0.4787900
  C        0.0027760     1.1130440     0.0171530
  C        3.0576820    -0.8509900    -0.1177330
  H       -2.4824890    -0.1840060    -1.5158280
  H       -1.2045440    -1.0918590    -0.7184600
  H        2.5525890     1.1965710     0.3749050
  H        1.9047370    -0.0062780     1.5110790
  H       -1.9523440     1.7996160     0.0958850
  H       -3.4787570    -1.7495600     0.1429400
  H       -2.4987140    -1.0317260     1.4340660
  H       -3.7695180    -0.0804100     0.6542360
  H        0.4396010     2.0570360     0.3475940
  H        4.0048870    -0.8497230     0.4289840
  H        2.6101410    -1.8440700    -0.0412770
  H        3.2577670    -0.6398860    -1.1701900
units angstrom
no_reorient  #important for SAPT in psi4, default
symmetry c1  #important for SAPT in psi4, default
}

set PROPERTIES_ORIGIN ["COM"]
properties('MP2/aug-cc-pvtz', properties = ['dipole'])
--------------------------------------------------------------------------

    Molecular point group: c1
  Charge       = 0
  Multiplicity = 1
  Basis Set: AUG-CC-PVTZ
    Blend: AUG-CC-PVTZ
  Basis Set: (AUG-CC-PVTZ AUX)
    Blend: AUG-CC-PVTZ-JKFIT

    Orbital Energies [Eh]
    ---------------------

    Doubly Occupied:

       1A    -20.571354     2A    -11.284157     3A    -11.282393
       4A    -11.219445     5A    -11.219135     6A    -11.213994
       7A    -11.209538     8A     -1.391767     9A     -1.077878
      10A     -1.027814    11A     -0.961766    12A     -0.855786
      13A     -0.841794    14A     -0.752957    15A     -0.684847
      16A     -0.653075    17A     -0.638646    18A     -0.603192
      19A     -0.562771    20A     -0.557100    21A     -0.540286
      22A     -0.526343    23A     -0.509495    24A     -0.503383
      25A     -0.484686    26A     -0.472138    27A     -0.463318
      28A     -0.319284

  @DF-RHF Final Energy:  -309.13562712104192

   => Energetics <=

    Nuclear Repulsion Energy =            301.4143251992289834
    One-Electron Energy =               -1016.2432224556021083
    Two-Electron Energy =                 405.6932701353312041
    Total Energy =                       -309.1356271210419209
  Basis Set: (AUG-CC-PVTZ AUX)
    Blend: AUG-CC-PVTZ-RI
    Molecular point group: c1

    Geometry (in Angstrom), charge = 0, multiplicity = 1:

       Center              X                  Y                   Z               Mass
    ------------   -----------------  -----------------  -----------------  -----------------
         O            0.902509197667     0.110593071951    -0.289911729401    15.994914619570
         C           -1.978743802333    -0.352517928049    -0.536720729401    12.000000000000
         C            2.115572197667     0.170351071951     0.469034270599    12.000000000000
         C           -1.343790302333     0.881482471951    -0.121923529401    12.000000000000
         C           -2.994326802333    -0.848272928049     0.495796270599    12.000000000000
         C           -0.000662802333     1.094126071951     0.034159270599    12.000000000000
         C            3.054243197667    -0.869907928049    -0.100726729401    12.000000000000
         H           -2.485927802333    -0.202923928049    -1.498821729401     1.007825032230
         H           -1.207982802333    -1.110776928049    -0.701453729401     1.007825032230
         H            2.549150197667     1.177653071951     0.391911270599     1.007825032230
         H            1.901298197667    -0.025195928049     1.528085270599     1.007825032230
         H           -1.955782802333     1.780698071951     0.112891270599     1.007825032230
         H           -3.482195802333    -1.768477928049     0.159946270599     1.007825032230
         H           -2.502152802333    -1.050643928049     1.451072270599     1.007825032230
         H           -3.772956802333    -0.099327928049     0.671242270599     1.007825032230
         H            0.436162197667     2.038118071951     0.364600270599     1.007825032230
         H            4.001448197667    -0.868640928049     0.445990270599     1.007825032230
         H            2.606702197667    -1.862987928049    -0.024270729401     1.007825032230
         H            3.254328197667    -0.658803928049    -1.153183729401     1.007825032230

  Basis Set: AUG-CC-PVTZ
    Blend: AUG-CC-PVTZ
  Basis Set: (AUG-CC-PVTZ AUX)
    Blend: AUG-CC-PVTZ-JKFIT
	 Reference Energy          =    -309.1356271210419209 [Eh]
	 Singles Energy            =      -0.0000000000000000 [Eh]
	 Same-Spin Energy          =      -0.3147309632116869 [Eh]
	 Opposite-Spin Energy      =      -1.1006315335856280 [Eh]
	 Correlation Energy        =      -1.4153624967973149 [Eh]
	 Total Energy              =    -310.5509896178392637 [Eh]

	 ================> DF-SCS-MP2 Energies <==================
	-----------------------------------------------------------
	 SCS Same-Spin Scale       =       0.3333333333333333 [-]
	 SCS Opposite-Spin Scale   =       1.2000000000000000 [-]
	 SCS Same-Spin Energy      =      -0.1049103210705623 [Eh]
	 SCS Opposite-Spin Energy  =      -1.3207578403027536 [Eh]
	 SCS Correlation Energy    =      -1.4256681613733158 [Eh]
	 SCS Total Energy          =    -310.5612952824152444 [Eh]
	-----------------------------------------------------------

  Dipole Moment: [D]
     X:     1.0249      Y:     0.2621      Z:     0.7460     Total:     1.2945

*** Psi4 exiting successfully. Buy a developer a beer!
