                               Psi4 1.3.2 release

  ==> Input File <==

--------------------------------------------------------------------------
#psi4
#
memory 32 gb

molecule  {
0 1
  O       -0.8411900    -0.2286010    -0.2822800
  C        1.9455045     0.3085552    -0.5519951
  C       -2.1232200    -0.2252560     0.3552070
  C        1.3918360    -0.8685520     0.1861030
  C        2.7655740     1.2103670     0.4230210
  C        0.0733200    -1.0572940     0.3167640
  C       -3.0226980     0.6919650    -0.4518750
  H        2.7145670    -0.0909720    -1.2924960
  H        1.2438280     0.8410150    -1.0636660
  H       -2.5250500    -1.2529680     0.3825710
  H       -2.0263210     0.1331820     1.3936400
  H        1.9933471    -1.6348883     0.6683453
  H        3.2481390     2.0275410    -0.1185540
  H        2.0757450     1.6393580     1.1523020
  H        3.5397370     0.6653480     0.9697790
  H       -0.3482160    -1.8932280     0.8773390
  H       -4.0255760     0.7295450    -0.0161740
  H       -2.6128620     1.7059100    -0.4684560
  H       -3.0981720     0.3293290    -1.4847820
units angstrom
no_reorient  #important for SAPT in psi4, default
symmetry c1  #important for SAPT in psi4, default
}

set PROPERTIES_ORIGIN ["COM"]
properties('MP2/aug-cc-pvtz', properties = ['dipole'])
--------------------------------------------------------------------------

    Molecular point group: c1
  Charge       = 0
  Multiplicity = 1
  Basis Set: AUG-CC-PVTZ
    Blend: AUG-CC-PVTZ
  Basis Set: (AUG-CC-PVTZ AUX)
    Blend: AUG-CC-PVTZ-JKFIT

    Orbital Energies [Eh]
    ---------------------

    Doubly Occupied:

       1A    -20.571887     2A    -11.286242     3A    -11.275725
       4A    -11.221103     5A    -11.216030     6A    -11.213568
       7A    -11.208936     8A     -1.393033     9A     -1.074749
      10A     -1.023294    11A     -0.965070    12A     -0.851264
      13A     -0.843273    14A     -0.757502    15A     -0.682565
      16A     -0.654960    17A     -0.644333    18A     -0.591716
      19A     -0.564110    20A     -0.556129    21A     -0.540862
      22A     -0.527659    23A     -0.509227    24A     -0.498769
      25A     -0.485025    26A     -0.472016    27A     -0.465613
      28A     -0.323138

  @DF-RHF Final Energy:  -309.13294025077073

   => Energetics <=

    Nuclear Repulsion Energy =            302.3771251602318557
    One-Electron Energy =               -1018.1845330925372082
    Two-Electron Energy =                 406.6744676815345656
    Total Energy =                       -309.1329402507707300
  Basis Set: (AUG-CC-PVTZ AUX)
    Blend: AUG-CC-PVTZ-RI
    Molecular point group: c1

    Geometry (in Angstrom), charge = 0, multiplicity = 1:

       Center              X                  Y                   Z               Mass
    ------------   -----------------  -----------------  -----------------  -----------------
         O           -0.832094117026    -0.231450211919    -0.280474867692    15.994914619570
         C            1.954600382974     0.305705988081    -0.550189967692    12.000000000000
         C           -2.114124117026    -0.228105211919     0.357012132308    12.000000000000
         C            1.400931882974    -0.871401211919     0.187908132308    12.000000000000
         C            2.774669882974     1.207517788081     0.424826132308    12.000000000000
         C            0.082415882974    -1.060143211919     0.318569132308    12.000000000000
         C           -3.013602117026     0.689115788081    -0.450069867692    12.000000000000
         H            2.723662882974    -0.093821211919    -1.290690867692     1.007825032230
         H            1.252923882974     0.838165788081    -1.061860867692     1.007825032230
         H           -2.515954117026    -1.255817211919     0.384376132308     1.007825032230
         H           -2.017225117026     0.130332788081     1.395445132308     1.007825032230
         H            2.002442982974    -1.637737511919     0.670150432308     1.007825032230
         H            3.257234882974     2.024691788081    -0.116748867692     1.007825032230
         H            2.084840882974     1.636508788081     1.154107132308     1.007825032230
         H            3.548832882974     0.662498788081     0.971584132308     1.007825032230
         H           -0.339120117026    -1.896077211919     0.879144132308     1.007825032230
         H           -4.016480117026     0.726695788081    -0.014368867692     1.007825032230
         H           -2.603766117026     1.703060788081    -0.466650867692     1.007825032230
         H           -3.089076117026     0.326479788081    -1.482976867692     1.007825032230

  Basis Set: AUG-CC-PVTZ
    Blend: AUG-CC-PVTZ
  Basis Set: (AUG-CC-PVTZ AUX)
    Blend: AUG-CC-PVTZ-JKFIT
	 Reference Energy          =    -309.1329402507707300 [Eh]
	 Singles Energy            =      -0.0000000000000000 [Eh]
	 Same-Spin Energy          =      -0.3139105116865558 [Eh]
	 Opposite-Spin Energy      =      -1.0994259142297222 [Eh]
	 Correlation Energy        =      -1.4133364259162779 [Eh]
	 Total Energy              =    -310.5462766766870004 [Eh]

	 ================> DF-SCS-MP2 Energies <==================
	-----------------------------------------------------------
	 SCS Same-Spin Scale       =       0.3333333333333333 [-]
	 SCS Opposite-Spin Scale   =       1.2000000000000000 [-]
	 SCS Same-Spin Energy      =      -0.1046368372288519 [Eh]
	 SCS Opposite-Spin Energy  =      -1.3193110970756667 [Eh]
	 SCS Correlation Energy    =      -1.4239479343045187 [Eh]
	 SCS Total Energy          =    -310.5568881850752518 [Eh]
	-----------------------------------------------------------

  Dipole Moment: [D]
     X:    -1.1022      Y:    -0.1890      Z:     0.7385     Total:     1.3402

*** Psi4 exiting successfully. Buy a developer a beer!
