                               Psi4 1.3.2 release

  ==> Input File <==

--------------------------------------------------------------------------
#psi4
#
memory 32 gb

molecule  {
0 1
  O       -0.8411900    -0.2286010    -0.2822800
  C        2.0174600     0.2824600    -0.5354820
  C       -2.1232200    -0.2252560     0.3552070
  C        1.3918360    -0.8685520     0.1861030
  C        2.7655740     1.2103670     0.4230210
  C        0.0733200    -1.0572940     0.3167640
  C       -3.0226980     0.6919650    -0.4518750
  H        2.5872126    -0.0227497    -1.1541972
  H        1.2438280     0.8410150    -1.0636660
  H       -2.5250500    -1.2529680     0.3825710
  H       -2.0263210     0.1331820     1.3936400
  H        2.0399100    -1.6071390     0.6510050
  H        3.2481390     2.0275410    -0.1185540
  H        2.0757450     1.6393580     1.1523020
  H        3.5397370     0.6653480     0.9697790
  H       -0.3482160    -1.8932280     0.8773390
  H       -4.0255760     0.7295450    -0.0161740
  H       -2.6128620     1.7059100    -0.4684560
  H       -3.0981720     0.3293290    -1.4847820
units angstrom
no_reorient  #important for SAPT in psi4, default
symmetry c1  #important for SAPT in psi4, default
}

set PROPERTIES_ORIGIN ["COM"]
properties('MP2/aug-cc-pvtz', properties = ['dipole'])
--------------------------------------------------------------------------

    Molecular point group: c1
  Charge       = 0
  Multiplicity = 1
  Basis Set: AUG-CC-PVTZ
    Blend: AUG-CC-PVTZ
  Basis Set: (AUG-CC-PVTZ AUX)
    Blend: AUG-CC-PVTZ-JKFIT

    Orbital Energies [Eh]
    ---------------------

    Doubly Occupied:

       1A    -20.571482     2A    -11.285851     3A    -11.277133
       4A    -11.220688     5A    -11.211969     6A    -11.205833
       7A    -11.189032     8A     -1.392417     9A     -1.080873
      10A     -1.028449    11A     -0.968174    12A     -0.861911
      13A     -0.843825    14A     -0.762257    15A     -0.687641
      16A     -0.655029    17A     -0.641883    18A     -0.611823
      19A     -0.560937    20A     -0.556421    21A     -0.541559
      22A     -0.526675    23A     -0.513872    24A     -0.500973
      25A     -0.489556    26A     -0.472559    27A     -0.463089
      28A     -0.325783

  @DF-RHF Final Energy:  -309.10676684334828

   => Energetics <=

    Nuclear Repulsion Energy =            303.2059232149218815
    One-Electron Energy =               -1019.7299963038216220
    Two-Electron Energy =                 407.4173062455514582
    Total Energy =                       -309.1067668433482822
  Basis Set: (AUG-CC-PVTZ AUX)
    Blend: AUG-CC-PVTZ-RI
    Molecular point group: c1

    Geometry (in Angstrom), charge = 0, multiplicity = 1:

       Center              X                  Y                   Z               Mass
    ------------   -----------------  -----------------  -----------------  -----------------
         O           -0.839907600519    -0.229287934155    -0.283672649623    15.994914619570
         C            2.018742399481     0.281773065845    -0.536874649623    12.000000000000
         C           -2.121937600519    -0.225942934155     0.353814350377    12.000000000000
         C            1.393118399481    -0.869238934155     0.184710350377    12.000000000000
         C            2.766856399481     1.209680065845     0.421628350377    12.000000000000
         C            0.074602399481    -1.057980934155     0.315371350377    12.000000000000
         C           -3.021415600519     0.691278065845    -0.453267649623    12.000000000000
         H            2.588494999481    -0.023436634155    -1.155589849623     1.007825032230
         H            1.245110399481     0.840328065845    -1.065058649623     1.007825032230
         H           -2.523767600519    -1.253654934155     0.381178350377     1.007825032230
         H           -2.025038600519     0.132495065845     1.392247350377     1.007825032230
         H            2.041192399481    -1.607825934155     0.649612350377     1.007825032230
         H            3.249421399481     2.026854065845    -0.119946649623     1.007825032230
         H            2.077027399481     1.638671065845     1.150909350377     1.007825032230
         H            3.541019399481     0.664661065845     0.968386350377     1.007825032230
         H           -0.346933600519    -1.893914934155     0.875946350377     1.007825032230
         H           -4.024293600519     0.728858065845    -0.017566649623     1.007825032230
         H           -2.611579600519     1.705223065845    -0.469848649623     1.007825032230
         H           -3.096889600519     0.328642065845    -1.486174649623     1.007825032230

  Basis Set: AUG-CC-PVTZ
    Blend: AUG-CC-PVTZ
  Basis Set: (AUG-CC-PVTZ AUX)
    Blend: AUG-CC-PVTZ-JKFIT
	 Reference Energy          =    -309.1067668433482822 [Eh]
	 Singles Energy            =      -0.0000000000000000 [Eh]
	 Same-Spin Energy          =      -0.3139645557252358 [Eh]
	 Opposite-Spin Energy      =      -1.0986371210913761 [Eh]
	 Correlation Energy        =      -1.4126016768166121 [Eh]
	 Total Energy              =    -310.5193685201649032 [Eh]

	 ================> DF-SCS-MP2 Energies <==================
	-----------------------------------------------------------
	 SCS Same-Spin Scale       =       0.3333333333333333 [-]
	 SCS Opposite-Spin Scale   =       1.2000000000000000 [-]
	 SCS Same-Spin Energy      =      -0.1046548519084119 [Eh]
	 SCS Opposite-Spin Energy  =      -1.3183645453096513 [Eh]
	 SCS Correlation Energy    =      -1.4230193972180634 [Eh]
	 SCS Total Energy          =    -310.5297862405663523 [Eh]
	-----------------------------------------------------------

  Dipole Moment: [D]
     X:    -1.0354      Y:    -0.2036      Z:     0.6473     Total:     1.2379

*** Psi4 exiting successfully. Buy a developer a beer!
