                               Psi4 1.3.2 release

  ==> Input File <==

--------------------------------------------------------------------------
#psi4
#
memory 32 gb

molecule  {
0 1
  O       -0.8411900    -0.2286010    -0.2822800
  C        2.0174600     0.2824600    -0.5354820
  C       -2.1232200    -0.2252560     0.3552070
  C        1.3918360    -0.8685520     0.1861030
  C        2.7655740     1.2103670     0.4230210
  C        0.0733200    -1.0572940     0.3167640
  C       -3.0226980     0.6919650    -0.4518750
  H        2.7145670    -0.0909720    -1.2924960
  H        1.2438280     0.8410150    -1.0636660
  H       -2.5250500    -1.2529680     0.3825710
  H       -2.0263210     0.1331820     1.3936400
  H        2.0995285    -1.6750841     0.6937729
  H        3.2481390     2.0275410    -0.1185540
  H        2.0757450     1.6393580     1.1523020
  H        3.5397370     0.6653480     0.9697790
  H       -0.3482160    -1.8932280     0.8773390
  H       -4.0255760     0.7295450    -0.0161740
  H       -2.6128620     1.7059100    -0.4684560
  H       -3.0981720     0.3293290    -1.4847820
units angstrom
no_reorient  #important for SAPT in psi4, default
symmetry c1  #important for SAPT in psi4, default
}

set PROPERTIES_ORIGIN ["COM"]
properties('MP2/aug-cc-pvtz', properties = ['dipole'])
--------------------------------------------------------------------------

    Molecular point group: c1
  Charge       = 0
  Multiplicity = 1
  Basis Set: AUG-CC-PVTZ
    Blend: AUG-CC-PVTZ
  Basis Set: (AUG-CC-PVTZ AUX)
    Blend: AUG-CC-PVTZ-JKFIT

    Orbital Energies [Eh]
    ---------------------

    Doubly Occupied:

       1A    -20.573028     2A    -11.286872     3A    -11.279123
       4A    -11.224979     5A    -11.221434     6A    -11.216007
       7A    -11.207570     8A     -1.393937     9A     -1.073421
      10A     -1.025375    11A     -0.965354    12A     -0.851386
      13A     -0.841725    14A     -0.748277    15A     -0.682261
      16A     -0.654825    17A     -0.638313    18A     -0.597854
      19A     -0.558012    20A     -0.553478    21A     -0.542476
      22A     -0.523344    23A     -0.510255    24A     -0.501991
      25A     -0.479703    26A     -0.472173    27A     -0.462180
      28A     -0.326409

  @DF-RHF Final Energy:  -309.13391215796042

   => Energetics <=

    Nuclear Repulsion Energy =            301.6709872343378720
    One-Electron Energy =               -1016.7862735566582160
    Two-Electron Energy =                 405.9813741643599201
    Total Energy =                       -309.1339121579604239
  Basis Set: (AUG-CC-PVTZ AUX)
    Blend: AUG-CC-PVTZ-RI
    Molecular point group: c1

    Geometry (in Angstrom), charge = 0, multiplicity = 1:

       Center              X                  Y                   Z               Mass
    ------------   -----------------  -----------------  -----------------  -----------------
         O           -0.841790288100    -0.227916822765    -0.282710719638    15.994914619570
         C            2.016859711900     0.283144177235    -0.535912719638    12.000000000000
         C           -2.123820288100    -0.224571822765     0.354776280362    12.000000000000
         C            1.391235711900    -0.867867822765     0.185672280362    12.000000000000
         C            2.764973711900     1.211051177235     0.422590280362    12.000000000000
         C            0.072719711900    -1.056609822765     0.316333280362    12.000000000000
         C           -3.023298288100     0.692649177235    -0.452305719638    12.000000000000
         H            2.713966711900    -0.090287822765    -1.292926719638     1.007825032230
         H            1.243227711900     0.841699177235    -1.064096719638     1.007825032230
         H           -2.525650288100    -1.252283822765     0.382140280362     1.007825032230
         H           -2.026921288100     0.133866177235     1.393209280362     1.007825032230
         H            2.098928211900    -1.674399922765     0.693342180362     1.007825032230
         H            3.247538711900     2.028225177235    -0.118984719638     1.007825032230
         H            2.075144711900     1.640042177235     1.151871280362     1.007825032230
         H            3.539136711900     0.666032177235     0.969348280362     1.007825032230
         H           -0.348816288100    -1.892543822765     0.876908280362     1.007825032230
         H           -4.026176288100     0.730229177235    -0.016604719638     1.007825032230
         H           -2.613462288100     1.706594177235    -0.468886719638     1.007825032230
         H           -3.098772288100     0.330013177235    -1.485212719638     1.007825032230

  Basis Set: AUG-CC-PVTZ
    Blend: AUG-CC-PVTZ
  Basis Set: (AUG-CC-PVTZ AUX)
    Blend: AUG-CC-PVTZ-JKFIT
	 Reference Energy          =    -309.1339121579604239 [Eh]
	 Singles Energy            =      -0.0000000000000000 [Eh]
	 Same-Spin Energy          =      -0.3139557729521336 [Eh]
	 Opposite-Spin Energy      =      -1.0999782130761293 [Eh]
	 Correlation Energy        =      -1.4139339860282629 [Eh]
	 Total Energy              =    -310.5478461439886928 [Eh]

	 ================> DF-SCS-MP2 Energies <==================
	-----------------------------------------------------------
	 SCS Same-Spin Scale       =       0.3333333333333333 [-]
	 SCS Opposite-Spin Scale   =       1.2000000000000000 [-]
	 SCS Same-Spin Energy      =      -0.1046519243173779 [Eh]
	 SCS Opposite-Spin Energy  =      -1.3199738556913552 [Eh]
	 SCS Correlation Energy    =      -1.4246257800087330 [Eh]
	 SCS Total Energy          =    -310.5585379379691631 [Eh]
	-----------------------------------------------------------

  Dipole Moment: [D]
     X:    -1.1215      Y:    -0.1486      Z:     0.7015     Total:     1.3312

*** Psi4 exiting successfully. Buy a developer a beer!
