                               Psi4 1.3.2 release

  ==> Input File <==

--------------------------------------------------------------------------
#psi4
#
memory 32 gb

molecule  {
0 1
  O       -0.8378389    -0.1544932    -0.2715226
  C        2.0174600     0.2824600    -0.5354820
  C       -2.1232200    -0.2252560     0.3552070
  C        1.3918360    -0.8685520     0.1861030
  C        2.7655740     1.2103670     0.4230210
  C        0.0733200    -1.0572940     0.3167640
  C       -3.0226980     0.6919650    -0.4518750
  H        2.7145670    -0.0909720    -1.2924960
  H        1.2438280     0.8410150    -1.0636660
  H       -2.5719222    -1.2323042     0.4093213
  H       -2.0263210     0.1331820     1.3936400
  H        2.0399100    -1.6071390     0.6510050
  H        3.2481390     2.0275410    -0.1185540
  H        2.0757450     1.6393580     1.1523020
  H        3.5397370     0.6653480     0.9697790
  H       -0.3482160    -1.8932280     0.8773390
  H       -4.0255760     0.7295450    -0.0161740
  H       -2.6128620     1.7059100    -0.4684560
  H       -3.0981720     0.3293290    -1.4847820
units angstrom
no_reorient  #important for SAPT in psi4, default
symmetry c1  #important for SAPT in psi4, default
}

set PROPERTIES_ORIGIN ["COM"]
properties('MP2/aug-cc-pvtz', properties = ['dipole'])
--------------------------------------------------------------------------

    Molecular point group: c1
  Charge       = 0
  Multiplicity = 1
  Basis Set: AUG-CC-PVTZ
    Blend: AUG-CC-PVTZ
  Basis Set: (AUG-CC-PVTZ AUX)
    Blend: AUG-CC-PVTZ-JKFIT

    Orbital Energies [Eh]
    ---------------------

    Doubly Occupied:

       1A    -20.573672     2A    -11.283256     3A    -11.280716
       4A    -11.217659     5A    -11.217564     6A    -11.215954
       7A    -11.208500     8A     -1.380925     9A     -1.075596
      10A     -1.021358    11A     -0.968338    12A     -0.849190
      13A     -0.840334    14A     -0.752241    15A     -0.679573
      16A     -0.653629    17A     -0.639250    18A     -0.596718
      19A     -0.561065    20A     -0.553624    21A     -0.539849
      22A     -0.523881    23A     -0.510226    24A     -0.500137
      25A     -0.480893    26A     -0.470579    27A     -0.465843
      28A     -0.330111

  @DF-RHF Final Energy:  -309.13611999204704

   => Energetics <=

    Nuclear Repulsion Energy =            301.6977043096726447
    One-Electron Energy =               -1016.8862826756648019
    Two-Electron Energy =                 406.0524583739451145
    Total Energy =                       -309.1361199920470426
  Basis Set: (AUG-CC-PVTZ AUX)
    Blend: AUG-CC-PVTZ-RI
    Molecular point group: c1

    Geometry (in Angstrom), charge = 0, multiplicity = 1:

       Center              X                  Y                   Z               Mass
    ------------   -----------------  -----------------  -----------------  -----------------
         O           -0.837902430473    -0.166544214015    -0.273511143619    15.994914619570
         C            2.017396469527     0.270408985985    -0.537470543619    12.000000000000
         C           -2.123283530473    -0.237307014015     0.353218456381    12.000000000000
         C            1.391772469527    -0.880603014015     0.184114456381    12.000000000000
         C            2.765510469527     1.198315985985     0.421032456381    12.000000000000
         C            0.073256469527    -1.069345014015     0.314775456381    12.000000000000
         C           -3.022761530473     0.679913985985    -0.453863543619    12.000000000000
         H            2.714503469527    -0.103023014015    -1.294484543619     1.007825032230
         H            1.243764469527     0.828963985985    -1.065654543619     1.007825032230
         H           -2.571985730473    -1.244355214015     0.407332756381     1.007825032230
         H           -2.026384530473     0.121130985985     1.391651456381     1.007825032230
         H            2.039846469527    -1.619190014015     0.649016456381     1.007825032230
         H            3.248075469527     2.015489985985    -0.120542543619     1.007825032230
         H            2.075681469527     1.627306985985     1.150313456381     1.007825032230
         H            3.539673469527     0.653296985985     0.967790456381     1.007825032230
         H           -0.348279530473    -1.905279014015     0.875350456381     1.007825032230
         H           -4.025639530473     0.717493985985    -0.018162543619     1.007825032230
         H           -2.612925530473     1.693858985985    -0.470444543619     1.007825032230
         H           -3.098235530473     0.317277985985    -1.486770543619     1.007825032230

  Basis Set: AUG-CC-PVTZ
    Blend: AUG-CC-PVTZ
  Basis Set: (AUG-CC-PVTZ AUX)
    Blend: AUG-CC-PVTZ-JKFIT
	 Reference Energy          =    -309.1361199920470426 [Eh]
	 Singles Energy            =      -0.0000000000000000 [Eh]
	 Same-Spin Energy          =      -0.3141367308588639 [Eh]
	 Opposite-Spin Energy      =      -1.1006076406656038 [Eh]
	 Correlation Energy        =      -1.4147443715244676 [Eh]
	 Total Energy              =    -310.5508643635715202 [Eh]

	 ================> DF-SCS-MP2 Energies <==================
	-----------------------------------------------------------
	 SCS Same-Spin Scale       =       0.3333333333333333 [-]
	 SCS Opposite-Spin Scale   =       1.2000000000000000 [-]
	 SCS Same-Spin Energy      =      -0.1047122436196213 [Eh]
	 SCS Opposite-Spin Energy  =      -1.3207291687987246 [Eh]
	 SCS Correlation Energy    =      -1.4254414124183459 [Eh]
	 SCS Total Energy          =    -310.5615614044654080 [Eh]
	-----------------------------------------------------------

  Dipole Moment: [D]
     X:    -0.8950      Y:    -0.3636      Z:     0.7601     Total:     1.2292

*** Psi4 exiting successfully. Buy a developer a beer!
