                               Psi4 1.4a3.dev225

  ==> Input File <==

--------------------------------------------------------------------------
#psi4
#
memory 32 gb

molecule  {
0 1
  O        0.9059480     0.1295110    -0.3069180
  C       -1.9753050    -0.3336000    -0.5537270
  C        2.1190110     0.1892690     0.4520280
  C       -1.3184330     0.9429980    -0.1246110
  C       -2.9908880    -0.8293550     0.4787900
  C        0.0027760     1.1130440     0.0171530
  C        3.0576820    -0.8509900    -0.1177330
  H       -2.4824890    -0.1840060    -1.5158280
  H       -1.2045440    -1.0918590    -0.7184600
  H        2.5525890     1.1965710     0.3749050
  H        1.9047370    -0.0062780     1.5110790
  H       -1.9523440     1.7996160     0.0958850
  H       -3.4787570    -1.7495600     0.1429400
  H       -2.4987140    -1.0317260     1.4340660
  H       -3.7695180    -0.0804100     0.6542360
  H        0.4195886     2.0137887     0.3324554
  H        4.0048870    -0.8497230     0.4289840
  H        2.6101410    -1.8440700    -0.0412770
  H        3.2577670    -0.6398860    -1.1701900
units angstrom
no_reorient  #important for SAPT in psi4, default
symmetry c1  #important for SAPT in psi4, default
}

set PROPERTIES_ORIGIN ["COM"]
properties('MP2/aug-cc-pvtz', properties = ['dipole'])
--------------------------------------------------------------------------

    Molecular point group: c1
  Charge       = 0
  Multiplicity = 1
  Basis Set: AUG-CC-PVTZ
    Blend: AUG-CC-PVTZ
  Basis Set: (AUG-CC-PVTZ AUX)
    Blend: AUG-CC-PVTZ-JKFIT

    Orbital Energies [Eh]
    ---------------------

    Doubly Occupied:

       1A    -20.570803     2A    -11.284230     3A    -11.272559
       4A    -11.219447     5A    -11.216069     6A    -11.214689
       7A    -11.208799     8A     -1.391472     9A     -1.074240
      10A     -1.025935    11A     -0.968459    12A     -0.852193
      13A     -0.843330    14A     -0.757411    15A     -0.689516
      16A     -0.655033    17A     -0.639725    18A     -0.599142
      19A     -0.564218    20A     -0.559291    21A     -0.540973
      22A     -0.526540    23A     -0.508343    24A     -0.502009
      25A     -0.480252    26A     -0.474378    27A     -0.461873
      28A     -0.326962

  @DF-RHF Final Energy:  -309.14044795965077

   => Energetics <=

    Nuclear Repulsion Energy =            301.4571275847684433
    One-Electron Energy =               -1016.3393702310905837
    Two-Electron Energy =                 405.7417946866713123
    Total Energy =                       -309.1404479596507713
  Basis Set: (AUG-CC-PVTZ AUX)
    Blend: AUG-CC-PVTZ-RI
    Molecular point group: c1

    Geometry (in Angstrom), charge = 0, multiplicity = 1:

       Center              X                  Y                   Z               Mass
    ------------   -----------------  -----------------  -----------------  -----------------
         O            0.900082822628     0.105921366242    -0.291476025471    15.994914619570
         C           -1.981170177372    -0.357189633758    -0.538285025471    12.000000000000
         C            2.113145822628     0.165679366242     0.467469974529    12.000000000000
         C           -1.324298177372     0.919408366242    -0.109169025471    12.000000000000
         C           -2.996753177372    -0.852944633758     0.494231974529    12.000000000000
         C           -0.003089177372     1.089454366242     0.032594974529    12.000000000000
         C            3.051816822628    -0.874579633758    -0.102291025471    12.000000000000
         H           -2.488354177372    -0.207595633758    -1.500386025471     1.007825032230
         H           -1.210409177372    -1.115448633758    -0.703018025471     1.007825032230
         H            2.546723822628     1.172981366242     0.390346974529     1.007825032230
         H            1.898871822628    -0.029867633758     1.526520974529     1.007825032230
         H           -1.958209177372     1.776026366242     0.111326974529     1.007825032230
         H           -3.484622177372    -1.773149633758     0.158381974529     1.007825032230
         H           -2.504579177372    -1.055315633758     1.449507974529     1.007825032230
         H           -3.775383177372    -0.103999633758     0.669677974529     1.007825032230
         H            0.413723422628     1.990199066242     0.347897374529     1.007825032230
         H            3.999021822628    -0.873312633758     0.444425974529     1.007825032230
         H            2.604275822628    -1.867659633758    -0.025835025471     1.007825032230
         H            3.251901822628    -0.663475633758    -1.154748025471     1.007825032230

  Basis Set: AUG-CC-PVTZ
    Blend: AUG-CC-PVTZ
  Basis Set: (AUG-CC-PVTZ AUX)
    Blend: AUG-CC-PVTZ-JKFIT
	 Reference Energy          =    -309.1404479596507713 [Eh]
	 Singles Energy            =      -0.0000000000000000 [Eh]
	 Same-Spin Energy          =      -0.3135991649815281 [Eh]
	 Opposite-Spin Energy      =      -1.0987330959730084 [Eh]
	 Correlation Energy        =      -1.4123322609545366 [Eh]
	 Total Energy              =    -310.5527802206053138 [Eh]

	 ================> DF-SCS-MP2 Energies <==================
	-----------------------------------------------------------
	 SCS Same-Spin Scale       =       0.3333333333333333 [-]
	 SCS Opposite-Spin Scale   =       1.2000000000000000 [-]
	 SCS Same-Spin Energy      =      -0.1045330549938427 [Eh]
	 SCS Opposite-Spin Energy  =      -1.3184797151676100 [Eh]
	 SCS Correlation Energy    =      -1.4230127701614528 [Eh]
	 SCS Total Energy          =    -310.5634607298122205 [Eh]
	-----------------------------------------------------------

  Dipole Moment: [D]
     X:     1.0195      Y:     0.3147      Z:     0.7660     Total:     1.3134

*** Psi4 exiting successfully. Buy a developer a beer!
