                               Psi4 1.3.2 release

  ==> Input File <==

--------------------------------------------------------------------------
#psi4
#
memory 32 gb

molecule  {
0 1
  O       -0.8411900    -0.2286010    -0.2822800
  C        2.0174600     0.2824600    -0.5354820
  C       -2.2127608    -0.2250224     0.3997310
  C        1.3918360    -0.8685520     0.1861030
  C        2.7655740     1.2103670     0.4230210
  C        0.0733200    -1.0572940     0.3167640
  C       -3.0226980     0.6919650    -0.4518750
  H        2.7145670    -0.0909720    -1.2924960
  H        1.2438280     0.8410150    -1.0636660
  H       -2.5250500    -1.2529680     0.3825710
  H       -2.0263210     0.1331820     1.3936400
  H        2.0399100    -1.6071390     0.6510050
  H        3.2481390     2.0275410    -0.1185540
  H        2.0757450     1.6393580     1.1523020
  H        3.5397370     0.6653480     0.9697790
  H       -0.3482160    -1.8932280     0.8773390
  H       -4.0255760     0.7295450    -0.0161740
  H       -2.6128620     1.7059100    -0.4684560
  H       -3.0981720     0.3293290    -1.4847820
units angstrom
no_reorient  #important for SAPT in psi4, default
symmetry c1  #important for SAPT in psi4, default
}

set PROPERTIES_ORIGIN ["COM"]
properties('MP2/aug-cc-pvtz', properties = ['dipole'])
--------------------------------------------------------------------------

    Molecular point group: c1
  Charge       = 0
  Multiplicity = 1
  Basis Set: AUG-CC-PVTZ
    Blend: AUG-CC-PVTZ
  Basis Set: (AUG-CC-PVTZ AUX)
    Blend: AUG-CC-PVTZ-JKFIT

    Orbital Energies [Eh]
    ---------------------

    Doubly Occupied:

       1A    -20.562402     2A    -11.289875     3A    -11.272800
       4A    -11.224903     5A    -11.210722     6A    -11.206955
       7A    -11.204452     8A     -1.363277     9A     -1.070094
      10A     -1.032544    11A     -0.963013    12A     -0.852609
      13A     -0.841018    14A     -0.742827    15A     -0.677382
      16A     -0.654529    17A     -0.635097    18A     -0.592523
      19A     -0.559875    20A     -0.555864    21A     -0.543593
      22A     -0.519676    23A     -0.508936    24A     -0.506268
      25A     -0.482643    26A     -0.473214    27A     -0.460042
      28A     -0.318698

  @DF-RHF Final Energy:  -309.13175390360288

   => Energetics <=

    Nuclear Repulsion Energy =            300.7291242102259048
    One-Electron Energy =               -1015.0700957777764870
    Two-Electron Energy =                 405.2092176639476975
    Total Energy =                       -309.1317539036028847
  Basis Set: (AUG-CC-PVTZ AUX)
    Blend: AUG-CC-PVTZ-RI
    Molecular point group: c1

    Geometry (in Angstrom), charge = 0, multiplicity = 1:

       Center              X                  Y                   Z               Mass
    ------------   -----------------  -----------------  -----------------  -----------------
         O           -0.830454609716    -0.228628989980    -0.287618215443    15.994914619570
         C            2.028195390284     0.282432010020    -0.540820215443    12.000000000000
         C           -2.202025409716    -0.225050389980     0.394392784557    12.000000000000
         C            1.402571390284    -0.868579989980     0.180764784557    12.000000000000
         C            2.776309390284     1.210339010020     0.417682784557    12.000000000000
         C            0.084055390284    -1.057321989980     0.311425784557    12.000000000000
         C           -3.011962609716     0.691937010020    -0.457213215443    12.000000000000
         H            2.725302390284    -0.090999989980    -1.297834215443     1.007825032230
         H            1.254563390284     0.840987010020    -1.069004215443     1.007825032230
         H           -2.514314609716    -1.252995989980     0.377232784557     1.007825032230
         H           -2.015585609716     0.133154010020     1.388301784557     1.007825032230
         H            2.050645390284    -1.607166989980     0.645666784557     1.007825032230
         H            3.258874390284     2.027513010020    -0.123892215443     1.007825032230
         H            2.086480390284     1.639330010020     1.146963784557     1.007825032230
         H            3.550472390284     0.665320010020     0.964440784557     1.007825032230
         H           -0.337480609716    -1.893255989980     0.872000784557     1.007825032230
         H           -4.014840609716     0.729517010020    -0.021512215443     1.007825032230
         H           -2.602126609716     1.705882010020    -0.473794215443     1.007825032230
         H           -3.087436609716     0.329301010020    -1.490120215443     1.007825032230

  Basis Set: AUG-CC-PVTZ
    Blend: AUG-CC-PVTZ
  Basis Set: (AUG-CC-PVTZ AUX)
    Blend: AUG-CC-PVTZ-JKFIT
	 Reference Energy          =    -309.1317539036028847 [Eh]
	 Singles Energy            =      -0.0000000000000000 [Eh]
	 Same-Spin Energy          =      -0.3145110071470478 [Eh]
	 Opposite-Spin Energy      =      -1.1011975751786851 [Eh]
	 Correlation Energy        =      -1.4157085823257329 [Eh]
	 Total Energy              =    -310.5474624859286337 [Eh]

	 ================> DF-SCS-MP2 Energies <==================
	-----------------------------------------------------------
	 SCS Same-Spin Scale       =       0.3333333333333333 [-]
	 SCS Opposite-Spin Scale   =       1.2000000000000000 [-]
	 SCS Same-Spin Energy      =      -0.1048370023823492 [Eh]
	 SCS Opposite-Spin Energy  =      -1.3214370902144221 [Eh]
	 SCS Correlation Energy    =      -1.4262740925967714 [Eh]
	 SCS Total Energy          =    -310.5580279961996553 [Eh]
	-----------------------------------------------------------

  Dipole Moment: [D]
     X:    -1.6087      Y:    -0.1355      Z:     0.8265     Total:     1.8136

*** Psi4 exiting successfully. Buy a developer a beer!
