                               Psi4 1.3.2 release

  ==> Input File <==

--------------------------------------------------------------------------
#psi4
#
memory 32 gb

molecule  {
0 1
  O       -0.8411900    -0.2286010    -0.2822800
  C        2.0174600     0.2824600    -0.5354820
  C       -2.1146941    -0.2417313     0.3719499
  C        1.3918360    -0.8685520     0.1861030
  C        2.7655740     1.2103670     0.4230210
  C        0.0567933    -1.0634921     0.3329412
  C       -3.0226980     0.6919650    -0.4518750
  H        2.7145670    -0.0909720    -1.2924960
  H        1.2438280     0.8410150    -1.0636660
  H       -2.5250500    -1.2529680     0.3825710
  H       -2.0263210     0.1331820     1.3936400
  H        2.0399100    -1.6071390     0.6510050
  H        3.2481390     2.0275410    -0.1185540
  H        2.0757450     1.6393580     1.1523020
  H        3.5397370     0.6653480     0.9697790
  H       -0.3482160    -1.8932280     0.8773390
  H       -4.0255760     0.7295450    -0.0161740
  H       -2.6128620     1.7059100    -0.4684560
  H       -3.0981720     0.3293290    -1.4847820
units angstrom
no_reorient  #important for SAPT in psi4, default
symmetry c1  #important for SAPT in psi4, default
}

set PROPERTIES_ORIGIN ["COM"]
properties('MP2/aug-cc-pvtz', properties = ['dipole'])
--------------------------------------------------------------------------

    Molecular point group: c1
  Charge       = 0
  Multiplicity = 1
  Basis Set: AUG-CC-PVTZ
    Blend: AUG-CC-PVTZ
  Basis Set: (AUG-CC-PVTZ AUX)
    Blend: AUG-CC-PVTZ-JKFIT

    Orbital Energies [Eh]
    ---------------------

    Doubly Occupied:

       1A    -20.573930     2A    -11.285168     3A    -11.278698
       4A    -11.221345     5A    -11.216321     6A    -11.214956
       7A    -11.207509     8A     -1.394967     9A     -1.071522
      10A     -1.021426    11A     -0.963332    12A     -0.852050
      13A     -0.844617    14A     -0.755578    15A     -0.686470
      16A     -0.657206    17A     -0.640369    18A     -0.597655
      19A     -0.559359    20A     -0.556479    21A     -0.542220
      22A     -0.525042    23A     -0.510401    24A     -0.498660
      25A     -0.480538    26A     -0.475077    27A     -0.466792
      28A     -0.321969

  @DF-RHF Final Energy:  -309.13855547929472

   => Energetics <=

    Nuclear Repulsion Energy =            301.8453797357101962
    One-Electron Energy =               -1017.1285566959653579
    Two-Electron Energy =                 406.1446214809603816
    Total Energy =                       -309.1385554792947232
  Basis Set: (AUG-CC-PVTZ AUX)
    Blend: AUG-CC-PVTZ-RI
    Molecular point group: c1

    Geometry (in Angstrom), charge = 0, multiplicity = 1:

       Center              X                  Y                   Z               Mass
    ------------   -----------------  -----------------  -----------------  -----------------
         O           -0.840230727057    -0.225882589196    -0.286226983066    15.994914619570
         C            2.018419272943     0.285178410804    -0.539428983066    12.000000000000
         C           -2.113734827057    -0.239012889196     0.368002916934    12.000000000000
         C            1.392795272943    -0.865833589196     0.182156016934    12.000000000000
         C            2.766533272943     1.213085410804     0.419074016934    12.000000000000
         C            0.057752572943    -1.060773689196     0.328994216934    12.000000000000
         C           -3.021738727057     0.694683410804    -0.455821983066    12.000000000000
         H            2.715526272943    -0.088253589196    -1.296442983066     1.007825032230
         H            1.244787272943     0.843733410804    -1.067612983066     1.007825032230
         H           -2.524090727057    -1.250249589196     0.378624016934     1.007825032230
         H           -2.025361727057     0.135900410804     1.389693016934     1.007825032230
         H            2.040869272943    -1.604420589196     0.647058016934     1.007825032230
         H            3.249098272943     2.030259410804    -0.122500983066     1.007825032230
         H            2.076704272943     1.642076410804     1.148355016934     1.007825032230
         H            3.540696272943     0.668066410804     0.965832016934     1.007825032230
         H           -0.347256727057    -1.890509589196     0.873392016934     1.007825032230
         H           -4.024616727057     0.732263410804    -0.020120983066     1.007825032230
         H           -2.611902727057     1.708628410804    -0.472402983066     1.007825032230
         H           -3.097212727057     0.332047410804    -1.488728983066     1.007825032230

  Basis Set: AUG-CC-PVTZ
    Blend: AUG-CC-PVTZ
  Basis Set: (AUG-CC-PVTZ AUX)
    Blend: AUG-CC-PVTZ-JKFIT
	 Reference Energy          =    -309.1385554792947232 [Eh]
	 Singles Energy            =      -0.0000000000000000 [Eh]
	 Same-Spin Energy          =      -0.3139675340458550 [Eh]
	 Opposite-Spin Energy      =      -1.0999067423752058 [Eh]
	 Correlation Energy        =      -1.4138742764210608 [Eh]
	 Total Energy              =    -310.5524297557157638 [Eh]

	 ================> DF-SCS-MP2 Energies <==================
	-----------------------------------------------------------
	 SCS Same-Spin Scale       =       0.3333333333333333 [-]
	 SCS Opposite-Spin Scale   =       1.2000000000000000 [-]
	 SCS Same-Spin Energy      =      -0.1046558446819517 [Eh]
	 SCS Opposite-Spin Energy  =      -1.3198880908502468 [Eh]
	 SCS Correlation Energy    =      -1.4245439355321985 [Eh]
	 SCS Total Energy          =    -310.5630994148269224 [Eh]
	-----------------------------------------------------------

  Dipole Moment: [D]
     X:    -1.0978      Y:    -0.2272      Z:     0.7440     Total:     1.3455

*** Psi4 exiting successfully. Buy a developer a beer!
