                               Psi4 1.3.2 release

  ==> Input File <==

--------------------------------------------------------------------------
#psi4
#
memory 32 gb

molecule  {
0 1
  O       -0.8327971    -0.2443952    -0.2648286
  C        2.0174600     0.2824600    -0.5354820
  C       -2.1232200    -0.2252560     0.3552070
  C        1.3918360    -0.8685520     0.1861030
  C        2.7655740     1.2103670     0.4230210
  C        0.0733200    -1.0572940     0.3167640
  C       -3.0425229     0.6869401    -0.4350567
  H        2.7145670    -0.0909720    -1.2924960
  H        1.2438280     0.8410150    -1.0636660
  H       -2.5250500    -1.2529680     0.3825710
  H       -2.0263210     0.1331820     1.3936400
  H        2.0399100    -1.6071390     0.6510050
  H        3.2481390     2.0275410    -0.1185540
  H        2.0757450     1.6393580     1.1523020
  H        3.5397370     0.6653480     0.9697790
  H       -0.3482160    -1.8932280     0.8773390
  H       -4.0255760     0.7295450    -0.0161740
  H       -2.6128620     1.7059100    -0.4684560
  H       -3.0981720     0.3293290    -1.4847820
units angstrom
no_reorient  #important for SAPT in psi4, default
symmetry c1  #important for SAPT in psi4, default
}

set PROPERTIES_ORIGIN ["COM"]
properties('MP2/aug-cc-pvtz', properties = ['dipole'])
--------------------------------------------------------------------------

    Molecular point group: c1
  Charge       = 0
  Multiplicity = 1
  Basis Set: AUG-CC-PVTZ
    Blend: AUG-CC-PVTZ
  Basis Set: (AUG-CC-PVTZ AUX)
    Blend: AUG-CC-PVTZ-JKFIT

    Orbital Energies [Eh]
    ---------------------

    Doubly Occupied:

       1A    -20.573042     2A    -11.288491     3A    -11.277167
       4A    -11.223226     5A    -11.213752     6A    -11.210643
       7A    -11.206561     8A     -1.401685     9A     -1.074331
      10A     -1.027466    11A     -0.966252    12A     -0.854085
      13A     -0.841032    14A     -0.756323    15A     -0.686107
      16A     -0.655844    17A     -0.644229    18A     -0.597648
      19A     -0.564302    20A     -0.557502    21A     -0.544862
      22A     -0.530842    23A     -0.508185    24A     -0.500389
      25A     -0.477816    26A     -0.473611    27A     -0.462984
      28A     -0.322402

  @DF-RHF Final Energy:  -309.14065165684741

   => Energetics <=

    Nuclear Repulsion Energy =            302.3587902337405922
    One-Electron Energy =               -1018.1173260418729569
    Two-Electron Energy =                 406.6178841512849544
    Total Energy =                       -309.1406516568474103
  Basis Set: (AUG-CC-PVTZ AUX)
    Blend: AUG-CC-PVTZ-RI
    Molecular point group: c1

    Geometry (in Angstrom), charge = 0, multiplicity = 1:

       Center              X                  Y                   Z               Mass
    ------------   -----------------  -----------------  -----------------  -----------------
         O           -0.831761440089    -0.241268702833    -0.269633941245    15.994914619570
         C            2.018495659911     0.285586497167    -0.540287341245    12.000000000000
         C           -2.122184340089    -0.222129502833     0.350401658755    12.000000000000
         C            1.392871659911    -0.865425502833     0.181297658755    12.000000000000
         C            2.766609659911     1.213493497167     0.418215658755    12.000000000000
         C            0.074355659911    -1.054167502833     0.311958658755    12.000000000000
         C           -3.041487240089     0.690066597167    -0.439862041245    12.000000000000
         H            2.715602659911    -0.087845502833    -1.297301341245     1.007825032230
         H            1.244863659911     0.844141497167    -1.068471341245     1.007825032230
         H           -2.524014340089    -1.249841502833     0.377765658755     1.007825032230
         H           -2.025285340089     0.136308497167     1.388834658755     1.007825032230
         H            2.040945659911    -1.604012502833     0.646199658755     1.007825032230
         H            3.249174659911     2.030667497167    -0.123359341245     1.007825032230
         H            2.076780659911     1.642484497167     1.147496658755     1.007825032230
         H            3.540772659911     0.668474497167     0.964973658755     1.007825032230
         H           -0.347180340089    -1.890101502833     0.872533658755     1.007825032230
         H           -4.024540340089     0.732671497167    -0.020979341245     1.007825032230
         H           -2.611826340089     1.709036497167    -0.473261341245     1.007825032230
         H           -3.097136340089     0.332455497167    -1.489587341245     1.007825032230

  Basis Set: AUG-CC-PVTZ
    Blend: AUG-CC-PVTZ
  Basis Set: (AUG-CC-PVTZ AUX)
    Blend: AUG-CC-PVTZ-JKFIT
	 Reference Energy          =    -309.1406516568474103 [Eh]
	 Singles Energy            =      -0.0000000000000000 [Eh]
	 Same-Spin Energy          =      -0.3137239234562054 [Eh]
	 Opposite-Spin Energy      =      -1.0985468437809864 [Eh]
	 Correlation Energy        =      -1.4122707672371919 [Eh]
	 Total Energy              =    -310.5529224240846133 [Eh]

	 ================> DF-SCS-MP2 Energies <==================
	-----------------------------------------------------------
	 SCS Same-Spin Scale       =       0.3333333333333333 [-]
	 SCS Opposite-Spin Scale   =       1.2000000000000000 [-]
	 SCS Same-Spin Energy      =      -0.1045746411520685 [Eh]
	 SCS Opposite-Spin Energy  =      -1.3182562125371837 [Eh]
	 SCS Correlation Energy    =      -1.4228308536892522 [Eh]
	 SCS Total Energy          =    -310.5634825105366872 [Eh]
	-----------------------------------------------------------

  Dipole Moment: [D]
     X:    -1.2530      Y:    -0.1330      Z:     0.6890     Total:     1.4361

*** Psi4 exiting successfully. Buy a developer a beer!
