                               Psi4 1.3.2 release

  ==> Input File <==

--------------------------------------------------------------------------
#psi4
#
memory 32 gb

molecule  {
0 1
  O       -0.8411900    -0.2286010    -0.2822800
  C        2.0174600     0.2824600    -0.5354820
  C       -2.1232200    -0.2252560     0.3552070
  C        1.3918360    -0.8685520     0.1861030
  C        2.7655740     1.2103670     0.4230210
  C        0.0733200    -1.0572940     0.3167640
  C       -3.0226980     0.6919650    -0.4518750
  H        2.7145670    -0.0909720    -1.2924960
  H        1.2438280     0.8410150    -1.0636660
  H       -2.5250500    -1.2529680     0.3825710
  H       -2.0263210     0.1331820     1.3936400
  H        2.0399100    -1.6071390     0.6510050
  H        3.2481390     2.0275410    -0.1185540
  H        2.0757450     1.6393580     1.1523020
  H        3.5397370     0.6653480     0.9697790
  H       -0.3095856    -1.8166213     0.8259668
  H       -4.0255760     0.7295450    -0.0161740
  H       -2.6128620     1.7059100    -0.4684560
  H       -3.0981720     0.3293290    -1.4847820
units angstrom
no_reorient  #important for SAPT in psi4, default
symmetry c1  #important for SAPT in psi4, default
}

set PROPERTIES_ORIGIN ["COM"]
properties('MP2/aug-cc-pvtz', properties = ['dipole'])
--------------------------------------------------------------------------

    Molecular point group: c1
  Charge       = 0
  Multiplicity = 1
  Basis Set: AUG-CC-PVTZ
    Blend: AUG-CC-PVTZ
  Basis Set: (AUG-CC-PVTZ AUX)
    Blend: AUG-CC-PVTZ-JKFIT

    Orbital Energies [Eh]
    ---------------------

    Doubly Occupied:

       1A    -20.570442     2A    -11.286186     3A    -11.266297
       4A    -11.220967     5A    -11.214201     6A    -11.212822
       7A    -11.207182     8A     -1.392446     9A     -1.075341
      10A     -1.025033    11A     -0.969494    12A     -0.854103
      13A     -0.845040    14A     -0.760392    15A     -0.693580
      16A     -0.657253    17A     -0.641976    18A     -0.597421
      19A     -0.560522    20A     -0.559476    21A     -0.543284
      22A     -0.527125    23A     -0.510192    24A     -0.501291
      25A     -0.480188    26A     -0.473081    27A     -0.464842
      28A     -0.325172

  @DF-RHF Final Energy:  -309.13548615864499

   => Energetics <=

    Nuclear Repulsion Energy =            302.6508424032210769
    One-Electron Energy =               -1018.7019569757787849
    Two-Electron Energy =                 406.9156284139127138
    Total Energy =                       -309.1354861586449942
  Basis Set: (AUG-CC-PVTZ AUX)
    Blend: AUG-CC-PVTZ-RI
    Molecular point group: c1

    Geometry (in Angstrom), charge = 0, multiplicity = 1:

       Center              X                  Y                   Z               Mass
    ------------   -----------------  -----------------  -----------------  -----------------
         O           -0.841578952472    -0.229372359255    -0.281762794045    15.994914619570
         C            2.017071047528     0.281688640745    -0.534964794045    12.000000000000
         C           -2.123608952472    -0.226027359255     0.355724205955    12.000000000000
         C            1.391447047528    -0.869323359255     0.186620205955    12.000000000000
         C            2.765185047528     1.209595640745     0.423538205955    12.000000000000
         C            0.072931047528    -1.058065359255     0.317281205955    12.000000000000
         C           -3.023086952472     0.691193640745    -0.451357794045    12.000000000000
         H            2.714178047528    -0.091743359255    -1.291978794045     1.007825032230
         H            1.243439047528     0.840243640745    -1.063148794045     1.007825032230
         H           -2.525438952472    -1.253739359255     0.383088205955     1.007825032230
         H           -2.026709952472     0.132410640745     1.394157205955     1.007825032230
         H            2.039521047528    -1.607910359255     0.651522205955     1.007825032230
         H            3.247750047528     2.026769640745    -0.118036794045     1.007825032230
         H            2.075356047528     1.638586640745     1.152819205955     1.007825032230
         H            3.539348047528     0.664576640745     0.970296205955     1.007825032230
         H           -0.309974552472    -1.817392659255     0.826484005955     1.007825032230
         H           -4.025964952472     0.728773640745    -0.015656794045     1.007825032230
         H           -2.613250952472     1.705138640745    -0.467938794045     1.007825032230
         H           -3.098560952472     0.328557640745    -1.484264794045     1.007825032230

  Basis Set: AUG-CC-PVTZ
    Blend: AUG-CC-PVTZ
  Basis Set: (AUG-CC-PVTZ AUX)
    Blend: AUG-CC-PVTZ-JKFIT
	 Reference Energy          =    -309.1354861586449942 [Eh]
	 Singles Energy            =      -0.0000000000000000 [Eh]
	 Same-Spin Energy          =      -0.3135461066678873 [Eh]
	 Opposite-Spin Energy      =      -1.0985514864229255 [Eh]
	 Correlation Energy        =      -1.4120975930908128 [Eh]
	 Total Energy              =    -310.5475837517358286 [Eh]

	 ================> DF-SCS-MP2 Energies <==================
	-----------------------------------------------------------
	 SCS Same-Spin Scale       =       0.3333333333333333 [-]
	 SCS Opposite-Spin Scale   =       1.2000000000000000 [-]
	 SCS Same-Spin Energy      =      -0.1045153688892958 [Eh]
	 SCS Opposite-Spin Energy  =      -1.3182617837075106 [Eh]
	 SCS Correlation Energy    =      -1.4227771525968063 [Eh]
	 SCS Total Energy          =    -310.5582633112417739 [Eh]
	-----------------------------------------------------------

  Dipole Moment: [D]
     X:    -1.1007      Y:    -0.2292      Z:     0.7441     Total:     1.3483

*** Psi4 exiting successfully. Buy a developer a beer!
