                               Psi4 1.3.2 release

  ==> Input File <==

--------------------------------------------------------------------------
#psi4
#
memory 32 gb

molecule  {
0 1
  O       -0.8453772    -0.2780136    -0.2884825
  C        2.0174600     0.2824600    -0.5354820
  C       -2.1232200    -0.2252560     0.3552070
  C        1.3918360    -0.8685520     0.1861030
  C        2.7655740     1.2103670     0.4230210
  C        0.0733200    -1.0572940     0.3167640
  C       -3.0226980     0.6919650    -0.4518750
  H        2.7145670    -0.0909720    -1.2924960
  H        1.2438280     0.8410150    -1.0636660
  H       -2.4931820    -1.2651821     0.3646912
  H       -2.0263210     0.1331820     1.3936400
  H        2.0399100    -1.6071390     0.6510050
  H        3.2481390     2.0275410    -0.1185540
  H        2.0757450     1.6393580     1.1523020
  H        3.5397370     0.6653480     0.9697790
  H       -0.3482160    -1.8932280     0.8773390
  H       -4.0255760     0.7295450    -0.0161740
  H       -2.6128620     1.7059100    -0.4684560
  H       -3.0981720     0.3293290    -1.4847820
units angstrom
no_reorient  #important for SAPT in psi4, default
symmetry c1  #important for SAPT in psi4, default
}

set PROPERTIES_ORIGIN ["COM"]
properties('MP2/aug-cc-pvtz', properties = ['dipole'])
--------------------------------------------------------------------------

    Molecular point group: c1
  Charge       = 0
  Multiplicity = 1
  Basis Set: AUG-CC-PVTZ
    Blend: AUG-CC-PVTZ
  Basis Set: (AUG-CC-PVTZ AUX)
    Blend: AUG-CC-PVTZ-JKFIT

    Orbital Energies [Eh]
    ---------------------

    Doubly Occupied:

       1A    -20.571308     2A    -11.288461     3A    -11.276645
       4A    -11.223375     5A    -11.213945     6A    -11.210995
       7A    -11.206754     8A     -1.401445     9A     -1.074330
      10A     -1.027340    11A     -0.965899    12A     -0.854433
      13A     -0.841009    14A     -0.756180    15A     -0.687217
      16A     -0.653966    17A     -0.644288    18A     -0.598590
      19A     -0.561780    20A     -0.558837    21A     -0.543523
      22A     -0.530535    23A     -0.509300    24A     -0.501827
      25A     -0.478395    26A     -0.474030    27A     -0.461122
      28A     -0.323039

  @DF-RHF Final Energy:  -309.14090245505253

   => Energetics <=

    Nuclear Repulsion Energy =            302.3839098554956877
    One-Electron Energy =               -1018.1724926155231969
    Two-Electron Energy =                 406.6476803049750401
    Total Energy =                       -309.1409024550525260
  Basis Set: (AUG-CC-PVTZ AUX)
    Blend: AUG-CC-PVTZ-RI
    Molecular point group: c1

    Geometry (in Angstrom), charge = 0, multiplicity = 1:

       Center              X                  Y                   Z               Mass
    ------------   -----------------  -----------------  -----------------  -----------------
         O           -0.845028915024    -0.269994105415    -0.287311335070    15.994914619570
         C            2.017808284976     0.290479494585    -0.534310835070    12.000000000000
         C           -2.122871715024    -0.217236505415     0.356378164930    12.000000000000
         C            1.392184284976    -0.860532505415     0.187274164930    12.000000000000
         C            2.765922284976     1.218386494585     0.424192164930    12.000000000000
         C            0.073668284976    -1.049274505415     0.317935164930    12.000000000000
         C           -3.022349715024     0.699984494585    -0.450703835070    12.000000000000
         H            2.714915284976    -0.082952505415    -1.291324835070     1.007825032230
         H            1.244176284976     0.849034494585    -1.062494835070     1.007825032230
         H           -2.492833715024    -1.257162605415     0.365862364930     1.007825032230
         H           -2.025972715024     0.141201494585     1.394811164930     1.007825032230
         H            2.040258284976    -1.599119505415     0.652176164930     1.007825032230
         H            3.248487284976     2.035560494585    -0.117382835070     1.007825032230
         H            2.076093284976     1.647377494585     1.153473164930     1.007825032230
         H            3.540085284976     0.673367494585     0.970950164930     1.007825032230
         H           -0.347867715024    -1.885208505415     0.878510164930     1.007825032230
         H           -4.025227715024     0.737564494585    -0.015002835070     1.007825032230
         H           -2.612513715024     1.713929494585    -0.467284835070     1.007825032230
         H           -3.097823715024     0.337348494585    -1.483610835070     1.007825032230

  Basis Set: AUG-CC-PVTZ
    Blend: AUG-CC-PVTZ
  Basis Set: (AUG-CC-PVTZ AUX)
    Blend: AUG-CC-PVTZ-JKFIT
	 Reference Energy          =    -309.1409024550525260 [Eh]
	 Singles Energy            =      -0.0000000000000000 [Eh]
	 Same-Spin Energy          =      -0.3137211238880921 [Eh]
	 Opposite-Spin Energy      =      -1.0985074231645879 [Eh]
	 Correlation Energy        =      -1.4122285470526801 [Eh]
	 Total Energy              =    -310.5531310021052036 [Eh]

	 ================> DF-SCS-MP2 Energies <==================
	-----------------------------------------------------------
	 SCS Same-Spin Scale       =       0.3333333333333333 [-]
	 SCS Opposite-Spin Scale   =       1.2000000000000000 [-]
	 SCS Same-Spin Energy      =      -0.1045737079626974 [Eh]
	 SCS Opposite-Spin Energy  =      -1.3182089077975054 [Eh]
	 SCS Correlation Energy    =      -1.4227826157602028 [Eh]
	 SCS Total Energy          =    -310.5636850708127099 [Eh]
	-----------------------------------------------------------

  Dipole Moment: [D]
     X:    -1.2198      Y:    -0.0708      Z:     0.6979     Total:     1.4071

*** Psi4 exiting successfully. Buy a developer a beer!
