                               Psi4 1.3.2 release

  ==> Input File <==

--------------------------------------------------------------------------
#psi4
#
memory 32 gb

molecule  {
0 1
  O       -0.8500726    -0.2353481    -0.2779336
  C        2.0174600     0.2824600    -0.5354820
  C       -2.1232200    -0.2252560     0.3552070
  C        1.3918360    -0.8685520     0.1861030
  C        2.7655740     1.2103670     0.4230210
  C        0.0733200    -1.0572940     0.3167640
  C       -3.0226980     0.6919650    -0.4518750
  H        2.7145670    -0.0909720    -1.2924960
  H        1.2438280     0.8410150    -1.0636660
  H       -2.5250500    -1.2529680     0.3825710
  H       -2.0263210     0.1331820     1.3936400
  H        2.0399100    -1.6071390     0.6510050
  H        3.2481390     2.0275410    -0.1185540
  H        2.0757450     1.6393580     1.1523020
  H        3.5397370     0.6653480     0.9697790
  H       -0.3569794    -1.8902963     0.8750400
  H       -4.0255760     0.7295450    -0.0161740
  H       -2.6128620     1.7059100    -0.4684560
  H       -3.0981720     0.3293290    -1.4847820
units angstrom
no_reorient  #important for SAPT in psi4, default
symmetry c1  #important for SAPT in psi4, default
}

set PROPERTIES_ORIGIN ["COM"]
properties('MP2/aug-cc-pvtz', properties = ['dipole'])
--------------------------------------------------------------------------

    Molecular point group: c1
  Charge       = 0
  Multiplicity = 1
  Basis Set: AUG-CC-PVTZ
    Blend: AUG-CC-PVTZ
  Basis Set: (AUG-CC-PVTZ AUX)
    Blend: AUG-CC-PVTZ-JKFIT

    Orbital Energies [Eh]
    ---------------------

    Doubly Occupied:

       1A    -20.571747     2A    -11.285444     3A    -11.278863
       4A    -11.220749     5A    -11.215297     6A    -11.214154
       7A    -11.207704     8A     -1.395743     9A     -1.075399
      10A     -1.025092    11A     -0.966988    12A     -0.852358
      13A     -0.841157    14A     -0.756133    15A     -0.684384
      16A     -0.654918    17A     -0.643459    18A     -0.598303
      19A     -0.560902    20A     -0.557535    21A     -0.542011
      22A     -0.528713    23A     -0.510027    24A     -0.500518
      25A     -0.479199    26A     -0.472984    27A     -0.463162
      28A     -0.326211

  @DF-RHF Final Energy:  -309.14129345861085

   => Energetics <=

    Nuclear Repulsion Energy =            302.2229511204851065
    One-Electron Energy =               -1017.8701793810059826
    Two-Electron Energy =                 406.5059348019100867
    Total Energy =                       -309.1412934586108463
  Basis Set: (AUG-CC-PVTZ AUX)
    Blend: AUG-CC-PVTZ-RI
    Molecular point group: c1

    Geometry (in Angstrom), charge = 0, multiplicity = 1:

       Center              X                  Y                   Z               Mass
    ------------   -----------------  -----------------  -----------------  -----------------
         O           -0.848564826183    -0.234299367793    -0.278605113247    15.994914619570
         C            2.018967773817     0.283508732207    -0.536153513247    12.000000000000
         C           -2.121712226183    -0.224207267793     0.354535486753    12.000000000000
         C            1.393343773817    -0.867503267793     0.185431486753    12.000000000000
         C            2.767081773817     1.211415732207     0.422349486753    12.000000000000
         C            0.074827773817    -1.056245267793     0.316092486753    12.000000000000
         C           -3.021190226183     0.693013732207    -0.452546513247    12.000000000000
         H            2.716074773817    -0.089923267793    -1.293167513247     1.007825032230
         H            1.245335773817     0.842063732207    -1.064337513247     1.007825032230
         H           -2.523542226183    -1.251919267793     0.381899486753     1.007825032230
         H           -2.024813226183     0.134230732207     1.392968486753     1.007825032230
         H            2.041417773817    -1.606090267793     0.650333486753     1.007825032230
         H            3.249646773817     2.028589732207    -0.119225513247     1.007825032230
         H            2.077252773817     1.640406732207     1.151630486753     1.007825032230
         H            3.541244773817     0.666396732207     0.969107486753     1.007825032230
         H           -0.355471626183    -1.889247567793     0.874368486753     1.007825032230
         H           -4.024068226183     0.730593732207    -0.016845513247     1.007825032230
         H           -2.611354226183     1.706958732207    -0.469127513247     1.007825032230
         H           -3.096664226183     0.330377732207    -1.485453513247     1.007825032230

  Basis Set: AUG-CC-PVTZ
    Blend: AUG-CC-PVTZ
  Basis Set: (AUG-CC-PVTZ AUX)
    Blend: AUG-CC-PVTZ-JKFIT
	 Reference Energy          =    -309.1412934586108463 [Eh]
	 Singles Energy            =      -0.0000000000000000 [Eh]
	 Same-Spin Energy          =      -0.3137404355233763 [Eh]
	 Opposite-Spin Energy      =      -1.0988863454223390 [Eh]
	 Correlation Energy        =      -1.4126267809457151 [Eh]
	 Total Energy              =    -310.5539202395565894 [Eh]

	 ================> DF-SCS-MP2 Energies <==================
	-----------------------------------------------------------
	 SCS Same-Spin Scale       =       0.3333333333333333 [-]
	 SCS Opposite-Spin Scale   =       1.2000000000000000 [-]
	 SCS Same-Spin Energy      =      -0.1045801451744588 [Eh]
	 SCS Opposite-Spin Energy  =      -1.3186636145068067 [Eh]
	 SCS Correlation Energy    =      -1.4232437596812655 [Eh]
	 SCS Total Energy          =    -310.5645372182921164 [Eh]
	-----------------------------------------------------------

  Dipole Moment: [D]
     X:    -1.0508      Y:    -0.1782      Z:     0.7116     Total:     1.2815

*** Psi4 exiting successfully. Buy a developer a beer!
