                               Psi4 1.3.2 release

  ==> Input File <==

--------------------------------------------------------------------------
#psi4
#
memory 32 gb

molecule  {
0 1
  O       -0.8499734    -0.2128058    -0.2995372
  C        2.0174600     0.2824600    -0.5354820
  C       -2.1232200    -0.2252560     0.3552070
  C        1.3918360    -0.8685520     0.1861030
  C        2.7655740     1.2103670     0.4230210
  C        0.0733200    -1.0572940     0.3167640
  C       -3.0025991     0.6967105    -0.4684474
  H        2.7145670    -0.0909720    -1.2924960
  H        1.2438280     0.8410150    -1.0636660
  H       -2.5250500    -1.2529680     0.3825710
  H       -2.0263210     0.1331820     1.3936400
  H        2.0399100    -1.6071390     0.6510050
  H        3.2481390     2.0275410    -0.1185540
  H        2.0757450     1.6393580     1.1523020
  H        3.5397370     0.6653480     0.9697790
  H       -0.3482160    -1.8932280     0.8773390
  H       -4.0255760     0.7295450    -0.0161740
  H       -2.6128620     1.7059100    -0.4684560
  H       -3.0981720     0.3293290    -1.4847820
units angstrom
no_reorient  #important for SAPT in psi4, default
symmetry c1  #important for SAPT in psi4, default
}

set PROPERTIES_ORIGIN ["COM"]
properties('MP2/aug-cc-pvtz', properties = ['dipole'])
--------------------------------------------------------------------------

    Molecular point group: c1
  Charge       = 0
  Multiplicity = 1
  Basis Set: AUG-CC-PVTZ
    Blend: AUG-CC-PVTZ
  Basis Set: (AUG-CC-PVTZ AUX)
    Blend: AUG-CC-PVTZ-JKFIT

    Orbital Energies [Eh]
    ---------------------

    Doubly Occupied:

       1A    -20.571670     2A    -11.284634     3A    -11.279241
       4A    -11.219326     5A    -11.216312     6A    -11.215427
       7A    -11.208202     8A     -1.385390     9A     -1.075208
      10A     -1.022665    11A     -0.967336    12A     -0.849775
      13A     -0.841550    14A     -0.752981    15A     -0.681591
      16A     -0.653332    17A     -0.640724    18A     -0.597641
      19A     -0.560049    20A     -0.556629    21A     -0.541150
      22A     -0.520582    23A     -0.511032    24A     -0.502000
      25A     -0.480015    26A     -0.472961    27A     -0.464489
      28A     -0.328793

  @DF-RHF Final Energy:  -309.13845874376034

   => Energetics <=

    Nuclear Repulsion Energy =            301.9133296864369527
    One-Electron Energy =               -1017.3021660261200623
    Two-Electron Energy =                 406.2503775959228278
    Total Energy =                       -309.1384587437603386
  Basis Set: (AUG-CC-PVTZ AUX)
    Blend: AUG-CC-PVTZ-RI
    Molecular point group: c1

    Geometry (in Angstrom), charge = 0, multiplicity = 1:

       Center              X                  Y                   Z               Mass
    ------------   -----------------  -----------------  -----------------  -----------------
         O           -0.850979448226    -0.215898924434    -0.294792528154    15.994914619570
         C            2.016453951774     0.279366875566    -0.530737328154    12.000000000000
         C           -2.124226048226    -0.228349124434     0.359951671846    12.000000000000
         C            1.390829951774    -0.871645124434     0.190847671846    12.000000000000
         C            2.764567951774     1.207273875566     0.427765671846    12.000000000000
         C            0.072313951774    -1.060387124434     0.321508671846    12.000000000000
         C           -3.003605148226     0.693617375566    -0.463702728154    12.000000000000
         H            2.713560951774    -0.094065124434    -1.287751328154     1.007825032230
         H            1.242821951774     0.837921875566    -1.058921328154     1.007825032230
         H           -2.526056048226    -1.256061124434     0.387315671846     1.007825032230
         H           -2.027327048226     0.130088875566     1.398384671846     1.007825032230
         H            2.038903951774    -1.610232124434     0.655749671846     1.007825032230
         H            3.247132951774     2.024447875566    -0.113809328154     1.007825032230
         H            2.074738951774     1.636264875566     1.157046671846     1.007825032230
         H            3.538730951774     0.662254875566     0.974523671846     1.007825032230
         H           -0.349222048226    -1.896321124434     0.882083671846     1.007825032230
         H           -4.026582048226     0.726451875566    -0.011429328154     1.007825032230
         H           -2.613868048226     1.702816875566    -0.463711328154     1.007825032230
         H           -3.099178048226     0.326235875566    -1.480037328154     1.007825032230

  Basis Set: AUG-CC-PVTZ
    Blend: AUG-CC-PVTZ
  Basis Set: (AUG-CC-PVTZ AUX)
    Blend: AUG-CC-PVTZ-JKFIT
	 Reference Energy          =    -309.1384587437603386 [Eh]
	 Singles Energy            =      -0.0000000000000000 [Eh]
	 Same-Spin Energy          =      -0.3139785092382411 [Eh]
	 Opposite-Spin Energy      =      -1.0999850752108002 [Eh]
	 Correlation Energy        =      -1.4139635844490412 [Eh]
	 Total Energy              =    -310.5524223282093885 [Eh]

	 ================> DF-SCS-MP2 Energies <==================
	-----------------------------------------------------------
	 SCS Same-Spin Scale       =       0.3333333333333333 [-]
	 SCS Opposite-Spin Scale   =       1.2000000000000000 [-]
	 SCS Same-Spin Energy      =      -0.1046595030794137 [Eh]
	 SCS Opposite-Spin Energy  =      -1.3199820902529602 [Eh]
	 SCS Correlation Energy    =      -1.4246415933323739 [Eh]
	 SCS Total Energy          =    -310.5631003370926919 [Eh]
	-----------------------------------------------------------

  Dipole Moment: [D]
     X:    -0.9482      Y:    -0.2452      Z:     0.7604     Total:     1.2399

*** Psi4 exiting successfully. Buy a developer a beer!
