                               Psi4 1.3.2 release

  ==> Input File <==

--------------------------------------------------------------------------
#psi4
#
memory 32 gb

molecule  {
0 1
  O       -0.8411900    -0.2286010    -0.2822800
  C        2.0174600     0.2824600    -0.5354820
  C       -2.1232200    -0.2252560     0.3552070
  C        1.3514818    -0.8170143     0.2290756
  C        2.7655740     1.2103670     0.4230210
  C        0.0733200    -1.0572940     0.3167640
  C       -3.0226980     0.6919650    -0.4518750
  H        2.7259923    -0.0366129    -1.3066203
  H        1.2438280     0.8410150    -1.0636660
  H       -2.5250500    -1.2529680     0.3825710
  H       -2.0263210     0.1331820     1.3936400
  H        2.0399100    -1.6071390     0.6510050
  H        3.2481390     2.0275410    -0.1185540
  H        2.0757450     1.6393580     1.1523020
  H        3.5397370     0.6653480     0.9697790
  H       -0.3482160    -1.8932280     0.8773390
  H       -4.0255760     0.7295450    -0.0161740
  H       -2.6128620     1.7059100    -0.4684560
  H       -3.0981720     0.3293290    -1.4847820
units angstrom
no_reorient  #important for SAPT in psi4, default
symmetry c1  #important for SAPT in psi4, default
}

set PROPERTIES_ORIGIN ["COM"]
properties('MP2/aug-cc-pvtz', properties = ['dipole'])
--------------------------------------------------------------------------

    Molecular point group: c1
  Charge       = 0
  Multiplicity = 1
  Basis Set: AUG-CC-PVTZ
    Blend: AUG-CC-PVTZ
  Basis Set: (AUG-CC-PVTZ AUX)
    Blend: AUG-CC-PVTZ-JKFIT

    Orbital Energies [Eh]
    ---------------------

    Doubly Occupied:

       1A    -20.570205     2A    -11.285692     3A    -11.273749
       4A    -11.220647     5A    -11.215266     6A    -11.212901
       7A    -11.206445     8A     -1.392642     9A     -1.078620
      10A     -1.024888    11A     -0.971653    12A     -0.849679
      13A     -0.841635    14A     -0.751718    15A     -0.685443
      16A     -0.654753    17A     -0.640775    18A     -0.601295
      19A     -0.560223    20A     -0.554162    21A     -0.541674
      22A     -0.523865    23A     -0.507942    24A     -0.500760
      25A     -0.484244    26A     -0.470780    27A     -0.457278
      28A     -0.334057

  @DF-RHF Final Energy:  -309.13694182808757

   => Energetics <=

    Nuclear Repulsion Energy =            302.8323393038346580
    One-Electron Energy =               -1019.1125798491262913
    Two-Electron Energy =                 407.1432987172041180
    Total Energy =                       -309.1369418280875720
  Basis Set: (AUG-CC-PVTZ AUX)
    Blend: AUG-CC-PVTZ-RI
    Molecular point group: c1

    Geometry (in Angstrom), charge = 0, multiplicity = 1:

       Center              X                  Y                   Z               Mass
    ------------   -----------------  -----------------  -----------------  -----------------
         O           -0.836466809014    -0.235327377423    -0.287289990725    15.994914619570
         C            2.022183190986     0.275733622577    -0.540491990725    12.000000000000
         C           -2.118496809014    -0.231982377423     0.350197009275    12.000000000000
         C            1.356204990986    -0.823740677423     0.224065609275    12.000000000000
         C            2.770297190986     1.203640622577     0.418011009275    12.000000000000
         C            0.078043190986    -1.064020377423     0.311754009275    12.000000000000
         C           -3.017974809014     0.685238622577    -0.456884990725    12.000000000000
         H            2.730715490986    -0.043339277423    -1.311630290725     1.007825032230
         H            1.248551190986     0.834288622577    -1.068675990725     1.007825032230
         H           -2.520326809014    -1.259694377423     0.377561009275     1.007825032230
         H           -2.021597809014     0.126455622577     1.388630009275     1.007825032230
         H            2.044633190986    -1.613865377423     0.645995009275     1.007825032230
         H            3.252862190986     2.020814622577    -0.123563990725     1.007825032230
         H            2.080468190986     1.632631622577     1.147292009275     1.007825032230
         H            3.544460190986     0.658621622577     0.964769009275     1.007825032230
         H           -0.343492809014    -1.899954377423     0.872329009275     1.007825032230
         H           -4.020852809014     0.722818622577    -0.021183990725     1.007825032230
         H           -2.608138809014     1.699183622577    -0.473465990725     1.007825032230
         H           -3.093448809014     0.322602622577    -1.489791990725     1.007825032230

  Basis Set: AUG-CC-PVTZ
    Blend: AUG-CC-PVTZ
  Basis Set: (AUG-CC-PVTZ AUX)
    Blend: AUG-CC-PVTZ-JKFIT
	 Reference Energy          =    -309.1369418280875720 [Eh]
	 Singles Energy            =      -0.0000000000000000 [Eh]
	 Same-Spin Energy          =      -0.3136960702043049 [Eh]
	 Opposite-Spin Energy      =      -1.0987732252518521 [Eh]
	 Correlation Energy        =      -1.4124692954561571 [Eh]
	 Total Energy              =    -310.5494111235437344 [Eh]

	 ================> DF-SCS-MP2 Energies <==================
	-----------------------------------------------------------
	 SCS Same-Spin Scale       =       0.3333333333333333 [-]
	 SCS Opposite-Spin Scale   =       1.2000000000000000 [-]
	 SCS Same-Spin Energy      =      -0.1045653567347683 [Eh]
	 SCS Opposite-Spin Energy  =      -1.3185278703022225 [Eh]
	 SCS Correlation Energy    =      -1.4230932270369907 [Eh]
	 SCS Total Energy          =    -310.5600350551245583 [Eh]
	-----------------------------------------------------------

  Dipole Moment: [D]
     X:    -1.0717      Y:    -0.2438      Z:     0.6472     Total:     1.2755

*** Psi4 exiting successfully. Buy a developer a beer!
