                               Psi4 1.3.2 release

  ==> Input File <==

--------------------------------------------------------------------------
#psi4
#
memory 32 gb

molecule  {
0 1
  O       -0.8049699    -0.2022489    -0.2992060
  C        2.0174600     0.2824600    -0.5354820
  C       -2.1232200    -0.2252560     0.3552070
  C        1.3918360    -0.8685520     0.1861030
  C        2.7655740     1.2103670     0.4230210
  C        0.0733200    -1.0572940     0.3167640
  C       -3.0226980     0.6919650    -0.4518750
  H        2.7145670    -0.0909720    -1.2924960
  H        1.2438280     0.8410150    -1.0636660
  H       -2.5250500    -1.2529680     0.3825710
  H       -2.0263210     0.1331820     1.3936400
  H        2.0399100    -1.6071390     0.6510050
  H        3.2481390     2.0275410    -0.1185540
  H        2.0757450     1.6393580     1.1523020
  H        3.5397370     0.6653480     0.9697790
  H       -0.3128479    -1.9043159     0.8861064
  H       -4.0255760     0.7295450    -0.0161740
  H       -2.6128620     1.7059100    -0.4684560
  H       -3.0981720     0.3293290    -1.4847820
units angstrom
no_reorient  #important for SAPT in psi4, default
symmetry c1  #important for SAPT in psi4, default
}

set PROPERTIES_ORIGIN ["COM"]
properties('MP2/aug-cc-pvtz', properties = ['dipole'])
--------------------------------------------------------------------------

    Molecular point group: c1
  Charge       = 0
  Multiplicity = 1
  Basis Set: AUG-CC-PVTZ
    Blend: AUG-CC-PVTZ
  Basis Set: (AUG-CC-PVTZ AUX)
    Blend: AUG-CC-PVTZ-JKFIT

    Orbital Energies [Eh]
    ---------------------

    Doubly Occupied:

       1A    -20.574207     2A    -11.290453     3A    -11.275561
       4A    -11.222552     5A    -11.212653     6A    -11.210197
       7A    -11.206155     8A     -1.383758     9A     -1.071919
      10A     -1.025039    11A     -0.965881    12A     -0.848253
      13A     -0.842752    14A     -0.748282    15A     -0.681303
      16A     -0.652574    17A     -0.638410    18A     -0.595143
      19A     -0.560539    20A     -0.555060    21A     -0.543145
      22A     -0.521316    23A     -0.508245    24A     -0.506452
      25A     -0.478157    26A     -0.475677    27A     -0.465108
      28A     -0.323236

  @DF-RHF Final Energy:  -309.13717467586349

   => Energetics <=

    Nuclear Repulsion Energy =            301.7738261482661528
    One-Electron Energy =               -1017.0579471843624333
    Two-Electron Energy =                 406.1469463602327892
    Total Energy =                       -309.1371746758634913
  Basis Set: (AUG-CC-PVTZ AUX)
    Blend: AUG-CC-PVTZ-RI
    Molecular point group: c1

    Geometry (in Angstrom), charge = 0, multiplicity = 1:

       Center              X                  Y                   Z               Mass
    ------------   -----------------  -----------------  -----------------  -----------------
         O           -0.811114236621    -0.206348491050    -0.296589461262    15.994914619570
         C            2.011315663379     0.278360408950    -0.532865461262    12.000000000000
         C           -2.129364336621    -0.229355591050     0.357823538738    12.000000000000
         C            1.385691663379    -0.872651591050     0.188719538738    12.000000000000
         C            2.759429663379     1.206267408950     0.425637538738    12.000000000000
         C            0.067175663379    -1.061393591050     0.319380538738    12.000000000000
         C           -3.028842336621     0.687865408950    -0.449258461262    12.000000000000
         H            2.708422663379    -0.095071591050    -1.289879461262     1.007825032230
         H            1.237683663379     0.836915408950    -1.061049461262     1.007825032230
         H           -2.531194336621    -1.257067591050     0.385187538738     1.007825032230
         H           -2.032465336621     0.129082408950     1.396256538738     1.007825032230
         H            2.033765663379    -1.611238591050     0.653621538738     1.007825032230
         H            3.241994663379     2.023441408950    -0.115937461262     1.007825032230
         H            2.069600663379     1.635258408950     1.154918538738     1.007825032230
         H            3.533592663379     0.661248408950     0.972395538738     1.007825032230
         H           -0.318992236621    -1.908415491050     0.888722938738     1.007825032230
         H           -4.031720336621     0.725445408950    -0.013557461262     1.007825032230
         H           -2.619006336621     1.701810408950    -0.465839461262     1.007825032230
         H           -3.104316336621     0.325229408950    -1.482165461262     1.007825032230

  Basis Set: AUG-CC-PVTZ
    Blend: AUG-CC-PVTZ
  Basis Set: (AUG-CC-PVTZ AUX)
    Blend: AUG-CC-PVTZ-JKFIT
	 Reference Energy          =    -309.1371746758634913 [Eh]
	 Singles Energy            =      -0.0000000000000000 [Eh]
	 Same-Spin Energy          =      -0.3142228237196176 [Eh]
	 Opposite-Spin Energy      =      -1.1005885406092963 [Eh]
	 Correlation Energy        =      -1.4148113643289140 [Eh]
	 Total Energy              =    -310.5519860401923893 [Eh]

	 ================> DF-SCS-MP2 Energies <==================
	-----------------------------------------------------------
	 SCS Same-Spin Scale       =       0.3333333333333333 [-]
	 SCS Opposite-Spin Scale   =       1.2000000000000000 [-]
	 SCS Same-Spin Energy      =      -0.1047409412398725 [Eh]
	 SCS Opposite-Spin Energy  =      -1.3207062487311556 [Eh]
	 SCS Correlation Energy    =      -1.4254471899710282 [Eh]
	 SCS Total Energy          =    -310.5626218658345010 [Eh]
	-----------------------------------------------------------

  Dipole Moment: [D]
     X:    -1.2919      Y:    -0.2300      Z:     0.7765     Total:     1.5247

*** Psi4 exiting successfully. Buy a developer a beer!
