                               Psi4 1.3.2 release

  ==> Input File <==

--------------------------------------------------------------------------
#psi4
#
memory 32 gb

molecule  {
0 1
  O       -0.8411900    -0.2286010    -0.2822800
  C        2.0174600     0.2824600    -0.5354820
  C       -2.1313554    -0.2087818     0.3382699
  C        1.3918360    -0.8685520     0.1861030
  C        2.7655740     1.2103670     0.4230210
  C        0.0895681    -1.0508435     0.3004043
  C       -3.0226980     0.6919650    -0.4518750
  H        2.7145670    -0.0909720    -1.2924960
  H        1.2438280     0.8410150    -1.0636660
  H       -2.5250500    -1.2529680     0.3825710
  H       -2.0263210     0.1331820     1.3936400
  H        2.0399100    -1.6071390     0.6510050
  H        3.2481390     2.0275410    -0.1185540
  H        2.0757450     1.6393580     1.1523020
  H        3.5397370     0.6653480     0.9697790
  H       -0.3482160    -1.8932280     0.8773390
  H       -4.0255760     0.7295450    -0.0161740
  H       -2.6128620     1.7059100    -0.4684560
  H       -3.0981720     0.3293290    -1.4847820
units angstrom
no_reorient  #important for SAPT in psi4, default
symmetry c1  #important for SAPT in psi4, default
}

set PROPERTIES_ORIGIN ["COM"]
properties('MP2/aug-cc-pvtz', properties = ['dipole'])
--------------------------------------------------------------------------

    Molecular point group: c1
  Charge       = 0
  Multiplicity = 1
  Basis Set: AUG-CC-PVTZ
    Blend: AUG-CC-PVTZ
  Basis Set: (AUG-CC-PVTZ AUX)
    Blend: AUG-CC-PVTZ-JKFIT

    Orbital Energies [Eh]
    ---------------------

    Doubly Occupied:

       1A    -20.570679     2A    -11.287925     3A    -11.277796
       4A    -11.220824     5A    -11.214380     6A    -11.210757
       7A    -11.207317     8A     -1.391581     9A     -1.078199
      10A     -1.028906    11A     -0.970256    12A     -0.850913
      13A     -0.838630    14A     -0.753437    15A     -0.681175
      16A     -0.651984    17A     -0.644470    18A     -0.597801
      19A     -0.562268    20A     -0.558323    21A     -0.542180
      22A     -0.530904    23A     -0.509103    24A     -0.502757
      25A     -0.477909    26A     -0.471167    27A     -0.459894
      28A     -0.329269

  @DF-RHF Final Energy:  -309.14011558806652

   => Energetics <=

    Nuclear Repulsion Energy =            302.4279072057861413
    One-Electron Energy =               -1018.2944406080654289
    Two-Electron Energy =                 406.7264178142127662
    Total Energy =                       -309.1401155880665215
  Basis Set: (AUG-CC-PVTZ AUX)
    Blend: AUG-CC-PVTZ-RI
    Molecular point group: c1

    Geometry (in Angstrom), charge = 0, multiplicity = 1:

       Center              X                  Y                   Z               Mass
    ------------   -----------------  -----------------  -----------------  -----------------
         O           -0.842162631236    -0.231349505753    -0.278288006069    15.994914619570
         C            2.016487368764     0.279711494247    -0.531490006069    12.000000000000
         C           -2.132328031236    -0.211530305753     0.342261893931    12.000000000000
         C            1.390863368764    -0.871300505753     0.190094993931    12.000000000000
         C            2.764601368764     1.207618494247     0.427012993931    12.000000000000
         C            0.088595468764    -1.053592005753     0.304396293931    12.000000000000
         C           -3.023670631236     0.689216494247    -0.447883006069    12.000000000000
         H            2.713594368764    -0.093720505753    -1.288504006069     1.007825032230
         H            1.242855368764     0.838266494247    -1.059674006069     1.007825032230
         H           -2.526022631236    -1.255716505753     0.386562993931     1.007825032230
         H           -2.027293631236     0.130433494247     1.397631993931     1.007825032230
         H            2.038937368764    -1.609887505753     0.654996993931     1.007825032230
         H            3.247166368764     2.024792494247    -0.114562006069     1.007825032230
         H            2.074772368764     1.636609494247     1.156293993931     1.007825032230
         H            3.538764368764     0.662599494247     0.973770993931     1.007825032230
         H           -0.349188631236    -1.895976505753     0.881330993931     1.007825032230
         H           -4.026548631236     0.726796494247    -0.012182006069     1.007825032230
         H           -2.613834631236     1.703161494247    -0.464464006069     1.007825032230
         H           -3.099144631236     0.326580494247    -1.480790006069     1.007825032230

  Basis Set: AUG-CC-PVTZ
    Blend: AUG-CC-PVTZ
  Basis Set: (AUG-CC-PVTZ AUX)
    Blend: AUG-CC-PVTZ-JKFIT
	 Reference Energy          =    -309.1401155880665215 [Eh]
	 Singles Energy            =      -0.0000000000000000 [Eh]
	 Same-Spin Energy          =      -0.3137750641056551 [Eh]
	 Opposite-Spin Energy      =      -1.0986916006847673 [Eh]
	 Correlation Energy        =      -1.4124666647904225 [Eh]
	 Total Energy              =    -310.5525822528569506 [Eh]

	 ================> DF-SCS-MP2 Energies <==================
	-----------------------------------------------------------
	 SCS Same-Spin Scale       =       0.3333333333333333 [-]
	 SCS Opposite-Spin Scale   =       1.2000000000000000 [-]
	 SCS Same-Spin Energy      =      -0.1045916880352184 [Eh]
	 SCS Opposite-Spin Energy  =      -1.3184299208217207 [Eh]
	 SCS Correlation Energy    =      -1.4230216088569392 [Eh]
	 SCS Total Energy          =    -310.5631371969234351 [Eh]
	-----------------------------------------------------------

  Dipole Moment: [D]
     X:    -1.0989      Y:    -0.1473      Z:     0.7027     Total:     1.3126

*** Psi4 exiting successfully. Buy a developer a beer!
