                               Psi4 1.4a3.dev225

  ==> Input File <==

--------------------------------------------------------------------------
#psi4
#
memory 32 gb

molecule  {
0 1
  O        0.9059480     0.1295110    -0.3069180
  C       -1.9753050    -0.3336000    -0.5537270
  C        2.1190110     0.1892690     0.4520280
  C       -1.3184330     0.9429980    -0.1246110
  C       -2.9908880    -0.8293550     0.4787900
  C        0.0159219     1.0987284     0.0124361
  C        3.0576820    -0.8509900    -0.1177330
  H       -2.4824890    -0.1840060    -1.5158280
  H       -1.2045440    -1.0918590    -0.7184600
  H        2.5525890     1.1965710     0.3749050
  H        1.9047370    -0.0062780     1.5110790
  H       -1.9523440     1.7996160     0.0958850
  H       -3.4787570    -1.7495600     0.1429400
  H       -2.4987140    -1.0317260     1.4340660
  H       -3.7695180    -0.0804100     0.6542360
  H        0.4396010     2.0570360     0.3475940
  H        4.0048870    -0.8497230     0.4289840
  H        2.6101410    -1.8440700    -0.0412770
  H        3.2577670    -0.6398860    -1.1701900
units angstrom
no_reorient  #important for SAPT in psi4, default
symmetry c1  #important for SAPT in psi4, default
}

set PROPERTIES_ORIGIN ["COM"]
properties('MP2/aug-cc-pvtz', properties = ['dipole'])
--------------------------------------------------------------------------

    Molecular point group: c1
  Charge       = 0
  Multiplicity = 1
  Basis Set: AUG-CC-PVTZ
    Blend: AUG-CC-PVTZ
  Basis Set: (AUG-CC-PVTZ AUX)
    Blend: AUG-CC-PVTZ-JKFIT

    Orbital Energies [Eh]
    ---------------------

    Doubly Occupied:

       1A    -20.574786     2A    -11.286319     3A    -11.279877
       4A    -11.220749     5A    -11.215199     6A    -11.214253
       7A    -11.208039     8A     -1.401238     9A     -1.072454
      10A     -1.027841    11A     -0.964637    12A     -0.852968
      13A     -0.841334    14A     -0.755935    15A     -0.686833
      16A     -0.655033    17A     -0.641472    18A     -0.599371
      19A     -0.564406    20A     -0.559060    21A     -0.541619
      22A     -0.527799    23A     -0.506905    24A     -0.504256
      25A     -0.477616    26A     -0.476096    27A     -0.461926
      28A     -0.322749

  @DF-RHF Final Energy:  -309.14055468704157

   => Energetics <=

    Nuclear Repulsion Energy =            301.4273284129708372
    One-Electron Energy =               -1016.2542253716187588
    Two-Electron Energy =                 405.6863422716063496
    Total Energy =                       -309.1405546870415719
  Basis Set: (AUG-CC-PVTZ AUX)
    Blend: AUG-CC-PVTZ-RI
    Molecular point group: c1

    Geometry (in Angstrom), charge = 0, multiplicity = 1:

       Center              X                  Y                   Z               Mass
    ------------   -----------------  -----------------  -----------------  -----------------
         O            0.898305203444     0.107202243516    -0.291062934958    15.994914619570
         C           -1.982947796556    -0.355908756484    -0.537871934958    12.000000000000
         C            2.111368203444     0.166960243516     0.467883065042    12.000000000000
         C           -1.326075796556     0.920689243516    -0.108755934958    12.000000000000
         C           -2.998530796556    -0.851663756484     0.494645065042    12.000000000000
         C            0.008279103444     1.076419643516     0.028291165042    12.000000000000
         C            3.050039203444    -0.873298756484    -0.101877934958    12.000000000000
         H           -2.490131796556    -0.206314756484    -1.499972934958     1.007825032230
         H           -1.212186796556    -1.114167756484    -0.702604934958     1.007825032230
         H            2.544946203444     1.174262243516     0.390760065042     1.007825032230
         H            1.897094203444    -0.028586756484     1.526934065042     1.007825032230
         H           -1.959986796556     1.777307243516     0.111740065042     1.007825032230
         H           -3.486399796556    -1.771868756484     0.158795065042     1.007825032230
         H           -2.506356796556    -1.054034756484     1.449921065042     1.007825032230
         H           -3.777160796556    -0.102718756484     0.670091065042     1.007825032230
         H            0.431958203444     2.034727243516     0.363449065042     1.007825032230
         H            3.997244203444    -0.872031756484     0.444839065042     1.007825032230
         H            2.602498203444    -1.866378756484    -0.025421934958     1.007825032230
         H            3.250124203444    -0.662194756484    -1.154334934958     1.007825032230

  Basis Set: AUG-CC-PVTZ
    Blend: AUG-CC-PVTZ
  Basis Set: (AUG-CC-PVTZ AUX)
    Blend: AUG-CC-PVTZ-JKFIT
	 Reference Energy          =    -309.1405546870415719 [Eh]
	 Singles Energy            =      -0.0000000000000000 [Eh]
	 Same-Spin Energy          =      -0.3139105151409514 [Eh]
	 Opposite-Spin Energy      =      -1.0991523072790133 [Eh]
	 Correlation Energy        =      -1.4130628224199646 [Eh]
	 Total Energy              =    -310.5536175094615601 [Eh]

	 ================> DF-SCS-MP2 Energies <==================
	-----------------------------------------------------------
	 SCS Same-Spin Scale       =       0.3333333333333333 [-]
	 SCS Opposite-Spin Scale   =       1.2000000000000000 [-]
	 SCS Same-Spin Energy      =      -0.1046368383803171 [Eh]
	 SCS Opposite-Spin Energy  =      -1.3189827687348159 [Eh]
	 SCS Correlation Energy    =      -1.4236196071151330 [Eh]
	 SCS Total Energy          =    -310.5641742941567145 [Eh]
	-----------------------------------------------------------

  Dipole Moment: [D]
     X:     1.1487      Y:     0.2417      Z:     0.7542     Total:     1.3953

*** Psi4 exiting successfully. Buy a developer a beer!
