                               Psi4 1.3.2 release

  ==> Input File <==

--------------------------------------------------------------------------
#psi4
#
memory 32 gb

molecule  {
0 1
  O       -0.8411900    -0.2286010    -0.2822800
  C        2.0174600     0.2824600    -0.5354820
  C       -2.1232200    -0.2252560     0.3552070
  C        1.3918360    -0.8685520     0.1861030
  C        2.7655740     1.2103670     0.4230210
  C       -0.0251980    -1.0713966     0.3265268
  C       -3.0226980     0.6919650    -0.4518750
  H        2.7145670    -0.0909720    -1.2924960
  H        1.2438280     0.8410150    -1.0636660
  H       -2.5250500    -1.2529680     0.3825710
  H       -2.0263210     0.1331820     1.3936400
  H        2.0399100    -1.6071390     0.6510050
  H        3.2481390     2.0275410    -0.1185540
  H        2.0757450     1.6393580     1.1523020
  H        3.5397370     0.6653480     0.9697790
  H       -0.3482160    -1.8932280     0.8773390
  H       -4.0255760     0.7295450    -0.0161740
  H       -2.6128620     1.7059100    -0.4684560
  H       -3.0981720     0.3293290    -1.4847820
units angstrom
no_reorient  #important for SAPT in psi4, default
symmetry c1  #important for SAPT in psi4, default
}

set PROPERTIES_ORIGIN ["COM"]
properties('MP2/aug-cc-pvtz', properties = ['dipole'])
--------------------------------------------------------------------------

    Molecular point group: c1
  Charge       = 0
  Multiplicity = 1
  Basis Set: AUG-CC-PVTZ
    Blend: AUG-CC-PVTZ
  Basis Set: (AUG-CC-PVTZ AUX)
    Blend: AUG-CC-PVTZ-JKFIT

    Orbital Energies [Eh]
    ---------------------

    Doubly Occupied:

       1A    -20.583595     2A    -11.291268     3A    -11.285442
       4A    -11.224296     5A    -11.220672     6A    -11.212623
       7A    -11.205258     8A     -1.421757     9A     -1.063708
      10A     -1.029845    11A     -0.951303    12A     -0.855793
      13A     -0.847711    14A     -0.758634    15A     -0.696852
      16A     -0.666362    17A     -0.641085    18A     -0.598028
      19A     -0.563920    20A     -0.558685    21A     -0.549208
      22A     -0.522854    23A     -0.510589    24A     -0.505813
      25A     -0.480621    26A     -0.471082    27A     -0.469334
      28A     -0.299694

  @DF-RHF Final Energy:  -309.12276487782293

   => Energetics <=

    Nuclear Repulsion Energy =            301.9792756628548318
    One-Electron Energy =               -1017.2320164298228065
    Two-Electron Energy =                 406.1299758891449869
    Total Energy =                       -309.1227648778229309
  Basis Set: (AUG-CC-PVTZ AUX)
    Blend: AUG-CC-PVTZ-RI
    Molecular point group: c1

    Geometry (in Angstrom), charge = 0, multiplicity = 1:

       Center              X                  Y                   Z               Mass
    ------------   -----------------  -----------------  -----------------  -----------------
         O           -0.829378301639    -0.226910172547    -0.283450572935    15.994914619570
         C            2.029271698361     0.284150827453    -0.536652572935    12.000000000000
         C           -2.111408301639    -0.223565172547     0.354036427065    12.000000000000
         C            1.403647698361    -0.866861172547     0.184932427065    12.000000000000
         C            2.777385698361     1.212057827453     0.421850427065    12.000000000000
         C           -0.013386301639    -1.069705772547     0.325356227065    12.000000000000
         C           -3.010886301639     0.693655827453    -0.453045572935    12.000000000000
         H            2.726378698361    -0.089281172547    -1.293666572935     1.007825032230
         H            1.255639698361     0.842705827453    -1.064836572935     1.007825032230
         H           -2.513238301639    -1.251277172547     0.381400427065     1.007825032230
         H           -2.014509301639     0.134872827453     1.392469427065     1.007825032230
         H            2.051721698361    -1.605448172547     0.649834427065     1.007825032230
         H            3.259950698361     2.029231827453    -0.119724572935     1.007825032230
         H            2.087556698361     1.641048827453     1.151131427065     1.007825032230
         H            3.551548698361     0.667038827453     0.968608427065     1.007825032230
         H           -0.336404301639    -1.891537172547     0.876168427065     1.007825032230
         H           -4.013764301639     0.731235827453    -0.017344572935     1.007825032230
         H           -2.601050301639     1.707600827453    -0.469626572935     1.007825032230
         H           -3.086360301639     0.331019827453    -1.485952572935     1.007825032230

  Basis Set: AUG-CC-PVTZ
    Blend: AUG-CC-PVTZ
  Basis Set: (AUG-CC-PVTZ AUX)
    Blend: AUG-CC-PVTZ-JKFIT
	 Reference Energy          =    -309.1227648778229309 [Eh]
	 Singles Energy            =      -0.0000000000000000 [Eh]
	 Same-Spin Energy          =      -0.3153720415958122 [Eh]
	 Opposite-Spin Energy      =      -1.1023102068274122 [Eh]
	 Correlation Energy        =      -1.4176822484232243 [Eh]
	 Total Energy              =    -310.5404471262461357 [Eh]

	 ================> DF-SCS-MP2 Energies <==================
	-----------------------------------------------------------
	 SCS Same-Spin Scale       =       0.3333333333333333 [-]
	 SCS Opposite-Spin Scale   =       1.2000000000000000 [-]
	 SCS Same-Spin Energy      =      -0.1051240138652707 [Eh]
	 SCS Opposite-Spin Energy  =      -1.3227722481928945 [Eh]
	 SCS Correlation Energy    =      -1.4278962620581652 [Eh]
	 SCS Total Energy          =    -310.5506611398810719 [Eh]
	-----------------------------------------------------------

  Dipole Moment: [D]
     X:    -1.5307      Y:    -0.1154      Z:     0.6555     Total:     1.6691

*** Psi4 exiting successfully. Buy a developer a beer!
