                               Psi4 1.4a3.dev225

  ==> Input File <==

--------------------------------------------------------------------------
#psi4
#
memory 32 gb

molecule  {
0 1
  O        0.9059480     0.1295110    -0.3069180
  C       -1.9753050    -0.3336000    -0.5537270
  C        2.1190110     0.1892690     0.4520280
  C       -1.3184330     0.9429980    -0.1246110
  C       -2.9908880    -0.8293550     0.4787900
  C       -0.0300888     1.1488329     0.0289453
  C        3.0576820    -0.8509900    -0.1177330
  H       -2.4824890    -0.1840060    -1.5158280
  H       -1.2045440    -1.0918590    -0.7184600
  H        2.5525890     1.1965710     0.3749050
  H        1.9047370    -0.0062780     1.5110790
  H       -1.9523440     1.7996160     0.0958850
  H       -3.4787570    -1.7495600     0.1429400
  H       -2.4987140    -1.0317260     1.4340660
  H       -3.7695180    -0.0804100     0.6542360
  H        0.4396010     2.0570360     0.3475940
  H        4.0048870    -0.8497230     0.4289840
  H        2.6101410    -1.8440700    -0.0412770
  H        3.2577670    -0.6398860    -1.1701900
units angstrom
no_reorient  #important for SAPT in psi4, default
symmetry c1  #important for SAPT in psi4, default
}

set PROPERTIES_ORIGIN ["COM"]
properties('MP2/aug-cc-pvtz', properties = ['dipole'])
--------------------------------------------------------------------------

    Molecular point group: c1
  Charge       = 0
  Multiplicity = 1
  Basis Set: AUG-CC-PVTZ
    Blend: AUG-CC-PVTZ
  Basis Set: (AUG-CC-PVTZ AUX)
    Blend: AUG-CC-PVTZ-JKFIT

    Orbital Energies [Eh]
    ---------------------

    Doubly Occupied:

       1A    -20.564524     2A    -11.279671     3A    -11.275486
       4A    -11.219354     5A    -11.216597     6A    -11.216591
       7A    -11.211037     8A     -1.370726     9A     -1.078492
      10A     -1.021608    11A     -0.973485    12A     -0.850914
      13A     -0.838559    14A     -0.753456    15A     -0.682270
      16A     -0.647613    17A     -0.636502    18A     -0.599910
      19A     -0.561739    20A     -0.558426    21A     -0.537062
      22A     -0.523170    23A     -0.511028    24A     -0.498340
      25A     -0.484330    26A     -0.469868    27A     -0.457779
      28A     -0.338115

  @DF-RHF Final Energy:  -309.13834974746294

   => Energetics <=

    Nuclear Repulsion Energy =            300.6799354110801801
    One-Electron Energy =               -1014.8832681434037113
    Two-Electron Energy =                 405.0649829848606487
    Total Energy =                       -309.1383497474629394
  Basis Set: (AUG-CC-PVTZ AUX)
    Blend: AUG-CC-PVTZ-RI
    Molecular point group: c1

    Geometry (in Angstrom), charge = 0, multiplicity = 1:

       Center              X                  Y                   Z               Mass
    ------------   -----------------  -----------------  -----------------  -----------------
         O            0.903821588067     0.101195038815    -0.293042281002    15.994914619570
         C           -1.977431411933    -0.361915961185    -0.539851281002    12.000000000000
         C            2.116884588067     0.160953038815     0.465903718998    12.000000000000
         C           -1.320559411933     0.914682038815    -0.110735281002    12.000000000000
         C           -2.993014411933    -0.857670961185     0.492665718998    12.000000000000
         C           -0.032215211933     1.120516938815     0.042821018998    12.000000000000
         C            3.055555588067    -0.879305961185    -0.103857281002    12.000000000000
         H           -2.484615411933    -0.212321961185    -1.501952281002     1.007825032230
         H           -1.206670411933    -1.120174961185    -0.704584281002     1.007825032230
         H            2.550462588067     1.168255038815     0.388780718998     1.007825032230
         H            1.902610588067    -0.034593961185     1.524954718998     1.007825032230
         H           -1.954470411933     1.771300038815     0.109760718998     1.007825032230
         H           -3.480883411933    -1.777875961185     0.156815718998     1.007825032230
         H           -2.500840411933    -1.060041961185     1.447941718998     1.007825032230
         H           -3.771644411933    -0.108725961185     0.668111718998     1.007825032230
         H            0.437474588067     2.028720038815     0.361469718998     1.007825032230
         H            4.002760588067    -0.878038961185     0.442859718998     1.007825032230
         H            2.608014588067    -1.872385961185    -0.027401281002     1.007825032230
         H            3.255640588067    -0.668201961185    -1.156314281002     1.007825032230

  Basis Set: AUG-CC-PVTZ
    Blend: AUG-CC-PVTZ
  Basis Set: (AUG-CC-PVTZ AUX)
    Blend: AUG-CC-PVTZ-JKFIT
	 Reference Energy          =    -309.1383497474629394 [Eh]
	 Singles Energy            =      -0.0000000000000000 [Eh]
	 Same-Spin Energy          =      -0.3134924501695138 [Eh]
	 Opposite-Spin Energy      =      -1.0992475126535259 [Eh]
	 Correlation Energy        =      -1.4127399628230397 [Eh]
	 Total Energy              =    -310.5510897102859644 [Eh]

	 ================> DF-SCS-MP2 Energies <==================
	-----------------------------------------------------------
	 SCS Same-Spin Scale       =       0.3333333333333333 [-]
	 SCS Opposite-Spin Scale   =       1.2000000000000000 [-]
	 SCS Same-Spin Energy      =      -0.1044974833898379 [Eh]
	 SCS Opposite-Spin Energy  =      -1.3190970151842312 [Eh]
	 SCS Correlation Energy    =      -1.4235944985740692 [Eh]
	 SCS Total Energy          =    -310.5619442460370010 [Eh]
	-----------------------------------------------------------

  Dipole Moment: [D]
     X:     0.7020      Y:     0.4039      Z:     0.7779     Total:     1.1229

*** Psi4 exiting successfully. Buy a developer a beer!
