                               Psi4 1.3.2 release

  ==> Input File <==

--------------------------------------------------------------------------
#psi4
#
memory 32 gb

molecule  {
0 1
  O       -0.8411900    -0.2286010    -0.2822800
  C        2.0174600     0.2824600    -0.5354820
  C       -2.1390978    -0.1923135     0.3211438
  C        1.3918360    -0.8685520     0.1861030
  C        2.7655740     1.2103670     0.4230210
  C        0.1055327    -1.0441425     0.2838671
  C       -3.0226980     0.6919650    -0.4518750
  H        2.7145670    -0.0909720    -1.2924960
  H        1.2438280     0.8410150    -1.0636660
  H       -2.5250500    -1.2529680     0.3825710
  H       -2.0263210     0.1331820     1.3936400
  H        2.0399100    -1.6071390     0.6510050
  H        3.2481390     2.0275410    -0.1185540
  H        2.0757450     1.6393580     1.1523020
  H        3.5397370     0.6653480     0.9697790
  H       -0.3482160    -1.8932280     0.8773390
  H       -4.0255760     0.7295450    -0.0161740
  H       -2.6128620     1.7059100    -0.4684560
  H       -3.0981720     0.3293290    -1.4847820
units angstrom
no_reorient  #important for SAPT in psi4, default
symmetry c1  #important for SAPT in psi4, default
}

set PROPERTIES_ORIGIN ["COM"]
properties('MP2/aug-cc-pvtz', properties = ['dipole'])
--------------------------------------------------------------------------

    Molecular point group: c1
  Charge       = 0
  Multiplicity = 1
  Basis Set: AUG-CC-PVTZ
    Blend: AUG-CC-PVTZ
  Basis Set: (AUG-CC-PVTZ AUX)
    Blend: AUG-CC-PVTZ-JKFIT

    Orbital Energies [Eh]
    ---------------------

    Doubly Occupied:

       1A    -20.569138     2A    -11.289662     3A    -11.277560
       4A    -11.220518     5A    -11.214128     6A    -11.208219
       7A    -11.207289     8A     -1.390026     9A     -1.082047
      10A     -1.033089    11A     -0.973724    12A     -0.850436
      13A     -0.836112    14A     -0.752171    15A     -0.678957
      16A     -0.649917    17A     -0.646342    18A     -0.598161
      19A     -0.564036    20A     -0.560413    21A     -0.542274
      22A     -0.534735    23A     -0.508655    24A     -0.502381
      25A     -0.477466    26A     -0.467912    27A     -0.455246
      28A     -0.332890

  @DF-RHF Final Energy:  -309.13607702967619

   => Energetics <=

    Nuclear Repulsion Energy =            302.7393050909938665
    One-Electron Energy =               -1018.9037597870682248
    Two-Electron Energy =                 407.0283776663981712
    Total Energy =                       -309.1360770296761871
  Basis Set: (AUG-CC-PVTZ AUX)
    Blend: AUG-CC-PVTZ-RI
    Molecular point group: c1

    Geometry (in Angstrom), charge = 0, multiplicity = 1:

       Center              X                  Y                   Z               Mass
    ------------   -----------------  -----------------  -----------------  -----------------
         O           -0.843148419708    -0.234127354607    -0.274251994653    15.994914619570
         C            2.015501580292     0.276933645393    -0.527453994653    12.000000000000
         C           -2.141056219708    -0.197839854607     0.329171805347    12.000000000000
         C            1.389877580292    -0.874078354607     0.194131005347    12.000000000000
         C            2.763615580292     1.204840645393     0.431049005347    12.000000000000
         C            0.103574280292    -1.049668854607     0.291895105347    12.000000000000
         C           -3.024656419708     0.686438645393    -0.443846994653    12.000000000000
         H            2.712608580292    -0.096498354607    -1.284467994653     1.007825032230
         H            1.241869580292     0.835488645393    -1.055637994653     1.007825032230
         H           -2.527008419708    -1.258494354607     0.390599005347     1.007825032230
         H           -2.028279419708     0.127655645393     1.401668005347     1.007825032230
         H            2.037951580292    -1.612665354607     0.659033005347     1.007825032230
         H            3.246180580292     2.022014645393    -0.110525994653     1.007825032230
         H            2.073786580292     1.633831645393     1.160330005347     1.007825032230
         H            3.537778580292     0.659821645393     0.977807005347     1.007825032230
         H           -0.350174419708    -1.898754354607     0.885367005347     1.007825032230
         H           -4.027534419708     0.724018645393    -0.008145994653     1.007825032230
         H           -2.614820419708     1.700383645393    -0.460427994653     1.007825032230
         H           -3.100130419708     0.323802645393    -1.476753994653     1.007825032230

  Basis Set: AUG-CC-PVTZ
    Blend: AUG-CC-PVTZ
  Basis Set: (AUG-CC-PVTZ AUX)
    Blend: AUG-CC-PVTZ-JKFIT
	 Reference Energy          =    -309.1360770296761871 [Eh]
	 Singles Energy            =      -0.0000000000000000 [Eh]
	 Same-Spin Energy          =      -0.3138330521220756 [Eh]
	 Opposite-Spin Energy      =      -1.0984042822458622 [Eh]
	 Correlation Energy        =      -1.4122373343679377 [Eh]
	 Total Energy              =    -310.5483143640441313 [Eh]

	 ================> DF-SCS-MP2 Energies <==================
	-----------------------------------------------------------
	 SCS Same-Spin Scale       =       0.3333333333333333 [-]
	 SCS Opposite-Spin Scale   =       1.2000000000000000 [-]
	 SCS Same-Spin Energy      =      -0.1046110173740252 [Eh]
	 SCS Opposite-Spin Energy  =      -1.3180851386950345 [Eh]
	 SCS Correlation Energy    =      -1.4226961560690596 [Eh]
	 SCS Total Energy          =    -310.5587731857452241 [Eh]
	-----------------------------------------------------------

  Dipole Moment: [D]
     X:    -1.0942      Y:    -0.1005      Z:     0.6754     Total:     1.2898

*** Psi4 exiting successfully. Buy a developer a beer!
