                               Psi4 1.3.2 release

  ==> Input File <==

--------------------------------------------------------------------------
#psi4
#
memory 32 gb

molecule  {
0 1
  O       -0.8322320    -0.2221361    -0.2868925
  C        2.0174600     0.2824600    -0.5354820
  C       -2.1232200    -0.2252560     0.3552070
  C        1.3897829    -0.8592194     0.1793879
  C        2.7655740     1.2103670     0.4230210
  C        0.0733200    -1.0572940     0.3167640
  C       -3.0226980     0.6919650    -0.4518750
  H        2.7145670    -0.0909720    -1.2924960
  H        1.2438280     0.8410150    -1.0636660
  H       -2.5250500    -1.2529680     0.3825710
  H       -2.0263210     0.1331820     1.3936400
  H        2.0399100    -1.6071390     0.6510050
  H        3.2481390     2.0275410    -0.1185540
  H        2.0757450     1.6393580     1.1523020
  H        3.5397370     0.6653480     0.9697790
  H       -0.3482160    -1.8932280     0.8773390
  H       -4.0255760     0.7295450    -0.0161740
  H       -2.6128620     1.7059100    -0.4684560
  H       -3.0981720     0.3293290    -1.4847820
units angstrom
no_reorient  #important for SAPT in psi4, default
symmetry c1  #important for SAPT in psi4, default
}

set PROPERTIES_ORIGIN ["COM"]
properties('MP2/aug-cc-pvtz', properties = ['dipole'])
--------------------------------------------------------------------------

    Molecular point group: c1
  Charge       = 0
  Multiplicity = 1
  Basis Set: AUG-CC-PVTZ
    Blend: AUG-CC-PVTZ
  Basis Set: (AUG-CC-PVTZ AUX)
    Blend: AUG-CC-PVTZ-JKFIT

    Orbital Energies [Eh]
    ---------------------

    Doubly Occupied:

       1A    -20.572065     2A    -11.287230     3A    -11.277487
       4A    -11.221345     5A    -11.214061     6A    -11.213085
       7A    -11.207351     8A     -1.390473     9A     -1.075043
      10A     -1.025289    11A     -0.966134    12A     -0.851381
      13A     -0.842011    14A     -0.752269    15A     -0.683236
      16A     -0.653723    17A     -0.640866    18A     -0.598002
      19A     -0.559394    20A     -0.556457    21A     -0.542377
      22A     -0.525091    23A     -0.510108    24A     -0.502852
      25A     -0.480274    26A     -0.473382    27A     -0.464563
      28A     -0.324629

  @DF-RHF Final Energy:  -309.13991110559249

   => Energetics <=

    Nuclear Repulsion Energy =            302.1693041288779114
    One-Electron Energy =               -1017.7980809990161788
    Two-Electron Energy =                 406.4888657645457783
    Total Energy =                       -309.1399111055924891
  Basis Set: (AUG-CC-PVTZ AUX)
    Blend: AUG-CC-PVTZ-RI
    Molecular point group: c1

    Geometry (in Angstrom), charge = 0, multiplicity = 1:

       Center              X                  Y                   Z               Mass
    ------------   -----------------  -----------------  -----------------  -----------------
         O           -0.833417370743    -0.224288138741    -0.285350368787    15.994914619570
         C            2.016274629257     0.280307961259    -0.533939868787    12.000000000000
         C           -2.124405370743    -0.227408038741     0.356749131213    12.000000000000
         C            1.388597529257    -0.861371438741     0.180930031213    12.000000000000
         C            2.764388629257     1.208214961259     0.424563131213    12.000000000000
         C            0.072134629257    -1.059446038741     0.318306131213    12.000000000000
         C           -3.023883370743     0.689812961259    -0.450332868787    12.000000000000
         H            2.713381629257    -0.093124038741    -1.290953868787     1.007825032230
         H            1.242642629257     0.838862961259    -1.062123868787     1.007825032230
         H           -2.526235370743    -1.255120038741     0.384113131213     1.007825032230
         H           -2.027506370743     0.131029961259     1.395182131213     1.007825032230
         H            2.038724629257    -1.609291038741     0.652547131213     1.007825032230
         H            3.246953629257     2.025388961259    -0.117011868787     1.007825032230
         H            2.074559629257     1.637205961259     1.153844131213     1.007825032230
         H            3.538551629257     0.663195961259     0.971321131213     1.007825032230
         H           -0.349401370743    -1.895380038741     0.878881131213     1.007825032230
         H           -4.026761370743     0.727392961259    -0.014631868787     1.007825032230
         H           -2.614047370743     1.703757961259    -0.466913868787     1.007825032230
         H           -3.099357370743     0.327176961259    -1.483239868787     1.007825032230

  Basis Set: AUG-CC-PVTZ
    Blend: AUG-CC-PVTZ
  Basis Set: (AUG-CC-PVTZ AUX)
    Blend: AUG-CC-PVTZ-JKFIT
	 Reference Energy          =    -309.1399111055924891 [Eh]
	 Singles Energy            =      -0.0000000000000000 [Eh]
	 Same-Spin Energy          =      -0.3140268924359349 [Eh]
	 Opposite-Spin Energy      =      -1.0996395636495997 [Eh]
	 Correlation Energy        =      -1.4136664560855345 [Eh]
	 Total Energy              =    -310.5535775616780256 [Eh]

	 ================> DF-SCS-MP2 Energies <==================
	-----------------------------------------------------------
	 SCS Same-Spin Scale       =       0.3333333333333333 [-]
	 SCS Opposite-Spin Scale   =       1.2000000000000000 [-]
	 SCS Same-Spin Energy      =      -0.1046756308119783 [Eh]
	 SCS Opposite-Spin Energy  =      -1.3195674763795195 [Eh]
	 SCS Correlation Energy    =      -1.4242431071914978 [Eh]
	 SCS Total Energy          =    -310.5641542127839898 [Eh]
	-----------------------------------------------------------

  Dipole Moment: [D]
     X:    -1.1411      Y:    -0.1939      Z:     0.7360     Total:     1.3717

*** Psi4 exiting successfully. Buy a developer a beer!
