                               Psi4 1.3.2 release

  ==> Input File <==

--------------------------------------------------------------------------
#psi4
#
memory 32 gb

molecule  {
0 1
  O       -0.8411900    -0.2286010    -0.2822800
  C        2.0174600     0.2824600    -0.5354820
  C       -2.1232200    -0.2252560     0.3552070
  C        1.3781885    -0.8517165     0.2006529
  C        2.7655740     1.2103670     0.4230210
  C        0.0733200    -1.0572940     0.3167640
  C       -3.0226980     0.6919650    -0.4518750
  H        2.7185894    -0.0729587    -1.2974367
  H        1.2438280     0.8410150    -1.0636660
  H       -2.5250500    -1.2529680     0.3825710
  H       -2.0263210     0.1331820     1.3936400
  H        2.0399100    -1.6071390     0.6510050
  H        3.2481390     2.0275410    -0.1185540
  H        2.0757450     1.6393580     1.1523020
  H        3.5397370     0.6653480     0.9697790
  H       -0.3482160    -1.8932280     0.8773390
  H       -4.0255760     0.7295450    -0.0161740
  H       -2.6128620     1.7059100    -0.4684560
  H       -3.0981720     0.3293290    -1.4847820
units angstrom
no_reorient  #important for SAPT in psi4, default
symmetry c1  #important for SAPT in psi4, default
}

set PROPERTIES_ORIGIN ["COM"]
properties('MP2/aug-cc-pvtz', properties = ['dipole'])
--------------------------------------------------------------------------

    Molecular point group: c1
  Charge       = 0
  Multiplicity = 1
  Basis Set: AUG-CC-PVTZ
    Blend: AUG-CC-PVTZ
  Basis Set: (AUG-CC-PVTZ AUX)
    Blend: AUG-CC-PVTZ-JKFIT

    Orbital Energies [Eh]
    ---------------------

    Doubly Occupied:

       1A    -20.571511     2A    -11.286134     3A    -11.276500
       4A    -11.220918     5A    -11.214885     6A    -11.213067
       7A    -11.207089     8A     -1.392942     9A     -1.075956
      10A     -1.024935    11A     -0.968447    12A     -0.850830
      13A     -0.841508    14A     -0.753483    15A     -0.684308
      16A     -0.654483    17A     -0.641867    18A     -0.598957
      19A     -0.559705    20A     -0.556774    21A     -0.542025
      22A     -0.526227    23A     -0.509018    24A     -0.501360
      25A     -0.480920    26A     -0.472491    27A     -0.462066
      28A     -0.328507

  @DF-RHF Final Energy:  -309.14078008865880

   => Energetics <=

    Nuclear Repulsion Energy =            302.3688575407191479
    One-Electron Energy =               -1018.1854477065994615
    Two-Electron Energy =                 406.6758100772215698
    Total Energy =                       -309.1407800886588007
  Basis Set: (AUG-CC-PVTZ AUX)
    Blend: AUG-CC-PVTZ-RI
    Molecular point group: c1

    Geometry (in Angstrom), charge = 0, multiplicity = 1:

       Center              X                  Y                   Z               Mass
    ------------   -----------------  -----------------  -----------------  -----------------
         O           -0.839594227119    -0.230800831605    -0.283974765762    15.994914619570
         C            2.019055772881     0.280260168395    -0.537176765762    12.000000000000
         C           -2.121624227119    -0.227455831605     0.353512234238    12.000000000000
         C            1.379784272881    -0.853916331605     0.198958134238    12.000000000000
         C            2.767169772881     1.208167168395     0.421326234238    12.000000000000
         C            0.074915772881    -1.059493831605     0.315069234238    12.000000000000
         C           -3.021102227119     0.689765168395    -0.453569765762    12.000000000000
         H            2.720185172881    -0.075158531605    -1.299131465762     1.007825032230
         H            1.245423772881     0.838815168395    -1.065360765762     1.007825032230
         H           -2.523454227119    -1.255167831605     0.380876234238     1.007825032230
         H           -2.024725227119     0.130982168395     1.391945234238     1.007825032230
         H            2.041505772881    -1.609338831605     0.649310234238     1.007825032230
         H            3.249734772881     2.025341168395    -0.120248765762     1.007825032230
         H            2.077340772881     1.637158168395     1.150607234238     1.007825032230
         H            3.541332772881     0.663148168395     0.968084234238     1.007825032230
         H           -0.346620227119    -1.895427831605     0.875644234238     1.007825032230
         H           -4.023980227119     0.727345168395    -0.017868765762     1.007825032230
         H           -2.611266227119     1.703710168395    -0.470150765762     1.007825032230
         H           -3.096576227119     0.327129168395    -1.486476765762     1.007825032230

  Basis Set: AUG-CC-PVTZ
    Blend: AUG-CC-PVTZ
  Basis Set: (AUG-CC-PVTZ AUX)
    Blend: AUG-CC-PVTZ-JKFIT
	 Reference Energy          =    -309.1407800886588007 [Eh]
	 Singles Energy            =      -0.0000000000000000 [Eh]
	 Same-Spin Energy          =      -0.3137300436597251 [Eh]
	 Opposite-Spin Energy      =      -1.0989405994131181 [Eh]
	 Correlation Energy        =      -1.4126706430728433 [Eh]
	 Total Energy              =    -310.5534507317316297 [Eh]

	 ================> DF-SCS-MP2 Energies <==================
	-----------------------------------------------------------
	 SCS Same-Spin Scale       =       0.3333333333333333 [-]
	 SCS Opposite-Spin Scale   =       1.2000000000000000 [-]
	 SCS Same-Spin Energy      =      -0.1045766812199084 [Eh]
	 SCS Opposite-Spin Energy  =      -1.3187287192957415 [Eh]
	 SCS Correlation Energy    =      -1.4233054005156500 [Eh]
	 SCS Total Energy          =    -310.5640854891744311 [Eh]
	-----------------------------------------------------------

  Dipole Moment: [D]
     X:    -1.0867      Y:    -0.2089      Z:     0.6995     Total:     1.3091

*** Psi4 exiting successfully. Buy a developer a beer!
