                               Psi4 1.3.2 release

  ==> Input File <==

--------------------------------------------------------------------------
#psi4
#
memory 32 gb

molecule  {
0 1
  O       -0.8411900    -0.2286010    -0.2822800
  C        2.0174600     0.2824600    -0.5354820
  C       -2.1232200    -0.2252560     0.3552070
  C        1.3918360    -0.8685520     0.1861030
  C        2.7655740     1.2103670     0.4230210
  C        0.0733200    -1.0572940     0.3167640
  C       -3.0226980     0.6919650    -0.4518750
  H        2.8419214    -0.1591943    -1.4307948
  H        1.2438280     0.8410150    -1.0636660
  H       -2.5250500    -1.2529680     0.3825710
  H       -2.0263210     0.1331820     1.3936400
  H        2.0399100    -1.6071390     0.6510050
  H        3.2481390     2.0275410    -0.1185540
  H        2.0757450     1.6393580     1.1523020
  H        3.5397370     0.6653480     0.9697790
  H       -0.3482160    -1.8932280     0.8773390
  H       -4.0255760     0.7295450    -0.0161740
  H       -2.6128620     1.7059100    -0.4684560
  H       -3.0981720     0.3293290    -1.4847820
units angstrom
no_reorient  #important for SAPT in psi4, default
symmetry c1  #important for SAPT in psi4, default
}

set PROPERTIES_ORIGIN ["COM"]
properties('MP2/aug-cc-pvtz', properties = ['dipole'])
--------------------------------------------------------------------------

    Molecular point group: c1
  Charge       = 0
  Multiplicity = 1
  Basis Set: AUG-CC-PVTZ
    Blend: AUG-CC-PVTZ
  Basis Set: (AUG-CC-PVTZ AUX)
    Blend: AUG-CC-PVTZ-JKFIT

    Orbital Energies [Eh]
    ---------------------

    Doubly Occupied:

       1A    -20.573965     2A    -11.287594     3A    -11.280572
       4A    -11.238413     5A    -11.221947     6A    -11.215925
       7A    -11.210064     8A     -1.394922     9A     -1.073789
      10A     -1.024242    11A     -0.967438    12A     -0.849900
      13A     -0.838839    14A     -0.751150    15A     -0.682336
      16A     -0.655241    17A     -0.644088    18A     -0.586777
      19A     -0.561192    20A     -0.557969    21A     -0.543589
      22A     -0.528802    23A     -0.509391    24A     -0.503104
      25A     -0.475527    26A     -0.468045    27A     -0.456361
      28A     -0.325807

  @DF-RHF Final Energy:  -309.12198356522384

   => Energetics <=

    Nuclear Repulsion Energy =            301.2823828269245610
    One-Electron Energy =               -1015.9547552480476043
    Two-Electron Energy =                 405.5503888558992571
    Total Energy =                       -309.1219835652238430
  Basis Set: (AUG-CC-PVTZ AUX)
    Blend: AUG-CC-PVTZ-RI
    Molecular point group: c1

    Geometry (in Angstrom), charge = 0, multiplicity = 1:

       Center              X                  Y                   Z               Mass
    ------------   -----------------  -----------------  -----------------  -----------------
         O           -0.842472341690    -0.227914031553    -0.280887503400    15.994914619570
         C            2.016177658310     0.283146968447    -0.534089503400    12.000000000000
         C           -2.124502341690    -0.224569031553     0.356599496600    12.000000000000
         C            1.390553658310    -0.867865031553     0.187495496600    12.000000000000
         C            2.764291658310     1.211053968447     0.424413496600    12.000000000000
         C            0.072037658310    -1.056607031553     0.318156496600    12.000000000000
         C           -3.023980341690     0.692651968447    -0.450482503400    12.000000000000
         H            2.840639058310    -0.158507331553    -1.429402303400     1.007825032230
         H            1.242545658310     0.841701968447    -1.062273503400     1.007825032230
         H           -2.526332341690    -1.252281031553     0.383963496600     1.007825032230
         H           -2.027603341690     0.133868968447     1.395032496600     1.007825032230
         H            2.038627658310    -1.606452031553     0.652397496600     1.007825032230
         H            3.246856658310     2.028227968447    -0.117161503400     1.007825032230
         H            2.074462658310     1.640044968447     1.153694496600     1.007825032230
         H            3.538454658310     0.666034968447     0.971171496600     1.007825032230
         H           -0.349498341690    -1.892541031553     0.878731496600     1.007825032230
         H           -4.026858341690     0.730231968447    -0.014781503400     1.007825032230
         H           -2.614144341690     1.706596968447    -0.467063503400     1.007825032230
         H           -3.099454341690     0.330015968447    -1.483389503400     1.007825032230

  Basis Set: AUG-CC-PVTZ
    Blend: AUG-CC-PVTZ
  Basis Set: (AUG-CC-PVTZ AUX)
    Blend: AUG-CC-PVTZ-JKFIT
	 Reference Energy          =    -309.1219835652238430 [Eh]
	 Singles Energy            =      -0.0000000000000000 [Eh]
	 Same-Spin Energy          =      -0.3137586242160630 [Eh]
	 Opposite-Spin Energy      =      -1.1006404253353224 [Eh]
	 Correlation Energy        =      -1.4143990495513854 [Eh]
	 Total Energy              =    -310.5363826147752206 [Eh]

	 ================> DF-SCS-MP2 Energies <==================
	-----------------------------------------------------------
	 SCS Same-Spin Scale       =       0.3333333333333333 [-]
	 SCS Opposite-Spin Scale   =       1.2000000000000000 [-]
	 SCS Same-Spin Energy      =      -0.1045862080720210 [Eh]
	 SCS Opposite-Spin Energy  =      -1.3207685104023867 [Eh]
	 SCS Correlation Energy    =      -1.4253547184744078 [Eh]
	 SCS Total Energy          =    -310.5473382836982523 [Eh]
	-----------------------------------------------------------

  Dipole Moment: [D]
     X:    -1.2371      Y:    -0.1573      Z:     0.8765     Total:     1.5243

*** Psi4 exiting successfully. Buy a developer a beer!
