                               Psi4 1.3.2 release

  ==> Input File <==

--------------------------------------------------------------------------
#psi4
#
memory 32 gb

molecule  {
0 1
  O       -0.8411900    -0.2286010    -0.2822800
  C        2.0174600     0.2824600    -0.5354820
  C       -2.1232200    -0.2252560     0.3552070
  C        1.3918360    -0.8685520     0.1861030
  C        2.7655740     1.2103670     0.4230210
  C        0.0871317    -1.1152951     0.3535690
  C       -3.0226980     0.6919650    -0.4518750
  H        2.7145670    -0.0909720    -1.2924960
  H        1.2438280     0.8410150    -1.0636660
  H       -2.5250500    -1.2529680     0.3825710
  H       -2.0263210     0.1331820     1.3936400
  H        1.9933487    -1.6345759     0.6688394
  H        3.2481390     2.0275410    -0.1185540
  H        2.0757450     1.6393580     1.1523020
  H        3.5397370     0.6653480     0.9697790
  H       -0.3482160    -1.8932280     0.8773390
  H       -4.0255760     0.7295450    -0.0161740
  H       -2.6128620     1.7059100    -0.4684560
  H       -3.0981720     0.3293290    -1.4847820
units angstrom
no_reorient  #important for SAPT in psi4, default
symmetry c1  #important for SAPT in psi4, default
}

set PROPERTIES_ORIGIN ["COM"]
properties('MP2/aug-cc-pvtz', properties = ['dipole'])
--------------------------------------------------------------------------

    Molecular point group: c1
  Charge       = 0
  Multiplicity = 1
  Basis Set: AUG-CC-PVTZ
    Blend: AUG-CC-PVTZ
  Basis Set: (AUG-CC-PVTZ AUX)
    Blend: AUG-CC-PVTZ-JKFIT

    Orbital Energies [Eh]
    ---------------------

    Doubly Occupied:

       1A    -20.563974     2A    -11.280278     3A    -11.275544
       4A    -11.220507     5A    -11.219774     6A    -11.217337
       7A    -11.210262     8A     -1.368401     9A     -1.075889
      10A     -1.019803    11A     -0.971227    12A     -0.853500
      13A     -0.837705    14A     -0.756633    15A     -0.683074
      16A     -0.648936    17A     -0.632877    18A     -0.599632
      19A     -0.560522    20A     -0.555654    21A     -0.538295
      22A     -0.520233    23A     -0.513706    24A     -0.498197
      25A     -0.486220    26A     -0.467784    27A     -0.461037
      28A     -0.332116

  @DF-RHF Final Energy:  -309.13342965726736

   => Energetics <=

    Nuclear Repulsion Energy =            301.1253686708902819
    One-Electron Energy =               -1015.7793663048280450
    Two-Electron Energy =                 405.5205679766703497
    Total Energy =                       -309.1334296572673566
  Basis Set: (AUG-CC-PVTZ AUX)
    Blend: AUG-CC-PVTZ-RI
    Molecular point group: c1

    Geometry (in Angstrom), charge = 0, multiplicity = 1:

       Center              X                  Y                   Z               Mass
    ------------   -----------------  -----------------  -----------------  -----------------
         O           -0.842377064351    -0.221370756434    -0.286872337442    15.994914619570
         C            2.016272935649     0.289690243566    -0.540074337442    12.000000000000
         C           -2.124407064351    -0.218025756434     0.350614662558    12.000000000000
         C            1.390648935649    -0.861321756434     0.181510662558    12.000000000000
         C            2.764386935649     1.217597243566     0.418428662558    12.000000000000
         C            0.085944635649    -1.108064856434     0.348976662558    12.000000000000
         C           -3.023885064351     0.699195243566    -0.456467337442    12.000000000000
         H            2.713379935649    -0.083741756434    -1.297088337442     1.007825032230
         H            1.242640935649     0.848245243566    -1.068258337442     1.007825032230
         H           -2.526237064351    -1.245737756434     0.377978662558     1.007825032230
         H           -2.027508064351     0.140412243566     1.389047662558     1.007825032230
         H            1.992161635649    -1.627345656434     0.664247062558     1.007825032230
         H            3.246951935649     2.034771243566    -0.123146337442     1.007825032230
         H            2.074557935649     1.646588243566     1.147709662558     1.007825032230
         H            3.538549935649     0.672578243566     0.965186662558     1.007825032230
         H           -0.349403064351    -1.885997756434     0.872746662558     1.007825032230
         H           -4.026763064351     0.736775243566    -0.020766337442     1.007825032230
         H           -2.614049064351     1.713140243566    -0.473048337442     1.007825032230
         H           -3.099359064351     0.336559243566    -1.489374337442     1.007825032230

  Basis Set: AUG-CC-PVTZ
    Blend: AUG-CC-PVTZ
  Basis Set: (AUG-CC-PVTZ AUX)
    Blend: AUG-CC-PVTZ-JKFIT
	 Reference Energy          =    -309.1334296572673566 [Eh]
	 Singles Energy            =      -0.0000000000000000 [Eh]
	 Same-Spin Energy          =      -0.3138984991392921 [Eh]
	 Opposite-Spin Energy      =      -1.1005127007596538 [Eh]
	 Correlation Energy        =      -1.4144111998989459 [Eh]
	 Total Energy              =    -310.5478408571663067 [Eh]

	 ================> DF-SCS-MP2 Energies <==================
	-----------------------------------------------------------
	 SCS Same-Spin Scale       =       0.3333333333333333 [-]
	 SCS Opposite-Spin Scale   =       1.2000000000000000 [-]
	 SCS Same-Spin Energy      =      -0.1046328330464307 [Eh]
	 SCS Opposite-Spin Energy  =      -1.3206152409115846 [Eh]
	 SCS Correlation Energy    =      -1.4252480739580153 [Eh]
	 SCS Total Energy          =    -310.5586777312253730 [Eh]
	-----------------------------------------------------------

  Dipole Moment: [D]
     X:    -0.7510      Y:    -0.2980      Z:     0.7953     Total:     1.1337

*** Psi4 exiting successfully. Buy a developer a beer!
