                               Psi4 1.3.2 release

  ==> Input File <==

--------------------------------------------------------------------------
#psi4
#
memory 32 gb

molecule  {
0 1
  O       -0.8411900    -0.2286010    -0.2822800
  C        2.0174600     0.2824600    -0.5354820
  C       -2.1232200    -0.2252560     0.3552070
  C        1.3918360    -0.8685520     0.1861030
  C        2.7655740     1.2103670     0.4230210
  C        0.0733200    -1.0572940     0.3167640
  C       -2.9041231     0.5710511    -0.3454803
  H        2.7145670    -0.0909720    -1.2924960
  H        1.2438280     0.8410150    -1.0636660
  H       -2.5250500    -1.2529680     0.3825710
  H       -2.0263210     0.1331820     1.3936400
  H        2.0399100    -1.6071390     0.6510050
  H        3.2481390     2.0275410    -0.1185540
  H        2.0757450     1.6393580     1.1523020
  H        3.5397370     0.6653480     0.9697790
  H       -0.3482160    -1.8932280     0.8773390
  H       -4.0255760     0.7295450    -0.0161740
  H       -2.6128620     1.7059100    -0.4684560
  H       -3.0981720     0.3293290    -1.4847820
units angstrom
no_reorient  #important for SAPT in psi4, default
symmetry c1  #important for SAPT in psi4, default
}

set PROPERTIES_ORIGIN ["COM"]
properties('MP2/aug-cc-pvtz', properties = ['dipole'])
--------------------------------------------------------------------------

    Molecular point group: c1
  Charge       = 0
  Multiplicity = 1
  Basis Set: AUG-CC-PVTZ
    Blend: AUG-CC-PVTZ
  Basis Set: (AUG-CC-PVTZ AUX)
    Blend: AUG-CC-PVTZ-JKFIT

    Orbital Energies [Eh]
    ---------------------

    Doubly Occupied:

       1A    -20.572861     2A    -11.278316     3A    -11.276667
       4A    -11.232873     5A    -11.214840     6A    -11.213675
       7A    -11.207425     8A     -1.397877     9A     -1.092872
      10A     -1.051499    11A     -0.969604    12A     -0.847788
      13A     -0.827361    14A     -0.758167    15A     -0.691263
      16A     -0.665856    17A     -0.651280    18A     -0.606261
      19A     -0.580216    20A     -0.557033    21A     -0.532618
      22A     -0.525040    23A     -0.503147    24A     -0.486582
      25A     -0.478371    26A     -0.468725    27A     -0.447097
      28A     -0.326269

  @DF-RHF Final Energy:  -309.08986588088533

   => Energetics <=

    Nuclear Repulsion Energy =            305.1413215051747443
    One-Electron Energy =               -1023.5392098252680171
    Two-Electron Energy =                 409.3080224392078890
    Total Energy =                       -309.0898658808853270
  Basis Set: (AUG-CC-PVTZ AUX)
    Blend: AUG-CC-PVTZ-RI
    Molecular point group: c1

    Geometry (in Angstrom), charge = 0, multiplicity = 1:

       Center              X                  Y                   Z               Mass
    ------------   -----------------  -----------------  -----------------  -----------------
         O           -0.855406332842    -0.214104190181    -0.295036111239    15.994914619570
         C            2.003243667158     0.296956809819    -0.548238111239    12.000000000000
         C           -2.137436332842    -0.210759190181     0.342450888761    12.000000000000
         C            1.377619667158    -0.854055190181     0.173346888761    12.000000000000
         C            2.751357667158     1.224863809819     0.410264888761    12.000000000000
         C            0.059103667158    -1.042797190181     0.304007888761    12.000000000000
         C           -2.918339432842     0.585547909819    -0.358236411239    12.000000000000
         H            2.700350667158    -0.076475190181    -1.305252111239     1.007825032230
         H            1.229611667158     0.855511809819    -1.076422111239     1.007825032230
         H           -2.539266332842    -1.238471190181     0.369814888761     1.007825032230
         H           -2.040537332842     0.147678809819     1.380883888761     1.007825032230
         H            2.025693667158    -1.592642190181     0.638248888761     1.007825032230
         H            3.233922667158     2.042037809819    -0.131310111239     1.007825032230
         H            2.061528667158     1.653854809819     1.139545888761     1.007825032230
         H            3.525520667158     0.679844809819     0.957022888761     1.007825032230
         H           -0.362432332842    -1.878731190181     0.864582888761     1.007825032230
         H           -4.039792332842     0.744041809819    -0.028930111239     1.007825032230
         H           -2.627078332842     1.720406809819    -0.481212111239     1.007825032230
         H           -3.112388332842     0.343825809819    -1.497538111239     1.007825032230

  Basis Set: AUG-CC-PVTZ
    Blend: AUG-CC-PVTZ
  Basis Set: (AUG-CC-PVTZ AUX)
    Blend: AUG-CC-PVTZ-JKFIT
	 Reference Energy          =    -309.0898658808853270 [Eh]
	 Singles Energy            =      -0.0000000000000000 [Eh]
	 Same-Spin Energy          =      -0.3166484851094700 [Eh]
	 Opposite-Spin Energy      =      -1.1029027579840560 [Eh]
	 Correlation Energy        =      -1.4195512430935260 [Eh]
	 Total Energy              =    -310.5094171239788352 [Eh]

	 ================> DF-SCS-MP2 Energies <==================
	-----------------------------------------------------------
	 SCS Same-Spin Scale       =       0.3333333333333333 [-]
	 SCS Opposite-Spin Scale   =       1.2000000000000000 [-]
	 SCS Same-Spin Energy      =      -0.1055494950364900 [Eh]
	 SCS Opposite-Spin Energy  =      -1.3234833095808671 [Eh]
	 SCS Correlation Energy    =      -1.4290328046173570 [Eh]
	 SCS Total Energy          =    -310.5188986855026769 [Eh]
	-----------------------------------------------------------

  Dipole Moment: [D]
     X:    -1.1702      Y:    -0.1675      Z:     0.7316     Total:     1.3902

*** Psi4 exiting successfully. Buy a developer a beer!
