                               Psi4 1.3.2 release

  ==> Input File <==

--------------------------------------------------------------------------
#psi4
#
memory 32 gb

molecule  {
0 1
  O       -0.8369446    -0.2364985    -0.2735782
  C        2.0174600     0.2824600    -0.5354820
  C       -2.1232200    -0.2252560     0.3552070
  C        1.3918360    -0.8685520     0.1861030
  C        2.7655740     1.2103670     0.4230210
  C        0.0733200    -1.0572940     0.3167640
  C       -3.0326451     0.6894874    -0.4434963
  H        2.7145670    -0.0909720    -1.2924960
  H        1.2438280     0.8410150    -1.0636660
  H       -2.5250500    -1.2529680     0.3825710
  H       -2.0263210     0.1331820     1.3936400
  H        2.0399100    -1.6071390     0.6510050
  H        3.2481390     2.0275410    -0.1185540
  H        2.0757450     1.6393580     1.1523020
  H        3.5397370     0.6653480     0.9697790
  H       -0.3482160    -1.8932280     0.8773390
  H       -4.0255760     0.7295450    -0.0161740
  H       -2.6128620     1.7059100    -0.4684560
  H       -3.0981720     0.3293290    -1.4847820
units angstrom
no_reorient  #important for SAPT in psi4, default
symmetry c1  #important for SAPT in psi4, default
}

set PROPERTIES_ORIGIN ["COM"]
properties('MP2/aug-cc-pvtz', properties = ['dipole'])
--------------------------------------------------------------------------

    Molecular point group: c1
  Charge       = 0
  Multiplicity = 1
  Basis Set: AUG-CC-PVTZ
    Blend: AUG-CC-PVTZ
  Basis Set: (AUG-CC-PVTZ AUX)
    Blend: AUG-CC-PVTZ-JKFIT

    Orbital Energies [Eh]
    ---------------------

    Doubly Occupied:

       1A    -20.572642     2A    -11.287422     3A    -11.277666
       4A    -11.222121     5A    -11.214245     6A    -11.212025
       7A    -11.206978     8A     -1.397381     9A     -1.074487
      10A     -1.026247    11A     -0.966503    12A     -0.852657
      13A     -0.841290    14A     -0.755423    15A     -0.684884
      16A     -0.655113    17A     -0.643314    18A     -0.597648
      19A     -0.562030    20A     -0.557265    21A     -0.543481
      22A     -0.529550    23A     -0.508928    24A     -0.501102
      25A     -0.478370    26A     -0.473617    27A     -0.463461
      28A     -0.324017

  @DF-RHF Final Energy:  -309.14113882861710

   => Energetics <=

    Nuclear Repulsion Energy =            302.2427682808033182
    One-Electron Energy =               -1017.9080798736013094
    Two-Electron Energy =                 406.5241727641808325
    Total Energy =                       -309.1411388286171018
  Basis Set: (AUG-CC-PVTZ AUX)
    Blend: AUG-CC-PVTZ-RI
    Molecular point group: c1

    Geometry (in Angstrom), charge = 0, multiplicity = 1:

       Center              X                  Y                   Z               Mass
    ------------   -----------------  -----------------  -----------------  -----------------
         O           -0.836430423849    -0.234939357209    -0.275973438728    15.994914619570
         C            2.017974176151     0.284019142791    -0.537877238728    12.000000000000
         C           -2.122705823849    -0.223696857209     0.352811761272    12.000000000000
         C            1.392350176151    -0.866992857209     0.183707761272    12.000000000000
         C            2.766088176151     1.211926142791     0.420625761272    12.000000000000
         C            0.073834176151    -1.055734857209     0.314368761272    12.000000000000
         C           -3.032130923849     0.691046542791    -0.445891538728    12.000000000000
         H            2.715081176151    -0.089412857209    -1.294891238728     1.007825032230
         H            1.244342176151     0.842574142791    -1.066061238728     1.007825032230
         H           -2.524535823849    -1.251408857209     0.380175761272     1.007825032230
         H           -2.025806823849     0.134741142791     1.391244761272     1.007825032230
         H            2.040424176151    -1.605579857209     0.648609761272     1.007825032230
         H            3.248653176151     2.029100142791    -0.120949238728     1.007825032230
         H            2.076259176151     1.640917142791     1.149906761272     1.007825032230
         H            3.540251176151     0.666907142791     0.967383761272     1.007825032230
         H           -0.347701823849    -1.891668857209     0.874943761272     1.007825032230
         H           -4.025061823849     0.731104142791    -0.018569238728     1.007825032230
         H           -2.612347823849     1.707469142791    -0.470851238728     1.007825032230
         H           -3.097657823849     0.330888142791    -1.487177238728     1.007825032230

  Basis Set: AUG-CC-PVTZ
    Blend: AUG-CC-PVTZ
  Basis Set: (AUG-CC-PVTZ AUX)
    Blend: AUG-CC-PVTZ-JKFIT
	 Reference Energy          =    -309.1411388286171018 [Eh]
	 Singles Energy            =      -0.0000000000000000 [Eh]
	 Same-Spin Energy          =      -0.3137638072010287 [Eh]
	 Opposite-Spin Energy      =      -1.0988505475428758 [Eh]
	 Correlation Energy        =      -1.4126143547439045 [Eh]
	 Total Energy              =    -310.5537531833609819 [Eh]

	 ================> DF-SCS-MP2 Energies <==================
	-----------------------------------------------------------
	 SCS Same-Spin Scale       =       0.3333333333333333 [-]
	 SCS Opposite-Spin Scale   =       1.2000000000000000 [-]
	 SCS Same-Spin Energy      =      -0.1045879357336762 [Eh]
	 SCS Opposite-Spin Energy  =      -1.3186206570514509 [Eh]
	 SCS Correlation Energy    =      -1.4232085927851272 [Eh]
	 SCS Total Energy          =    -310.5643474214022035 [Eh]
	-----------------------------------------------------------

  Dipole Moment: [D]
     X:    -1.1764      Y:    -0.1613      Z:     0.7074     Total:     1.3822

*** Psi4 exiting successfully. Buy a developer a beer!
