                               Psi4 1.3.2 release

  ==> Input File <==

--------------------------------------------------------------------------
#psi4
#
memory 32 gb

molecule  {
0 1
  O       -0.8411900    -0.2286010    -0.2822800
  C        2.0174600     0.2824600    -0.5354820
  C       -2.1232200    -0.2252560     0.3552070
  C        1.3918360    -0.8685520     0.1861030
  C        2.7655740     1.2103670     0.4230210
  C        0.0733200    -1.0572940     0.3167640
  C       -3.0226980     0.6919650    -0.4518750
  H        2.7145670    -0.0909720    -1.2924960
  H        1.2438280     0.8410150    -1.0636660
  H       -2.5250500    -1.2529680     0.3825710
  H       -2.0263210     0.1331820     1.3936400
  H        2.0399100    -1.6071390     0.6510050
  H        3.2481390     2.0275410    -0.1185540
  H        2.0757450     1.6393580     1.1523020
  H        3.5397370     0.6653480     0.9697790
  H       -0.4254768    -2.0464414     0.9800835
  H       -4.0255760     0.7295450    -0.0161740
  H       -2.6128620     1.7059100    -0.4684560
  H       -3.0981720     0.3293290    -1.4847820
units angstrom
no_reorient  #important for SAPT in psi4, default
symmetry c1  #important for SAPT in psi4, default
}

set PROPERTIES_ORIGIN ["COM"]
properties('MP2/aug-cc-pvtz', properties = ['dipole'])
--------------------------------------------------------------------------

    Molecular point group: c1
  Charge       = 0
  Multiplicity = 1
  Basis Set: AUG-CC-PVTZ
    Blend: AUG-CC-PVTZ
  Basis Set: (AUG-CC-PVTZ AUX)
    Blend: AUG-CC-PVTZ-JKFIT

    Orbital Energies [Eh]
    ---------------------

    Doubly Occupied:

       1A    -20.576984     2A    -11.299405     3A    -11.286936
       4A    -11.221428     5A    -11.216571     6A    -11.215486
       7A    -11.208237     8A     -1.395790     9A     -1.075082
      10A     -1.025627    11A     -0.964659    12A     -0.851316
      13A     -0.835945    14A     -0.749069    15A     -0.672354
      16A     -0.645127    17A     -0.641372    18A     -0.598564
      19A     -0.561705    20A     -0.553619    21A     -0.538344
      22A     -0.527631    23A     -0.508211    24A     -0.502512
      25A     -0.476428    26A     -0.474696    27A     -0.458141
      28A     -0.327390

  @DF-RHF Final Energy:  -309.11871189511106

   => Energetics <=

    Nuclear Repulsion Energy =            301.2478347074489875
    One-Electron Energy =               -1015.9158328781165892
    Two-Electron Energy =                 405.5492862755565397
    Total Energy =                       -309.1187118951110619
  Basis Set: (AUG-CC-PVTZ AUX)
    Blend: AUG-CC-PVTZ-RI
    Molecular point group: c1

    Geometry (in Angstrom), charge = 0, multiplicity = 1:

       Center              X                  Y                   Z               Mass
    ------------   -----------------  -----------------  -----------------  -----------------
         O           -0.840412008369    -0.227058230052    -0.283314642452    15.994914619570
         C            2.018237991631     0.284002769948    -0.536516642452    12.000000000000
         C           -2.122442008369    -0.223713230052     0.354172357548    12.000000000000
         C            1.392613991631    -0.867009230052     0.185068357548    12.000000000000
         C            2.766351991631     1.211909769948     0.421986357548    12.000000000000
         C            0.074097991631    -1.055751230052     0.315729357548    12.000000000000
         C           -3.021920008369     0.693507769948    -0.452909642452    12.000000000000
         H            2.715344991631    -0.089429230052    -1.293530642452     1.007825032230
         H            1.244605991631     0.842557769948    -1.064700642452     1.007825032230
         H           -2.524272008369    -1.251425230052     0.381536357548     1.007825032230
         H           -2.025543008369     0.134724769948     1.392605357548     1.007825032230
         H            2.040687991631    -1.605596230052     0.649970357548     1.007825032230
         H            3.248916991631     2.029083769948    -0.119588642452     1.007825032230
         H            2.076522991631     1.640900769948     1.151267357548     1.007825032230
         H            3.540514991631     0.666890769948     0.968744357548     1.007825032230
         H           -0.424698808369    -2.044898630052     0.979048857548     1.007825032230
         H           -4.024798008369     0.731087769948    -0.017208642452     1.007825032230
         H           -2.612084008369     1.707452769948    -0.469490642452     1.007825032230
         H           -3.097394008369     0.330871769948    -1.485816642452     1.007825032230

  Basis Set: AUG-CC-PVTZ
    Blend: AUG-CC-PVTZ
  Basis Set: (AUG-CC-PVTZ AUX)
    Blend: AUG-CC-PVTZ-JKFIT
	 Reference Energy          =    -309.1187118951110619 [Eh]
	 Singles Energy            =      -0.0000000000000000 [Eh]
	 Same-Spin Energy          =      -0.3146011758411732 [Eh]
	 Opposite-Spin Energy      =      -1.1016744305146369 [Eh]
	 Correlation Energy        =      -1.4162756063558102 [Eh]
	 Total Energy              =    -310.5349875014668442 [Eh]

	 ================> DF-SCS-MP2 Energies <==================
	-----------------------------------------------------------
	 SCS Same-Spin Scale       =       0.3333333333333333 [-]
	 SCS Opposite-Spin Scale   =       1.2000000000000000 [-]
	 SCS Same-Spin Energy      =      -0.1048670586137244 [Eh]
	 SCS Opposite-Spin Energy  =      -1.3220093166175642 [Eh]
	 SCS Correlation Energy    =      -1.4268763752312885 [Eh]
	 SCS Total Energy          =    -310.5455882703423640 [Eh]
	-----------------------------------------------------------

  Dipole Moment: [D]
     X:    -1.0774      Y:    -0.0648      Z:     0.6621     Total:     1.2663

*** Psi4 exiting successfully. Buy a developer a beer!
