                               Psi4 1.3.2 release

  ==> Input File <==

--------------------------------------------------------------------------
#psi4
#
memory 32 gb

molecule  {
0 1
  O       -0.8762959    -0.2559628    -0.2646241
  C        2.0174600     0.2824600    -0.5354820
  C       -2.1232200    -0.2252560     0.3552070
  C        1.3918360    -0.8685520     0.1861030
  C        2.7655740     1.2103670     0.4230210
  C        0.0733200    -1.0572940     0.3167640
  C       -3.0226980     0.6919650    -0.4518750
  H        2.7145670    -0.0909720    -1.2924960
  H        1.2438280     0.8410150    -1.0636660
  H       -2.5250500    -1.2529680     0.3825710
  H       -2.0263210     0.1331820     1.3936400
  H        2.0399100    -1.6071390     0.6510050
  H        3.2481390     2.0275410    -0.1185540
  H        2.0757450     1.6393580     1.1523020
  H        3.5397370     0.6653480     0.9697790
  H       -0.3830705    -1.8811216     0.8678886
  H       -4.0255760     0.7295450    -0.0161740
  H       -2.6128620     1.7059100    -0.4684560
  H       -3.0981720     0.3293290    -1.4847820
units angstrom
no_reorient  #important for SAPT in psi4, default
symmetry c1  #important for SAPT in psi4, default
}

set PROPERTIES_ORIGIN ["COM"]
properties('MP2/aug-cc-pvtz', properties = ['dipole'])
--------------------------------------------------------------------------

    Molecular point group: c1
  Charge       = 0
  Multiplicity = 1
  Basis Set: AUG-CC-PVTZ
    Blend: AUG-CC-PVTZ
  Basis Set: (AUG-CC-PVTZ AUX)
    Blend: AUG-CC-PVTZ-JKFIT

    Orbital Energies [Eh]
    ---------------------

    Doubly Occupied:

       1A    -20.570043     2A    -11.282586     3A    -11.280994
       4A    -11.219712     5A    -11.217092     6A    -11.216394
       7A    -11.208659     8A     -1.403635     9A     -1.077573
      10A     -1.025401    11A     -0.967639    12A     -0.855326
      13A     -0.840241    14A     -0.760800    15A     -0.686535
      16A     -0.656301    17A     -0.646595    18A     -0.600338
      19A     -0.561490    20A     -0.559321    21A     -0.541425
      22A     -0.532298    23A     -0.511157    24A     -0.497427
      25A     -0.480001    26A     -0.471548    27A     -0.460055
      28A     -0.327964

  @DF-RHF Final Energy:  -309.14096417850283

   => Energetics <=

    Nuclear Repulsion Energy =            302.5113557036652878
    One-Electron Energy =               -1018.3875432393194842
    Two-Electron Energy =                 406.7352233571514262
    Total Energy =                       -309.1409641785028271
  Basis Set: (AUG-CC-PVTZ AUX)
    Blend: AUG-CC-PVTZ-RI
    Molecular point group: c1

    Geometry (in Angstrom), charge = 0, multiplicity = 1:

       Center              X                  Y                   Z               Mass
    ------------   -----------------  -----------------  -----------------  -----------------
         O           -0.870334734381    -0.251712072904    -0.267350557709    15.994914619570
         C            2.023421165619     0.286710727096    -0.538208457709    12.000000000000
         C           -2.117258834381    -0.221005272904     0.352480542291    12.000000000000
         C            1.397797165619    -0.864301272904     0.183376542291    12.000000000000
         C            2.771535165619     1.214617727096     0.420294542291    12.000000000000
         C            0.079281165619    -1.053043272904     0.314037542291    12.000000000000
         C           -3.016736834381     0.696215727096    -0.454601457709    12.000000000000
         H            2.720528165619    -0.086721272904    -1.295222457709     1.007825032230
         H            1.249789165619     0.845265727096    -1.066392457709     1.007825032230
         H           -2.519088834381    -1.248717272904     0.379844542291     1.007825032230
         H           -2.020359834381     0.137432727096     1.390913542291     1.007825032230
         H            2.045871165619    -1.602888272904     0.648278542291     1.007825032230
         H            3.254100165619     2.031791727096    -0.121280457709     1.007825032230
         H            2.081706165619     1.643608727096     1.149575542291     1.007825032230
         H            3.545698165619     0.669598727096     0.967052542291     1.007825032230
         H           -0.377109334381    -1.876870872904     0.865162142291     1.007825032230
         H           -4.019614834381     0.733795727096    -0.018900457709     1.007825032230
         H           -2.606900834381     1.710160727096    -0.471182457709     1.007825032230
         H           -3.092210834381     0.333579727096    -1.487508457709     1.007825032230

  Basis Set: AUG-CC-PVTZ
    Blend: AUG-CC-PVTZ
  Basis Set: (AUG-CC-PVTZ AUX)
    Blend: AUG-CC-PVTZ-JKFIT
	 Reference Energy          =    -309.1409641785028271 [Eh]
	 Singles Energy            =      -0.0000000000000000 [Eh]
	 Same-Spin Energy          =      -0.3135573700320914 [Eh]
	 Opposite-Spin Energy      =      -1.0980798811903749 [Eh]
	 Correlation Energy        =      -1.4116372512224664 [Eh]
	 Total Energy              =    -310.5526014297253141 [Eh]

	 ================> DF-SCS-MP2 Energies <==================
	-----------------------------------------------------------
	 SCS Same-Spin Scale       =       0.3333333333333333 [-]
	 SCS Opposite-Spin Scale   =       1.2000000000000000 [-]
	 SCS Same-Spin Energy      =      -0.1045191233440305 [Eh]
	 SCS Opposite-Spin Energy  =      -1.3176958574284499 [Eh]
	 SCS Correlation Energy    =      -1.4222149807724804 [Eh]
	 SCS Total Energy          =    -310.5631791592753075 [Eh]
	-----------------------------------------------------------

  Dipole Moment: [D]
     X:    -0.9000      Y:    -0.1416      Z:     0.6674     Total:     1.1293

*** Psi4 exiting successfully. Buy a developer a beer!
