                               Psi4 1.3.2 release

  ==> Input File <==

--------------------------------------------------------------------------
#psi4
#
memory 32 gb

molecule  {
0 1
  O       -0.8411900    -0.2286010    -0.2822800
  C        2.0174600     0.2824600    -0.5354820
  C       -2.1232200    -0.2252560     0.3552070
  C        1.3918360    -0.8685520     0.1861030
  C        2.7655740     1.2103670     0.4230210
  C        0.0733200    -1.0572940     0.3167640
  C       -3.0819854     0.7524219    -0.5050723
  H        2.7145670    -0.0909720    -1.2924960
  H        1.2438280     0.8410150    -1.0636660
  H       -2.5250500    -1.2529680     0.3825710
  H       -2.0263210     0.1331820     1.3936400
  H        2.0399100    -1.6071390     0.6510050
  H        3.2481390     2.0275410    -0.1185540
  H        2.0757450     1.6393580     1.1523020
  H        3.5397370     0.6653480     0.9697790
  H       -0.3482160    -1.8932280     0.8773390
  H       -4.0255760     0.7295450    -0.0161740
  H       -2.6128620     1.7059100    -0.4684560
  H       -3.0981720     0.3293290    -1.4847820
units angstrom
no_reorient  #important for SAPT in psi4, default
symmetry c1  #important for SAPT in psi4, default
}

set PROPERTIES_ORIGIN ["COM"]
properties('MP2/aug-cc-pvtz', properties = ['dipole'])
--------------------------------------------------------------------------

    Molecular point group: c1
  Charge       = 0
  Multiplicity = 1
  Basis Set: AUG-CC-PVTZ
    Blend: AUG-CC-PVTZ
  Basis Set: (AUG-CC-PVTZ AUX)
    Blend: AUG-CC-PVTZ-JKFIT

    Orbital Energies [Eh]
    ---------------------

    Doubly Occupied:

       1A    -20.572200     2A    -11.289636     3A    -11.278106
       4A    -11.219304     5A    -11.214724     6A    -11.213235
       7A    -11.207376     8A     -1.391844     9A     -1.072432
      10A     -1.014300    11A     -0.965539    12A     -0.855995
      13A     -0.842988    14A     -0.753384    15A     -0.681490
      16A     -0.651531    17A     -0.640204    18A     -0.596612
      19A     -0.568355    20A     -0.562506    21A     -0.548845
      22A     -0.531312    23A     -0.511760    24A     -0.484572
      25A     -0.479009    26A     -0.472041    27A     -0.460852
      28A     -0.325377

  @DF-RHF Final Energy:  -309.13317208579588

   => Energetics <=

    Nuclear Repulsion Energy =            300.7948646115158340
    One-Electron Energy =               -1015.0450139715638898
    Two-Electron Energy =                 405.1169772742521218
    Total Energy =                       -309.1331720857958771
  Basis Set: (AUG-CC-PVTZ AUX)
    Blend: AUG-CC-PVTZ-RI
    Molecular point group: c1

    Geometry (in Angstrom), charge = 0, multiplicity = 1:

       Center              X                  Y                   Z               Mass
    ------------   -----------------  -----------------  -----------------  -----------------
         O           -0.834081796230    -0.235849373196    -0.275902065143    15.994914619570
         C            2.024568203770     0.275211626804    -0.529104065143    12.000000000000
         C           -2.116111796230    -0.232504373196     0.361584934857    12.000000000000
         C            1.398944203770    -0.875800373196     0.192480934857    12.000000000000
         C            2.772682203770     1.203118626804     0.429398934857    12.000000000000
         C            0.080428203770    -1.064542373196     0.323141934857    12.000000000000
         C           -3.074877196230     0.745173526804    -0.498694365143    12.000000000000
         H            2.721675203770    -0.098220373196    -1.286118065143     1.007825032230
         H            1.250936203770     0.833766626804    -1.057288065143     1.007825032230
         H           -2.517941796230    -1.260216373196     0.388948934857     1.007825032230
         H           -2.019212796230     0.125933626804     1.400017934857     1.007825032230
         H            2.047018203770    -1.614387373196     0.657382934857     1.007825032230
         H            3.255247203770     2.020292626804    -0.112176065143     1.007825032230
         H            2.082853203770     1.632109626804     1.158679934857     1.007825032230
         H            3.546845203770     0.658099626804     0.976156934857     1.007825032230
         H           -0.341107796230    -1.900476373196     0.883716934857     1.007825032230
         H           -4.018467796230     0.722296626804    -0.009796065143     1.007825032230
         H           -2.605753796230     1.698661626804    -0.462078065143     1.007825032230
         H           -3.091063796230     0.322080626804    -1.478404065143     1.007825032230

  Basis Set: AUG-CC-PVTZ
    Blend: AUG-CC-PVTZ
  Basis Set: (AUG-CC-PVTZ AUX)
    Blend: AUG-CC-PVTZ-JKFIT
	 Reference Energy          =    -309.1331720857958771 [Eh]
	 Singles Energy            =      -0.0000000000000000 [Eh]
	 Same-Spin Energy          =      -0.3135564612143196 [Eh]
	 Opposite-Spin Energy      =      -1.0993673297933877 [Eh]
	 Correlation Energy        =      -1.4129237910077073 [Eh]
	 Total Energy              =    -310.5460958768035766 [Eh]

	 ================> DF-SCS-MP2 Energies <==================
	-----------------------------------------------------------
	 SCS Same-Spin Scale       =       0.3333333333333333 [-]
	 SCS Opposite-Spin Scale   =       1.2000000000000000 [-]
	 SCS Same-Spin Energy      =      -0.1045188204047732 [Eh]
	 SCS Opposite-Spin Energy  =      -1.3192407957520651 [Eh]
	 SCS Correlation Energy    =      -1.4237596161568382 [Eh]
	 SCS Total Energy          =    -310.5569317019526920 [Eh]
	-----------------------------------------------------------

  Dipole Moment: [D]
     X:    -1.0622      Y:    -0.2091      Z:     0.7345     Total:     1.3082

*** Psi4 exiting successfully. Buy a developer a beer!
