                               Psi4 1.3.2 release

  ==> Input File <==

--------------------------------------------------------------------------
#psi4
#
memory 32 gb

molecule  {
0 1
  O       -0.8411900    -0.2286010    -0.2822800
  C        2.0410737     0.2730567    -0.5295357
  C       -2.1232200    -0.2252560     0.3552070
  C        1.3918360    -0.8685520     0.1861030
  C        2.7655740     1.2103670     0.4230210
  C        0.0733200    -1.0572940     0.3167640
  C       -3.0226980     0.6919650    -0.4518750
  H        2.7145670    -0.0909720    -1.2924960
  H        1.2438280     0.8410150    -1.0636660
  H       -2.5250500    -1.2529680     0.3825710
  H       -2.0263210     0.1331820     1.3936400
  H        2.0550424    -1.5974355     0.6449393
  H        3.2481390     2.0275410    -0.1185540
  H        2.0757450     1.6393580     1.1523020
  H        3.5397370     0.6653480     0.9697790
  H       -0.3482160    -1.8932280     0.8773390
  H       -4.0255760     0.7295450    -0.0161740
  H       -2.6128620     1.7059100    -0.4684560
  H       -3.0981720     0.3293290    -1.4847820
units angstrom
no_reorient  #important for SAPT in psi4, default
symmetry c1  #important for SAPT in psi4, default
}

set PROPERTIES_ORIGIN ["COM"]
properties('MP2/aug-cc-pvtz', properties = ['dipole'])
--------------------------------------------------------------------------

    Molecular point group: c1
  Charge       = 0
  Multiplicity = 1
  Basis Set: AUG-CC-PVTZ
    Blend: AUG-CC-PVTZ
  Basis Set: (AUG-CC-PVTZ AUX)
    Blend: AUG-CC-PVTZ-JKFIT

    Orbital Energies [Eh]
    ---------------------

    Doubly Occupied:

       1A    -20.572444     2A    -11.286503     3A    -11.279070
       4A    -11.221109     5A    -11.214756     6A    -11.213504
       7A    -11.207088     8A     -1.393337     9A     -1.074882
      10A     -1.025684    11A     -0.967375    12A     -0.851815
      13A     -0.841118    14A     -0.754000    15A     -0.684084
      16A     -0.654551    17A     -0.642121    18A     -0.599564
      19A     -0.560037    20A     -0.557253    21A     -0.542826
      22A     -0.527260    23A     -0.513088    24A     -0.501108
      25A     -0.480182    26A     -0.471449    27A     -0.459275
      28A     -0.326399

  @DF-RHF Final Energy:  -309.13997811126359

   => Energetics <=

    Nuclear Repulsion Energy =            302.0527002836578845
    One-Electron Energy =               -1017.5415944717823322
    Two-Electron Energy =                 406.3489160768609167
    Total Energy =                       -309.1399781112635878
  Basis Set: (AUG-CC-PVTZ AUX)
    Blend: AUG-CC-PVTZ-RI
    Molecular point group: c1

    Geometry (in Angstrom), charge = 0, multiplicity = 1:

       Center              X                  Y                   Z               Mass
    ------------   -----------------  -----------------  -----------------  -----------------
         O           -0.844173473422    -0.227571295673    -0.282931921932    15.994914619570
         C            2.038090226578     0.274086404327    -0.530187621932    12.000000000000
         C           -2.126203473422    -0.224226295673     0.354555078068    12.000000000000
         C            1.388852526578    -0.867522295673     0.185451078068    12.000000000000
         C            2.762590526578     1.211396704327     0.422369078068    12.000000000000
         C            0.070336526578    -1.056264295673     0.316112078068    12.000000000000
         C           -3.025681473422     0.692994704327    -0.452526921932    12.000000000000
         H            2.711583526578    -0.089942295673    -1.293147921932     1.007825032230
         H            1.240844526578     0.842044704327    -1.064317921932     1.007825032230
         H           -2.528033473422    -1.251938295673     0.381919078068     1.007825032230
         H           -2.029304473422     0.134211704327     1.392988078068     1.007825032230
         H            2.052058926578    -1.596405795673     0.644287378068     1.007825032230
         H            3.245155526578     2.028570704327    -0.119205921932     1.007825032230
         H            2.072761526578     1.640387704327     1.151650078068     1.007825032230
         H            3.536753526578     0.666377704327     0.969127078068     1.007825032230
         H           -0.351199473422    -1.892198295673     0.876687078068     1.007825032230
         H           -4.028559473422     0.730574704327    -0.016825921932     1.007825032230
         H           -2.615845473422     1.706939704327    -0.469107921932     1.007825032230
         H           -3.101155473422     0.330358704327    -1.485433921932     1.007825032230

  Basis Set: AUG-CC-PVTZ
    Blend: AUG-CC-PVTZ
  Basis Set: (AUG-CC-PVTZ AUX)
    Blend: AUG-CC-PVTZ-JKFIT
	 Reference Energy          =    -309.1399781112635878 [Eh]
	 Singles Energy            =      -0.0000000000000000 [Eh]
	 Same-Spin Energy          =      -0.3138667546319187 [Eh]
	 Opposite-Spin Energy      =      -1.0993132141349848 [Eh]
	 Correlation Energy        =      -1.4131799687669035 [Eh]
	 Total Energy              =    -310.5531580800304710 [Eh]

	 ================> DF-SCS-MP2 Energies <==================
	-----------------------------------------------------------
	 SCS Same-Spin Scale       =       0.3333333333333333 [-]
	 SCS Opposite-Spin Scale   =       1.2000000000000000 [-]
	 SCS Same-Spin Energy      =      -0.1046222515439729 [Eh]
	 SCS Opposite-Spin Energy  =      -1.3191758569619818 [Eh]
	 SCS Correlation Energy    =      -1.4237981085059548 [Eh]
	 SCS Total Energy          =    -310.5637762197695224 [Eh]
	-----------------------------------------------------------

  Dipole Moment: [D]
     X:    -1.0996      Y:    -0.1908      Z:     0.7253     Total:     1.3310

*** Psi4 exiting successfully. Buy a developer a beer!
