                               Psi4 1.3.2 release

  ==> Input File <==

--------------------------------------------------------------------------
#psi4
#
memory 32 gb

molecule  {
0 1
  O       -0.8171929    -0.2759614    -0.2293645
  C        2.0174600     0.2824600    -0.5354820
  C       -2.1232200    -0.2252560     0.3552070
  C        1.3918360    -0.8685520     0.1861030
  C        2.7655740     1.2103670     0.4230210
  C        0.0733200    -1.0572940     0.3167640
  C       -3.0813268     0.6760583    -0.4007033
  H        2.7145670    -0.0909720    -1.2924960
  H        1.2438280     0.8410150    -1.0636660
  H       -2.5250500    -1.2529680     0.3825710
  H       -2.0263210     0.1331820     1.3936400
  H        2.0399100    -1.6071390     0.6510050
  H        3.2481390     2.0275410    -0.1185540
  H        2.0757450     1.6393580     1.1523020
  H        3.5397370     0.6653480     0.9697790
  H       -0.3482160    -1.8932280     0.8773390
  H       -4.0255760     0.7295450    -0.0161740
  H       -2.6128620     1.7059100    -0.4684560
  H       -3.0981720     0.3293290    -1.4847820
units angstrom
no_reorient  #important for SAPT in psi4, default
symmetry c1  #important for SAPT in psi4, default
}

set PROPERTIES_ORIGIN ["COM"]
properties('MP2/aug-cc-pvtz', properties = ['dipole'])
--------------------------------------------------------------------------

    Molecular point group: c1
  Charge       = 0
  Multiplicity = 1
  Basis Set: AUG-CC-PVTZ
    Blend: AUG-CC-PVTZ
  Basis Set: (AUG-CC-PVTZ AUX)
    Blend: AUG-CC-PVTZ-JKFIT

    Orbital Energies [Eh]
    ---------------------

    Doubly Occupied:

       1A    -20.575017     2A    -11.293494     3A    -11.275317
       4A    -11.228472     5A    -11.211787     6A    -11.204860
       7A    -11.204819     8A     -1.420370     9A     -1.074298
      10A     -1.032300    11A     -0.965466    12A     -0.861711
      13A     -0.839609    14A     -0.760289    15A     -0.691646
      16A     -0.659466    17A     -0.648199    18A     -0.597851
      19A     -0.581635    20A     -0.558356    21A     -0.547198
      22A     -0.531885    23A     -0.505215    24A     -0.496644
      25A     -0.475484    26A     -0.472598    27A     -0.460378
      28A     -0.315843

  @DF-RHF Final Energy:  -309.13117342638930

   => Energetics <=

    Nuclear Repulsion Energy =            302.8529585712921062
    One-Electron Energy =               -1018.9878549775380634
    Two-Electron Energy =                 407.0037229798566614
    Total Energy =                       -309.1311734263892959
  Basis Set: (AUG-CC-PVTZ AUX)
    Blend: AUG-CC-PVTZ-RI
    Molecular point group: c1

    Geometry (in Angstrom), charge = 0, multiplicity = 1:

       Center              X                  Y                   Z               Mass
    ------------   -----------------  -----------------  -----------------  -----------------
         O           -0.813998567781    -0.266485739104    -0.243956010174    15.994914619570
         C            2.020654332219     0.291935660896    -0.550073510174    12.000000000000
         C           -2.120025667781    -0.215780339104     0.340615489826    12.000000000000
         C            1.395030332219    -0.859076339104     0.171511489826    12.000000000000
         C            2.768768332219     1.219842660896     0.408429489826    12.000000000000
         C            0.076514332219    -1.047818339104     0.302172489826    12.000000000000
         C           -3.078132467781     0.685533960896    -0.415294810174    12.000000000000
         H            2.717761332219    -0.081496339104    -1.307087510174     1.007825032230
         H            1.247022332219     0.850490660896    -1.078257510174     1.007825032230
         H           -2.521855667781    -1.243492339104     0.367979489826     1.007825032230
         H           -2.023126667781     0.142657660896     1.379048489826     1.007825032230
         H            2.043104332219    -1.597663339104     0.636413489826     1.007825032230
         H            3.251333332219     2.037016660896    -0.133145510174     1.007825032230
         H            2.078939332219     1.648833660896     1.137710489826     1.007825032230
         H            3.542931332219     0.674823660896     0.955187489826     1.007825032230
         H           -0.345021667781    -1.883752339104     0.862747489826     1.007825032230
         H           -4.022381667781     0.739020660896    -0.030765510174     1.007825032230
         H           -2.609667667781     1.715385660896    -0.483047510174     1.007825032230
         H           -3.094977667781     0.338804660896    -1.499373510174     1.007825032230

  Basis Set: AUG-CC-PVTZ
    Blend: AUG-CC-PVTZ
  Basis Set: (AUG-CC-PVTZ AUX)
    Blend: AUG-CC-PVTZ-JKFIT
	 Reference Energy          =    -309.1311734263892959 [Eh]
	 Singles Energy            =      -0.0000000000000000 [Eh]
	 Same-Spin Energy          =      -0.3137176403857113 [Eh]
	 Opposite-Spin Energy      =      -1.0977007161424592 [Eh]
	 Correlation Energy        =      -1.4114183565281704 [Eh]
	 Total Energy              =    -310.5425917829174409 [Eh]

	 ================> DF-SCS-MP2 Energies <==================
	-----------------------------------------------------------
	 SCS Same-Spin Scale       =       0.3333333333333333 [-]
	 SCS Opposite-Spin Scale   =       1.2000000000000000 [-]
	 SCS Same-Spin Energy      =      -0.1045725467952371 [Eh]
	 SCS Opposite-Spin Energy  =      -1.3172408593709510 [Eh]
	 SCS Correlation Energy    =      -1.4218134061661880 [Eh]
	 SCS Total Energy          =    -310.5529868325554617 [Eh]
	-----------------------------------------------------------

  Dipole Moment: [D]
     X:    -1.5620      Y:    -0.0182      Z:     0.6124     Total:     1.6779

*** Psi4 exiting successfully. Buy a developer a beer!
