                               Psi4 1.4a3.dev225

  ==> Input File <==

--------------------------------------------------------------------------
#psi4
#
memory 32 gb

molecule  {
0 1
  O        0.9059480     0.1295110    -0.3069180
  C       -1.9753050    -0.3336000    -0.5537270
  C        2.1190110     0.1892690     0.4520280
  C       -1.3272004     0.9259590    -0.1303385
  C       -2.9908880    -0.8293550     0.4787900
  C        0.0027760     1.1130440     0.0171530
  C        3.0576820    -0.8509900    -0.1177330
  H       -2.4824890    -0.1840060    -1.5158280
  H       -1.2045440    -1.0918590    -0.7184600
  H        2.5525890     1.1965710     0.3749050
  H        1.9047370    -0.0062780     1.5110790
  H       -1.9523440     1.7996160     0.0958850
  H       -3.4787570    -1.7495600     0.1429400
  H       -2.4987140    -1.0317260     1.4340660
  H       -3.7695180    -0.0804100     0.6542360
  H        0.4396010     2.0570360     0.3475940
  H        4.0048870    -0.8497230     0.4289840
  H        2.6101410    -1.8440700    -0.0412770
  H        3.2577670    -0.6398860    -1.1701900
units angstrom
no_reorient  #important for SAPT in psi4, default
symmetry c1  #important for SAPT in psi4, default
}

set PROPERTIES_ORIGIN ["COM"]
properties('MP2/aug-cc-pvtz', properties = ['dipole'])
--------------------------------------------------------------------------

    Molecular point group: c1
  Charge       = 0
  Multiplicity = 1
  Basis Set: AUG-CC-PVTZ
    Blend: AUG-CC-PVTZ
  Basis Set: (AUG-CC-PVTZ AUX)
    Blend: AUG-CC-PVTZ-JKFIT

    Orbital Energies [Eh]
    ---------------------

    Doubly Occupied:

       1A    -20.571613     2A    -11.284273     3A    -11.280012
       4A    -11.219492     5A    -11.216770     6A    -11.215303
       7A    -11.209150     8A     -1.391864     9A     -1.075271
      10A     -1.026753    11A     -0.965090    12A     -0.852996
      13A     -0.841684    14A     -0.754107    15A     -0.685018
      16A     -0.652928    17A     -0.639280    18A     -0.600784
      19A     -0.562873    20A     -0.558509    21A     -0.540318
      22A     -0.526400    23A     -0.508664    24A     -0.502647
      25A     -0.481352    26A     -0.474125    27A     -0.462379
      28A     -0.324069

  @DF-RHF Final Energy:  -309.13968547539702

   => Energetics <=

    Nuclear Repulsion Energy =            301.2851950086937336
    One-Electron Energy =               -1016.0023117169245097
    Two-Electron Energy =                 405.5774312328338169
    Total Energy =                       -309.1396854753970160
  Basis Set: (AUG-CC-PVTZ AUX)
    Blend: AUG-CC-PVTZ-RI
    Molecular point group: c1

    Geometry (in Angstrom), charge = 0, multiplicity = 1:

       Center              X                  Y                   Z               Mass
    ------------   -----------------  -----------------  -----------------  -----------------
         O            0.900932466041     0.107528761519    -0.290941770570    15.994914619570
         C           -1.980320533959    -0.355582238481    -0.537750770570    12.000000000000
         C            2.113995466041     0.167286761519     0.468004229430    12.000000000000
         C           -1.332215933959     0.903976761519    -0.114362270570    12.000000000000
         C           -2.995903533959    -0.851337238481     0.494766229430    12.000000000000
         C           -0.002239533959     1.091061761519     0.033129229430    12.000000000000
         C            3.052666466041    -0.872972238481    -0.101756770570    12.000000000000
         H           -2.487504533959    -0.205988238481    -1.499851770570     1.007825032230
         H           -1.209559533959    -1.113841238481    -0.702483770570     1.007825032230
         H            2.547573466041     1.174588761519     0.390881229430     1.007825032230
         H            1.899721466041    -0.028260238481     1.527055229430     1.007825032230
         H           -1.957359533959     1.777633761519     0.111861229430     1.007825032230
         H           -3.483772533959    -1.771542238481     0.158916229430     1.007825032230
         H           -2.503729533959    -1.053708238481     1.450042229430     1.007825032230
         H           -3.774533533959    -0.102392238481     0.670212229430     1.007825032230
         H            0.434585466041     2.035053761519     0.363570229430     1.007825032230
         H            3.999871466041    -0.871705238481     0.444960229430     1.007825032230
         H            2.605125466041    -1.866052238481    -0.025300770570     1.007825032230
         H            3.252751466041    -0.661868238481    -1.154213770570     1.007825032230

  Basis Set: AUG-CC-PVTZ
    Blend: AUG-CC-PVTZ
  Basis Set: (AUG-CC-PVTZ AUX)
    Blend: AUG-CC-PVTZ-JKFIT
	 Reference Energy          =    -309.1396854753970160 [Eh]
	 Singles Energy            =      -0.0000000000000000 [Eh]
	 Same-Spin Energy          =      -0.3141111270602734 [Eh]
	 Opposite-Spin Energy      =      -1.0996647920163749 [Eh]
	 Correlation Energy        =      -1.4137759190766483 [Eh]
	 Total Energy              =    -310.5534613944736861 [Eh]

	 ================> DF-SCS-MP2 Energies <==================
	-----------------------------------------------------------
	 SCS Same-Spin Scale       =       0.3333333333333333 [-]
	 SCS Opposite-Spin Scale   =       1.2000000000000000 [-]
	 SCS Same-Spin Energy      =      -0.1047037090200911 [Eh]
	 SCS Opposite-Spin Energy  =      -1.3195977504196499 [Eh]
	 SCS Correlation Energy    =      -1.4243014594397410 [Eh]
	 SCS Total Energy          =    -310.5639869348367483 [Eh]
	-----------------------------------------------------------

  Dipole Moment: [D]
     X:     1.0210      Y:     0.2799      Z:     0.7555     Total:     1.3006

*** Psi4 exiting successfully. Buy a developer a beer!
