                               Psi4 1.4a3.dev225

  ==> Input File <==

--------------------------------------------------------------------------
#psi4
#
memory 32 gb

molecule  {
0 1
  O        0.9059480     0.1295110    -0.3069180
  C       -1.9753050    -0.3336000    -0.5537270
  C        2.1190110     0.1892690     0.4520280
  C       -1.3184330     0.9429980    -0.1246110
  C       -2.9908880    -0.8293550     0.4787900
  C        0.0027760     1.1130440     0.0171530
  C        3.0452704    -0.8372352    -0.1101993
  H       -2.4824890    -0.1840060    -1.5158280
  H       -1.2045440    -1.0918590    -0.7184600
  H        2.5525890     1.1965710     0.3749050
  H        1.9047370    -0.0062780     1.5110790
  H       -1.9523440     1.7996160     0.0958850
  H       -3.4787570    -1.7495600     0.1429400
  H       -2.4987140    -1.0317260     1.4340660
  H       -3.7695180    -0.0804100     0.6542360
  H        0.4396010     2.0570360     0.3475940
  H        4.0048870    -0.8497230     0.4289840
  H        2.6101410    -1.8440700    -0.0412770
  H        3.2577670    -0.6398860    -1.1701900
units angstrom
no_reorient  #important for SAPT in psi4, default
symmetry c1  #important for SAPT in psi4, default
}

set PROPERTIES_ORIGIN ["COM"]
properties('MP2/aug-cc-pvtz', properties = ['dipole'])
--------------------------------------------------------------------------

    Molecular point group: c1
  Charge       = 0
  Multiplicity = 1
  Basis Set: AUG-CC-PVTZ
    Blend: AUG-CC-PVTZ
  Basis Set: (AUG-CC-PVTZ AUX)
    Blend: AUG-CC-PVTZ-JKFIT

    Orbital Energies [Eh]
    ---------------------

    Doubly Occupied:

       1A    -20.571816     2A    -11.283554     3A    -11.278445
       4A    -11.220246     5A    -11.216386     6A    -11.215041
       7A    -11.208934     8A     -1.392259     9A     -1.074723
      10A     -1.028527    11A     -0.967544    12A     -0.850557
      13A     -0.840814    14A     -0.755106    15A     -0.685704
      16A     -0.653538    17A     -0.640726    18A     -0.599696
      19A     -0.563372    20A     -0.559345    21A     -0.538037
      22A     -0.525127    23A     -0.507244    24A     -0.505357
      25A     -0.479634    26A     -0.474248    27A     -0.461088
      28A     -0.327278

  @DF-RHF Final Energy:  -309.14050611451995

   => Energetics <=

    Nuclear Repulsion Energy =            301.4843954136217690
    One-Electron Energy =               -1016.4011143487650770
    Two-Electron Energy =                 405.7762128206233569
    Total Energy =                       -309.1405061145199511
  Basis Set: (AUG-CC-PVTZ AUX)
    Blend: AUG-CC-PVTZ-RI
    Molecular point group: c1

    Geometry (in Angstrom), charge = 0, multiplicity = 1:

       Center              X                  Y                   Z               Mass
    ------------   -----------------  -----------------  -----------------  -----------------
         O            0.901369381994     0.103836784548    -0.292531702472    15.994914619570
         C           -1.979883618006    -0.359274215452    -0.539340702472    12.000000000000
         C            2.114432381994     0.163594784548     0.466414297528    12.000000000000
         C           -1.323011618006     0.917323784548    -0.110224702472    12.000000000000
         C           -2.995466618006    -0.855029215452     0.493176297528    12.000000000000
         C           -0.001802618006     1.087369784548     0.031539297528    12.000000000000
         C            3.040691781994    -0.862909415452    -0.095813002472    12.000000000000
         H           -2.487067618006    -0.209680215452    -1.501441702472     1.007825032230
         H           -1.209122618006    -1.117533215452    -0.704073702472     1.007825032230
         H            2.548010381994     1.170896784548     0.389291297528     1.007825032230
         H            1.900158381994    -0.031952215452     1.525465297528     1.007825032230
         H           -1.956922618006     1.773941784548     0.110271297528     1.007825032230
         H           -3.483335618006    -1.775234215452     0.157326297528     1.007825032230
         H           -2.503292618006    -1.057400215452     1.448452297528     1.007825032230
         H           -3.774096618006    -0.106084215452     0.668622297528     1.007825032230
         H            0.435022381994     2.031361784548     0.361980297528     1.007825032230
         H            4.000308381994    -0.875397215452     0.443370297528     1.007825032230
         H            2.605562381994    -1.869744215452    -0.026890702472     1.007825032230
         H            3.253188381994    -0.665560215452    -1.155803702472     1.007825032230

  Basis Set: AUG-CC-PVTZ
    Blend: AUG-CC-PVTZ
  Basis Set: (AUG-CC-PVTZ AUX)
    Blend: AUG-CC-PVTZ-JKFIT
	 Reference Energy          =    -309.1405061145199511 [Eh]
	 Singles Energy            =      -0.0000000000000000 [Eh]
	 Same-Spin Energy          =      -0.3138860378089775 [Eh]
	 Opposite-Spin Energy      =      -1.0992264840320192 [Eh]
	 Correlation Energy        =      -1.4131125218409966 [Eh]
	 Total Energy              =    -310.5536186363609659 [Eh]

	 ================> DF-SCS-MP2 Energies <==================
	-----------------------------------------------------------
	 SCS Same-Spin Scale       =       0.3333333333333333 [-]
	 SCS Opposite-Spin Scale   =       1.2000000000000000 [-]
	 SCS Same-Spin Energy      =      -0.1046286792696592 [Eh]
	 SCS Opposite-Spin Energy  =      -1.3190717808384229 [Eh]
	 SCS Correlation Energy    =      -1.4237004601080820 [Eh]
	 SCS Total Energy          =    -310.5642065746280309 [Eh]
	-----------------------------------------------------------

  Dipole Moment: [D]
     X:     1.0244      Y:     0.2865      Z:     0.7614     Total:     1.3081

*** Psi4 exiting successfully. Buy a developer a beer!
