                               Psi4 1.3.2 release

  ==> Input File <==

--------------------------------------------------------------------------
#psi4
#
memory 32 gb

molecule  {
0 1
  O       -0.8588849    -0.2421577    -0.2735420
  C        2.0174600     0.2824600    -0.5354820
  C       -2.1232200    -0.2252560     0.3552070
  C        1.3918360    -0.8685520     0.1861030
  C        2.7655740     1.2103670     0.4230210
  C        0.0733200    -1.0572940     0.3167640
  C       -3.0226980     0.6919650    -0.4518750
  H        2.7145670    -0.0909720    -1.2924960
  H        1.2438280     0.8410150    -1.0636660
  H       -2.5250500    -1.2529680     0.3825710
  H       -2.0263210     0.1331820     1.3936400
  H        2.0399100    -1.6071390     0.6510050
  H        3.2481390     2.0275410    -0.1185540
  H        2.0757450     1.6393580     1.1523020
  H        3.5397370     0.6653480     0.9697790
  H       -0.3657101    -1.8873012     0.8726985
  H       -4.0255760     0.7295450    -0.0161740
  H       -2.6128620     1.7059100    -0.4684560
  H       -3.0981720     0.3293290    -1.4847820
units angstrom
no_reorient  #important for SAPT in psi4, default
symmetry c1  #important for SAPT in psi4, default
}

set PROPERTIES_ORIGIN ["COM"]
properties('MP2/aug-cc-pvtz', properties = ['dipole'])
--------------------------------------------------------------------------

    Molecular point group: c1
  Charge       = 0
  Multiplicity = 1
  Basis Set: AUG-CC-PVTZ
    Blend: AUG-CC-PVTZ
  Basis Set: (AUG-CC-PVTZ AUX)
    Blend: AUG-CC-PVTZ-JKFIT

    Orbital Energies [Eh]
    ---------------------

    Doubly Occupied:

       1A    -20.571196     2A    -11.284477     3A    -11.279561
       4A    -11.220400     5A    -11.215856     6A    -11.214934
       7A    -11.208020     8A     -1.398314     9A     -1.076117
      10A     -1.025171    11A     -0.967206    12A     -0.853306
      13A     -0.840845    14A     -0.757697    15A     -0.685070
      16A     -0.655385    17A     -0.644498    18A     -0.598969
      19A     -0.561071    20A     -0.558102    21A     -0.541798
      22A     -0.529996    23A     -0.510401    24A     -0.499420
      25A     -0.479474    26A     -0.472490    27A     -0.462284
      28A     -0.326799

  @DF-RHF Final Energy:  -309.14142933251185

   => Energetics <=

    Nuclear Repulsion Energy =            302.3176146002841733
    One-Electron Energy =               -1018.0403739649985937
    Two-Electron Energy =                 406.5813300322025725
    Total Energy =                       -309.1414293325118479
  Basis Set: (AUG-CC-PVTZ AUX)
    Blend: AUG-CC-PVTZ-RI
    Molecular point group: c1

    Geometry (in Angstrom), charge = 0, multiplicity = 1:

       Center              X                  Y                   Z               Mass
    ------------   -----------------  -----------------  -----------------  -----------------
         O           -0.855880944976    -0.240050903174    -0.274891745322    15.994914619570
         C            2.020463955024     0.284566796826    -0.536831745322    12.000000000000
         C           -2.120216044976    -0.223149203174     0.353857254678    12.000000000000
         C            1.394839955024    -0.866445203174     0.184753254678    12.000000000000
         C            2.768577955024     1.212473796826     0.421671254678    12.000000000000
         C            0.076323955024    -1.055187203174     0.315414254678    12.000000000000
         C           -3.019694044976     0.694071796826    -0.453224745322    12.000000000000
         H            2.717570955024    -0.088865203174    -1.293845745322     1.007825032230
         H            1.246831955024     0.843121796826    -1.065015745322     1.007825032230
         H           -2.522046044976    -1.250861203174     0.381221254678     1.007825032230
         H           -2.023317044976     0.135288796826     1.392290254678     1.007825032230
         H            2.042913955024    -1.605032203174     0.649655254678     1.007825032230
         H            3.251142955024     2.029647796826    -0.119903745322     1.007825032230
         H            2.078748955024     1.641464796826     1.150952254678     1.007825032230
         H            3.542740955024     0.667454796826     0.968429254678     1.007825032230
         H           -0.362706144976    -1.885194403174     0.871348754678     1.007825032230
         H           -4.022572044976     0.731651796826    -0.017523745322     1.007825032230
         H           -2.609858044976     1.708016796826    -0.469805745322     1.007825032230
         H           -3.095168044976     0.331435796826    -1.486131745322     1.007825032230

  Basis Set: AUG-CC-PVTZ
    Blend: AUG-CC-PVTZ
  Basis Set: (AUG-CC-PVTZ AUX)
    Blend: AUG-CC-PVTZ-JKFIT
	 Reference Energy          =    -309.1414293325118479 [Eh]
	 Singles Energy            =      -0.0000000000000000 [Eh]
	 Same-Spin Energy          =      -0.3136703874906815 [Eh]
	 Opposite-Spin Energy      =      -1.0985993267262959 [Eh]
	 Correlation Energy        =      -1.4122697142169773 [Eh]
	 Total Energy              =    -310.5536990467288092 [Eh]

	 ================> DF-SCS-MP2 Energies <==================
	-----------------------------------------------------------
	 SCS Same-Spin Scale       =       0.3333333333333333 [-]
	 SCS Opposite-Spin Scale   =       1.2000000000000000 [-]
	 SCS Same-Spin Energy      =      -0.1045567958302272 [Eh]
	 SCS Opposite-Spin Energy  =      -1.3183191920715551 [Eh]
	 SCS Correlation Energy    =      -1.4228759879017823 [Eh]
	 SCS Total Energy          =    -310.5643053204136095 [Eh]
	-----------------------------------------------------------

  Dipole Moment: [D]
     X:    -1.0011      Y:    -0.1665      Z:     0.6973     Total:     1.2313

*** Psi4 exiting successfully. Buy a developer a beer!
