                               Psi4 1.3.2 release

  ==> Input File <==

--------------------------------------------------------------------------
#psi4
#
memory 32 gb

molecule  {
0 1
  O       -0.8411900    -0.2286010    -0.2822800
  C        2.0174600     0.2824600    -0.5354820
  C       -2.1232200    -0.2252560     0.3552070
  C        1.3500060    -0.9455102     0.2343491
  C        2.7655740     1.2103670     0.4230210
  C        0.0733200    -1.0572940     0.3167640
  C       -3.0226980     0.6919650    -0.4518750
  H        2.7145670    -0.0909720    -1.2924960
  H        1.2438280     0.8410150    -1.0636660
  H       -2.5250500    -1.2529680     0.3825710
  H       -2.0263210     0.1331820     1.3936400
  H        2.0399100    -1.6071390     0.6510050
  H        3.2481390     2.0275410    -0.1185540
  H        2.0757450     1.6393580     1.1523020
  H        3.5397370     0.6653480     0.9697790
  H       -0.3482160    -1.8932280     0.8773390
  H       -4.0255760     0.7295450    -0.0161740
  H       -2.6128620     1.7059100    -0.4684560
  H       -3.0981720     0.3293290    -1.4847820
units angstrom
no_reorient  #important for SAPT in psi4, default
symmetry c1  #important for SAPT in psi4, default
}

set PROPERTIES_ORIGIN ["COM"]
properties('MP2/aug-cc-pvtz', properties = ['dipole'])
--------------------------------------------------------------------------

    Molecular point group: c1
  Charge       = 0
  Multiplicity = 1
  Basis Set: AUG-CC-PVTZ
    Blend: AUG-CC-PVTZ
  Basis Set: (AUG-CC-PVTZ AUX)
    Blend: AUG-CC-PVTZ-JKFIT

    Orbital Energies [Eh]
    ---------------------

    Doubly Occupied:

       1A    -20.573300     2A    -11.286712     3A    -11.270761
       4A    -11.221211     5A    -11.218518     6A    -11.206693
       7A    -11.206549     8A     -1.393480     9A     -1.072689
      10A     -1.021060    11A     -0.976947    12A     -0.847607
      13A     -0.836732    14A     -0.757871    15A     -0.684471
      16A     -0.654933    17A     -0.649513    18A     -0.591390
      19A     -0.568199    20A     -0.555474    21A     -0.542014
      22A     -0.531304    23A     -0.505087    24A     -0.500135
      25A     -0.478474    26A     -0.471491    27A     -0.447055
      28A     -0.340976

  @DF-RHF Final Energy:  -309.13362914542165

   => Energetics <=

    Nuclear Repulsion Energy =            301.7769560105355140
    One-Electron Energy =               -1016.9998769581548004
    Two-Electron Energy =                 406.0892918021976357
    Total Energy =                       -309.1336291454216507
  Basis Set: (AUG-CC-PVTZ AUX)
    Blend: AUG-CC-PVTZ-RI
    Molecular point group: c1

    Geometry (in Angstrom), charge = 0, multiplicity = 1:

       Center              X                  Y                   Z               Mass
    ------------   -----------------  -----------------  -----------------  -----------------
         O           -0.836174825306    -0.219374193627    -0.288064471101    15.994914619570
         C            2.022475174694     0.291686806373    -0.541266471101    12.000000000000
         C           -2.118204825306    -0.216029193627     0.349422528899    12.000000000000
         C            1.355021174694    -0.936283393627     0.228564628899    12.000000000000
         C            2.770589174694     1.219593806373     0.417236528899    12.000000000000
         C            0.078335174694    -1.048067193627     0.310979528899    12.000000000000
         C           -3.017682825306     0.701191806373    -0.457659471101    12.000000000000
         H            2.719582174694    -0.081745193627    -1.298280471101     1.007825032230
         H            1.248843174694     0.850241806373    -1.069450471101     1.007825032230
         H           -2.520034825306    -1.243741193627     0.376786528899     1.007825032230
         H           -2.021305825306     0.142408806373     1.387855528899     1.007825032230
         H            2.044925174694    -1.597912193627     0.645220528899     1.007825032230
         H            3.253154174694     2.036767806373    -0.124338471101     1.007825032230
         H            2.080760174694     1.648584806373     1.146517528899     1.007825032230
         H            3.544752174694     0.674574806373     0.963994528899     1.007825032230
         H           -0.343200825306    -1.884001193627     0.871554528899     1.007825032230
         H           -4.020560825306     0.738771806373    -0.021958471101     1.007825032230
         H           -2.607846825306     1.715136806373    -0.474240471101     1.007825032230
         H           -3.093156825306     0.338555806373    -1.490566471101     1.007825032230

  Basis Set: AUG-CC-PVTZ
    Blend: AUG-CC-PVTZ
  Basis Set: (AUG-CC-PVTZ AUX)
    Blend: AUG-CC-PVTZ-JKFIT
	 Reference Energy          =    -309.1336291454216507 [Eh]
	 Singles Energy            =      -0.0000000000000000 [Eh]
	 Same-Spin Energy          =      -0.3126171348346659 [Eh]
	 Opposite-Spin Energy      =      -1.0974658597135400 [Eh]
	 Correlation Energy        =      -1.4100829945482061 [Eh]
	 Total Energy              =    -310.5437121399698412 [Eh]

	 ================> DF-SCS-MP2 Energies <==================
	-----------------------------------------------------------
	 SCS Same-Spin Scale       =       0.3333333333333333 [-]
	 SCS Opposite-Spin Scale   =       1.2000000000000000 [-]
	 SCS Same-Spin Energy      =      -0.1042057116115553 [Eh]
	 SCS Opposite-Spin Energy  =      -1.3169590316562481 [Eh]
	 SCS Correlation Energy    =      -1.4211647432678034 [Eh]
	 SCS Total Energy          =    -310.5547938886894599 [Eh]
	-----------------------------------------------------------

  Dipole Moment: [D]
     X:    -1.0707      Y:    -0.2201      Z:     0.7583     Total:     1.3303

*** Psi4 exiting successfully. Buy a developer a beer!
