                               Psi4 1.3.2 release

  ==> Input File <==

--------------------------------------------------------------------------
#psi4
#
memory 32 gb

molecule  {
0 1
  O       -0.8411900    -0.2286010    -0.2822800
  C        2.0174600     0.2824600    -0.5354820
  C       -2.1232200    -0.2252560     0.3552070
  C        1.3918360    -0.8685520     0.1861030
  C        2.7655740     1.2103670     0.4230210
  C        0.1399836    -1.1177019     0.3604315
  C       -3.0226980     0.6919650    -0.4518750
  H        2.7145670    -0.0909720    -1.2924960
  H        1.2438280     0.8410150    -1.0636660
  H       -2.5250500    -1.2529680     0.3825710
  H       -2.0263210     0.1331820     1.3936400
  H        2.0399100    -1.6071390     0.6510050
  H        3.2481390     2.0275410    -0.1185540
  H        2.0757450     1.6393580     1.1523020
  H        3.5397370     0.6653480     0.9697790
  H       -0.3482160    -1.8932280     0.8773390
  H       -4.0255760     0.7295450    -0.0161740
  H       -2.6128620     1.7059100    -0.4684560
  H       -3.0981720     0.3293290    -1.4847820
units angstrom
no_reorient  #important for SAPT in psi4, default
symmetry c1  #important for SAPT in psi4, default
}

set PROPERTIES_ORIGIN ["COM"]
properties('MP2/aug-cc-pvtz', properties = ['dipole'])
--------------------------------------------------------------------------

    Molecular point group: c1
  Charge       = 0
  Multiplicity = 1
  Basis Set: AUG-CC-PVTZ
    Blend: AUG-CC-PVTZ
  Basis Set: (AUG-CC-PVTZ AUX)
    Blend: AUG-CC-PVTZ-JKFIT

    Orbital Energies [Eh]
    ---------------------

    Doubly Occupied:

       1A    -20.557641     2A    -11.277229     3A    -11.273245
       4A    -11.220775     5A    -11.216633     6A    -11.215352
       7A    -11.211532     8A     -1.353089     9A     -1.084410
      10A     -1.017084    11A     -0.978122    12A     -0.853420
      13A     -0.833229    14A     -0.753874    15A     -0.680654
      16A     -0.643642    17A     -0.634087    18A     -0.600005
      19A     -0.561600    20A     -0.552016    21A     -0.535674
      22A     -0.519816    23A     -0.514862    24A     -0.497183
      25A     -0.486170    26A     -0.462154    27A     -0.455398
      28A     -0.346867

  @DF-RHF Final Energy:  -309.13043870400219

   => Energetics <=

    Nuclear Repulsion Energy =            301.0993366945646699
    One-Electron Energy =               -1015.7880312703177879
    Two-Electron Energy =                 405.5582558717508732
    Total Energy =                       -309.1304387040021879
  Basis Set: (AUG-CC-PVTZ AUX)
    Blend: AUG-CC-PVTZ-RI
    Molecular point group: c1

    Geometry (in Angstrom), charge = 0, multiplicity = 1:

       Center              X                  Y                   Z               Mass
    ------------   -----------------  -----------------  -----------------  -----------------
         O           -0.849182504535    -0.221358467295    -0.287515526646    15.994914619570
         C            2.009467495465     0.289702532705    -0.540717526646    12.000000000000
         C           -2.131212504535    -0.218013467295     0.349971473354    12.000000000000
         C            1.383843495465    -0.861309467295     0.180867473354    12.000000000000
         C            2.757581495465     1.217609532705     0.417785473354    12.000000000000
         C            0.131991095465    -1.110459367295     0.355195973354    12.000000000000
         C           -3.030690504535     0.699207532705    -0.457110526646    12.000000000000
         H            2.706574495465    -0.083729467295    -1.297731526646     1.007825032230
         H            1.235835495465     0.848257532705    -1.068901526646     1.007825032230
         H           -2.533042504535    -1.245725467295     0.377335473354     1.007825032230
         H           -2.034313504535     0.140424532705     1.388404473354     1.007825032230
         H            2.031917495465    -1.599896467295     0.645769473354     1.007825032230
         H            3.240146495465     2.034783532705    -0.123789526646     1.007825032230
         H            2.067752495465     1.646600532705     1.147066473354     1.007825032230
         H            3.531744495465     0.672590532705     0.964543473354     1.007825032230
         H           -0.356208504535    -1.885985467295     0.872103473354     1.007825032230
         H           -4.033568504535     0.736787532705    -0.021409526646     1.007825032230
         H           -2.620854504535     1.713152532705    -0.473691526646     1.007825032230
         H           -3.106164504535     0.336571532705    -1.490017526646     1.007825032230

  Basis Set: AUG-CC-PVTZ
    Blend: AUG-CC-PVTZ
  Basis Set: (AUG-CC-PVTZ AUX)
    Blend: AUG-CC-PVTZ-JKFIT
	 Reference Energy          =    -309.1304387040021879 [Eh]
	 Singles Energy            =      -0.0000000000000000 [Eh]
	 Same-Spin Energy          =      -0.3134996528953758 [Eh]
	 Opposite-Spin Energy      =      -1.0997874385267328 [Eh]
	 Correlation Energy        =      -1.4132870914221085 [Eh]
	 Total Energy              =    -310.5437257954242796 [Eh]

	 ================> DF-SCS-MP2 Energies <==================
	-----------------------------------------------------------
	 SCS Same-Spin Scale       =       0.3333333333333333 [-]
	 SCS Opposite-Spin Scale   =       1.2000000000000000 [-]
	 SCS Same-Spin Energy      =      -0.1044998842984586 [Eh]
	 SCS Opposite-Spin Energy  =      -1.3197449262320793 [Eh]
	 SCS Correlation Energy    =      -1.4242448105305379 [Eh]
	 SCS Total Energy          =    -310.5546835145327123 [Eh]
	-----------------------------------------------------------

  Dipole Moment: [D]
     X:    -0.4731      Y:    -0.3589      Z:     0.8408     Total:     1.0294

*** Psi4 exiting successfully. Buy a developer a beer!
