                               Psi4 1.3.2 release

  ==> Input File <==

--------------------------------------------------------------------------
#psi4
#
memory 32 gb

molecule  {
0 1
  O       -0.8411900    -0.2286010    -0.2822800
  C        2.0174600     0.2824600    -0.5354820
  C       -2.1232200    -0.2252560     0.3552070
  C        1.3918360    -0.8685520     0.1861030
  C        2.7655740     1.2103670     0.4230210
  C        0.0821284    -1.0960288     0.3413467
  C       -3.0226980     0.6919650    -0.4518750
  H        2.7145670    -0.0909720    -1.2924960
  H        1.2438280     0.8410150    -1.0636660
  H       -2.5250500    -1.2529680     0.3825710
  H       -2.0263210     0.1331820     1.3936400
  H        2.0090587    -1.6256599     0.6630393
  H        3.2481390     2.0275410    -0.1185540
  H        2.0757450     1.6393580     1.1523020
  H        3.5397370     0.6653480     0.9697790
  H       -0.3482160    -1.8932280     0.8773390
  H       -4.0255760     0.7295450    -0.0161740
  H       -2.6128620     1.7059100    -0.4684560
  H       -3.0981720     0.3293290    -1.4847820
units angstrom
no_reorient  #important for SAPT in psi4, default
symmetry c1  #important for SAPT in psi4, default
}

set PROPERTIES_ORIGIN ["COM"]
properties('MP2/aug-cc-pvtz', properties = ['dipole'])
--------------------------------------------------------------------------

    Molecular point group: c1
  Charge       = 0
  Multiplicity = 1
  Basis Set: AUG-CC-PVTZ
    Blend: AUG-CC-PVTZ
  Basis Set: (AUG-CC-PVTZ AUX)
    Blend: AUG-CC-PVTZ-JKFIT

    Orbital Energies [Eh]
    ---------------------

    Doubly Occupied:

       1A    -20.566775     2A    -11.282299     3A    -11.276227
       4A    -11.218589     5A    -11.218434     6A    -11.217675
       7A    -11.209291     8A     -1.376390     9A     -1.075339
      10A     -1.021451    11A     -0.969718    12A     -0.851954
      13A     -0.839659    14A     -0.755196    15A     -0.683299
      16A     -0.650895    17A     -0.635871    18A     -0.598702
      19A     -0.560571    20A     -0.556141    21A     -0.539865
      22A     -0.522649    23A     -0.512354    24A     -0.498908
      25A     -0.484068    26A     -0.469724    27A     -0.462865
      28A     -0.329909

  @DF-RHF Final Energy:  -309.13732066762407

   => Energetics <=

    Nuclear Repulsion Energy =            301.4549192705190990
    One-Electron Energy =               -1016.4148406673531326
    Two-Electron Energy =                 405.8226007292099666
    Total Energy =                       -309.1373206676240670
  Basis Set: (AUG-CC-PVTZ AUX)
    Blend: AUG-CC-PVTZ-RI
    Molecular point group: c1

    Geometry (in Angstrom), charge = 0, multiplicity = 1:

       Center              X                  Y                   Z               Mass
    ------------   -----------------  -----------------  -----------------  -----------------
         O           -0.841935389936    -0.223770438836    -0.285348559926    15.994914619570
         C            2.016714610064     0.287290561164    -0.538550559926    12.000000000000
         C           -2.123965389936    -0.220425438836     0.352138440074    12.000000000000
         C            1.391090610064    -0.863721438836     0.183034440074    12.000000000000
         C            2.764828610064     1.215197561164     0.419952440074    12.000000000000
         C            0.081383010064    -1.091198238836     0.338278140074    12.000000000000
         C           -3.023443389936     0.696795561164    -0.454943559926    12.000000000000
         H            2.713821610064    -0.086141438836    -1.295564559926     1.007825032230
         H            1.243082610064     0.845845561164    -1.066734559926     1.007825032230
         H           -2.525795389936    -1.248137438836     0.379502440074     1.007825032230
         H           -2.027066389936     0.138012561164     1.390571440074     1.007825032230
         H            2.008313310064    -1.620829338836     0.659970740074     1.007825032230
         H            3.247393610064     2.032371561164    -0.121622559926     1.007825032230
         H            2.074999610064     1.644188561164     1.149233440074     1.007825032230
         H            3.538991610064     0.670178561164     0.966710440074     1.007825032230
         H           -0.348961389936    -1.888397438836     0.874270440074     1.007825032230
         H           -4.026321389936     0.734375561164    -0.019242559926     1.007825032230
         H           -2.613607389936     1.710740561164    -0.471524559926     1.007825032230
         H           -3.098917389936     0.334159561164    -1.487850559926     1.007825032230

  Basis Set: AUG-CC-PVTZ
    Blend: AUG-CC-PVTZ
  Basis Set: (AUG-CC-PVTZ AUX)
    Blend: AUG-CC-PVTZ-JKFIT
	 Reference Energy          =    -309.1373206676240670 [Eh]
	 Singles Energy            =      -0.0000000000000000 [Eh]
	 Same-Spin Energy          =      -0.3138348777125048 [Eh]
	 Opposite-Spin Energy      =      -1.0999879850423788 [Eh]
	 Correlation Energy        =      -1.4138228627548837 [Eh]
	 Total Energy              =    -310.5511435303789654 [Eh]

	 ================> DF-SCS-MP2 Energies <==================
	-----------------------------------------------------------
	 SCS Same-Spin Scale       =       0.3333333333333333 [-]
	 SCS Opposite-Spin Scale   =       1.2000000000000000 [-]
	 SCS Same-Spin Energy      =      -0.1046116259041683 [Eh]
	 SCS Opposite-Spin Energy  =      -1.3199855820508546 [Eh]
	 SCS Correlation Energy    =      -1.4245972079550229 [Eh]
	 SCS Total Energy          =    -310.5619178755790699 [Eh]
	-----------------------------------------------------------

  Dipole Moment: [D]
     X:    -0.8673      Y:    -0.2644      Z:     0.7733     Total:     1.1918

*** Psi4 exiting successfully. Buy a developer a beer!
