                               Psi4 1.3.2 release

  ==> Input File <==

--------------------------------------------------------------------------
#psi4
#
memory 32 gb

molecule  {
0 1
  O       -0.8411900    -0.2286010    -0.2822800
  C        1.9936567     0.2916668    -0.5409616
  C       -2.1232200    -0.2252560     0.3552070
  C        1.3918360    -0.8685520     0.1861030
  C        2.7655740     1.2103670     0.4230210
  C        0.0695196    -1.0377012     0.3046276
  C       -3.0226980     0.6919650    -0.4518750
  H        2.7145670    -0.0909720    -1.2924960
  H        1.2438280     0.8410150    -1.0636660
  H       -2.5250500    -1.2529680     0.3825710
  H       -2.0263210     0.1331820     1.3936400
  H        2.0399100    -1.6071390     0.6510050
  H        3.2481390     2.0275410    -0.1185540
  H        2.0757450     1.6393580     1.1523020
  H        3.5397370     0.6653480     0.9697790
  H       -0.3482160    -1.8932280     0.8773390
  H       -4.0255760     0.7295450    -0.0161740
  H       -2.6128620     1.7059100    -0.4684560
  H       -3.0981720     0.3293290    -1.4847820
units angstrom
no_reorient  #important for SAPT in psi4, default
symmetry c1  #important for SAPT in psi4, default
}

set PROPERTIES_ORIGIN ["COM"]
properties('MP2/aug-cc-pvtz', properties = ['dipole'])
--------------------------------------------------------------------------

    Molecular point group: c1
  Charge       = 0
  Multiplicity = 1
  Basis Set: AUG-CC-PVTZ
    Blend: AUG-CC-PVTZ
  Basis Set: (AUG-CC-PVTZ AUX)
    Blend: AUG-CC-PVTZ-JKFIT

    Orbital Energies [Eh]
    ---------------------

    Doubly Occupied:

       1A    -20.574883     2A    -11.288464     3A    -11.278574
       4A    -11.222368     5A    -11.213240     6A    -11.211259
       7A    -11.206860     8A     -1.402002     9A     -1.074551
      10A     -1.026325    11A     -0.964748    12A     -0.852706
      13A     -0.841383    14A     -0.756025    15A     -0.683832
      16A     -0.655952    17A     -0.646312    18A     -0.595561
      19A     -0.561976    20A     -0.557366    21A     -0.542309
      22A     -0.529643    23A     -0.505825    24A     -0.503614
      25A     -0.479178    26A     -0.475142    27A     -0.464506
      28A     -0.322745

  @DF-RHF Final Energy:  -309.13992042318438

   => Energetics <=

    Nuclear Repulsion Energy =            302.5559019161694891
    One-Electron Energy =               -1018.5169459831811309
    Two-Electron Energy =                 406.8211236438273204
    Total Energy =                       -309.1399204231843783
  Basis Set: (AUG-CC-PVTZ AUX)
    Blend: AUG-CC-PVTZ-RI
    Molecular point group: c1

    Geometry (in Angstrom), charge = 0, multiplicity = 1:

       Center              X                  Y                   Z               Mass
    ------------   -----------------  -----------------  -----------------  -----------------
         O           -0.837880466441    -0.232053868174    -0.280168032324    15.994914619570
         C            1.996966233559     0.288213931826    -0.538849632324    12.000000000000
         C           -2.119910466441    -0.228708868174     0.357318967676    12.000000000000
         C            1.395145533559    -0.872004868174     0.188214967676    12.000000000000
         C            2.768883533559     1.206914131826     0.425132967676    12.000000000000
         C            0.072829133559    -1.041154068174     0.306739567676    12.000000000000
         C           -3.019388466441     0.688512131826    -0.449763032324    12.000000000000
         H            2.717876533559    -0.094424868174    -1.290384032324     1.007825032230
         H            1.247137533559     0.837562131826    -1.061554032324     1.007825032230
         H           -2.521740466441    -1.256420868174     0.384682967676     1.007825032230
         H           -2.023011466441     0.129729131826     1.395751967676     1.007825032230
         H            2.043219533559    -1.610591868174     0.653116967676     1.007825032230
         H            3.251448533559     2.024088131826    -0.116442032324     1.007825032230
         H            2.079054533559     1.635905131826     1.154413967676     1.007825032230
         H            3.543046533559     0.661895131826     0.971890967676     1.007825032230
         H           -0.344906466441    -1.896680868174     0.879450967676     1.007825032230
         H           -4.022266466441     0.726092131826    -0.014062032324     1.007825032230
         H           -2.609552466441     1.702457131826    -0.466344032324     1.007825032230
         H           -3.094862466441     0.325876131826    -1.482670032324     1.007825032230

  Basis Set: AUG-CC-PVTZ
    Blend: AUG-CC-PVTZ
  Basis Set: (AUG-CC-PVTZ AUX)
    Blend: AUG-CC-PVTZ-JKFIT
	 Reference Energy          =    -309.1399204231843783 [Eh]
	 Singles Energy            =      -0.0000000000000000 [Eh]
	 Same-Spin Energy          =      -0.3138526107802151 [Eh]
	 Opposite-Spin Energy      =      -1.0988904919269407 [Eh]
	 Correlation Energy        =      -1.4127431027071558 [Eh]
	 Total Energy              =    -310.5526635258915462 [Eh]

	 ================> DF-SCS-MP2 Energies <==================
	-----------------------------------------------------------
	 SCS Same-Spin Scale       =       0.3333333333333333 [-]
	 SCS Opposite-Spin Scale   =       1.2000000000000000 [-]
	 SCS Same-Spin Energy      =      -0.1046175369267384 [Eh]
	 SCS Opposite-Spin Energy  =      -1.3186685903123287 [Eh]
	 SCS Correlation Energy    =      -1.4232861272390671 [Eh]
	 SCS Total Energy          =    -310.5632065504234447 [Eh]
	-----------------------------------------------------------

  Dipole Moment: [D]
     X:    -1.2168      Y:    -0.1465      Z:     0.7014     Total:     1.4121

*** Psi4 exiting successfully. Buy a developer a beer!
