                               Psi4 1.3.2 release

  ==> Input File <==

--------------------------------------------------------------------------
#psi4
#
memory 32 gb

molecule  {
0 1
  O       -0.8396819    -0.2038894    -0.2788870
  C        2.0174600     0.2824600    -0.5354820
  C       -2.1232200    -0.2252560     0.3552070
  C        1.3918360    -0.8685520     0.1861030
  C        2.7655740     1.2103670     0.4230210
  C        0.0733200    -1.0572940     0.3167640
  C       -3.0226980     0.6919650    -0.4518750
  H        2.7145670    -0.0909720    -1.2924960
  H        1.2438280     0.8410150    -1.0636660
  H       -2.5408028    -1.2463904     0.3914997
  H       -2.0263210     0.1331820     1.3936400
  H        2.0399100    -1.6071390     0.6510050
  H        3.2481390     2.0275410    -0.1185540
  H        2.0757450     1.6393580     1.1523020
  H        3.5397370     0.6653480     0.9697790
  H       -0.3482160    -1.8932280     0.8773390
  H       -4.0255760     0.7295450    -0.0161740
  H       -2.6128620     1.7059100    -0.4684560
  H       -3.0981720     0.3293290    -1.4847820
units angstrom
no_reorient  #important for SAPT in psi4, default
symmetry c1  #important for SAPT in psi4, default
}

set PROPERTIES_ORIGIN ["COM"]
properties('MP2/aug-cc-pvtz', properties = ['dipole'])
--------------------------------------------------------------------------

    Molecular point group: c1
  Charge       = 0
  Multiplicity = 1
  Basis Set: AUG-CC-PVTZ
    Blend: AUG-CC-PVTZ
  Basis Set: (AUG-CC-PVTZ AUX)
    Blend: AUG-CC-PVTZ-JKFIT

    Orbital Energies [Eh]
    ---------------------

    Doubly Occupied:

       1A    -20.572753     2A    -11.285374     3A    -11.278994
       4A    -11.219935     5A    -11.215316     6A    -11.214549
       7A    -11.207743     8A     -1.389107     9A     -1.074943
      10A     -1.023835    11A     -0.967260    12A     -0.850333
      13A     -0.841405    14A     -0.753769    15A     -0.682182
      16A     -0.654383    17A     -0.641420    18A     -0.597277
      19A     -0.560708    20A     -0.555835    21A     -0.541498
      22A     -0.525975    23A     -0.509815    24A     -0.501445
      25A     -0.479480    26A     -0.472747    27A     -0.464812
      28A     -0.327043

  @DF-RHF Final Energy:  -309.13995725899139

   => Energetics <=

    Nuclear Repulsion Energy =            301.9921242425193100
    One-Electron Energy =               -1017.4442941772337008
    Two-Electron Energy =                 406.3122126757230603
    Total Energy =                       -309.1399572589913873
  Basis Set: (AUG-CC-PVTZ AUX)
    Blend: AUG-CC-PVTZ-RI
    Molecular point group: c1

    Geometry (in Angstrom), charge = 0, multiplicity = 1:

       Center              X                  Y                   Z               Mass
    ------------   -----------------  -----------------  -----------------  -----------------
         O           -0.839764256579    -0.207904706664    -0.279519208210    15.994914619570
         C            2.017377643421     0.278444693336    -0.536114208210    12.000000000000
         C           -2.123302356579    -0.229271306664     0.354574791790    12.000000000000
         C            1.391753643421    -0.872567306664     0.185470791790    12.000000000000
         C            2.765491643421     1.206351693336     0.422388791790    12.000000000000
         C            0.073237643421    -1.061309306664     0.316131791790    12.000000000000
         C           -3.022780356579     0.687949693336    -0.452507208210    12.000000000000
         H            2.714484643421    -0.094987306664    -1.293128208210     1.007825032230
         H            1.243745643421     0.836999693336    -1.064298208210     1.007825032230
         H           -2.540885156579    -1.250405706664     0.390867491790     1.007825032230
         H           -2.026403356579     0.129166693336     1.393007791790     1.007825032230
         H            2.039827643421    -1.611154306664     0.650372791790     1.007825032230
         H            3.248056643421     2.023525693336    -0.119186208210     1.007825032230
         H            2.075662643421     1.635342693336     1.151669791790     1.007825032230
         H            3.539654643421     0.661332693336     0.969146791790     1.007825032230
         H           -0.348298356579    -1.897243306664     0.876706791790     1.007825032230
         H           -4.025658356579     0.725529693336    -0.016806208210     1.007825032230
         H           -2.612944356579     1.701894693336    -0.469088208210     1.007825032230
         H           -3.098254356579     0.325313693336    -1.485414208210     1.007825032230

  Basis Set: AUG-CC-PVTZ
    Blend: AUG-CC-PVTZ
  Basis Set: (AUG-CC-PVTZ AUX)
    Blend: AUG-CC-PVTZ-JKFIT
	 Reference Energy          =    -309.1399572589913873 [Eh]
	 Singles Energy            =      -0.0000000000000000 [Eh]
	 Same-Spin Energy          =      -0.3139024274927408 [Eh]
	 Opposite-Spin Energy      =      -1.0996118358044171 [Eh]
	 Correlation Energy        =      -1.4135142632971580 [Eh]
	 Total Energy              =    -310.5534715222885325 [Eh]

	 ================> DF-SCS-MP2 Energies <==================
	-----------------------------------------------------------
	 SCS Same-Spin Scale       =       0.3333333333333333 [-]
	 SCS Opposite-Spin Scale   =       1.2000000000000000 [-]
	 SCS Same-Spin Energy      =      -0.1046341424975803 [Eh]
	 SCS Opposite-Spin Energy  =      -1.3195342029653006 [Eh]
	 SCS Correlation Energy    =      -1.4241683454628808 [Eh]
	 SCS Total Energy          =    -310.5641256044542615 [Eh]
	-----------------------------------------------------------

  Dipole Moment: [D]
     X:    -1.0346      Y:    -0.2481      Z:     0.7379     Total:     1.2948

*** Psi4 exiting successfully. Buy a developer a beer!
