                               Psi4 1.3.2 release

  ==> Input File <==

--------------------------------------------------------------------------
#psi4
#
memory 32 gb

molecule  {
0 1
  O       -0.8049471    -0.2031249    -0.3004526
  C        2.0174600     0.2824600    -0.5354820
  C       -2.1232200    -0.2252560     0.3552070
  C        1.3830227    -0.8313150     0.1593073
  C        2.7655740     1.2103670     0.4230210
  C        0.0733200    -1.0572940     0.3167640
  C       -3.0226980     0.6919650    -0.4518750
  H        2.7145670    -0.0909720    -1.2924960
  H        1.2438280     0.8410150    -1.0636660
  H       -2.5250500    -1.2529680     0.3825710
  H       -2.0263210     0.1331820     1.3936400
  H        2.0399100    -1.6071390     0.6510050
  H        3.2481390     2.0275410    -0.1185540
  H        2.0757450     1.6393580     1.1523020
  H        3.5397370     0.6653480     0.9697790
  H       -0.3482160    -1.8932280     0.8773390
  H       -4.0255760     0.7295450    -0.0161740
  H       -2.6128620     1.7059100    -0.4684560
  H       -3.0981720     0.3293290    -1.4847820
units angstrom
no_reorient  #important for SAPT in psi4, default
symmetry c1  #important for SAPT in psi4, default
}

set PROPERTIES_ORIGIN ["COM"]
properties('MP2/aug-cc-pvtz', properties = ['dipole'])
--------------------------------------------------------------------------

    Molecular point group: c1
  Charge       = 0
  Multiplicity = 1
  Basis Set: AUG-CC-PVTZ
    Blend: AUG-CC-PVTZ
  Basis Set: (AUG-CC-PVTZ AUX)
    Blend: AUG-CC-PVTZ-JKFIT

    Orbital Energies [Eh]
    ---------------------

    Doubly Occupied:

       1A    -20.571367     2A    -11.289713     3A    -11.275674
       4A    -11.222108     5A    -11.212967     6A    -11.211531
       7A    -11.207286     8A     -1.382691     9A     -1.076445
      10A     -1.026114    11A     -0.964232    12A     -0.852179
      13A     -0.843219    14A     -0.745484    15A     -0.681961
      16A     -0.651649    17A     -0.636968    18A     -0.599369
      19A     -0.557210    20A     -0.553754    21A     -0.542592
      22A     -0.518448    23A     -0.511190    24A     -0.506182
      25A     -0.484751    26A     -0.474076    27A     -0.463303
      28A     -0.321690

  @DF-RHF Final Energy:  -309.13363472969979

   => Energetics <=

    Nuclear Repulsion Energy =            302.3056898928115288
    One-Electron Energy =               -1018.1103434642514003
    Two-Electron Energy =                 406.6710188417400786
    Total Energy =                       -309.1336347296997928
  Basis Set: (AUG-CC-PVTZ AUX)
    Blend: AUG-CC-PVTZ-RI
    Molecular point group: c1

    Geometry (in Angstrom), charge = 0, multiplicity = 1:

       Center              X                  Y                   Z               Mass
    ------------   -----------------  -----------------  -----------------  -----------------
         O           -0.809682290430    -0.211660622280    -0.294335933243    15.994914619570
         C            2.012724809570     0.273924277720    -0.529365333243    12.000000000000
         C           -2.127955190430    -0.233791722280     0.361323666757    12.000000000000
         C            1.378287509570    -0.839850722280     0.165423966757    12.000000000000
         C            2.760838809570     1.201831277720     0.429137666757    12.000000000000
         C            0.068584809570    -1.065829722280     0.322880666757    12.000000000000
         C           -3.027433190430     0.683429277720    -0.445758333243    12.000000000000
         H            2.709831809570    -0.099507722280    -1.286379333243     1.007825032230
         H            1.239092809570     0.832479277720    -1.057549333243     1.007825032230
         H           -2.529785190430    -1.261503722280     0.388687666757     1.007825032230
         H           -2.031056190430     0.124646277720     1.399756666757     1.007825032230
         H            2.035174809570    -1.615674722280     0.657121666757     1.007825032230
         H            3.243403809570     2.019005277720    -0.112437333243     1.007825032230
         H            2.071009809570     1.630822277720     1.158418666757     1.007825032230
         H            3.535001809570     0.656812277720     0.975895666757     1.007825032230
         H           -0.352951190430    -1.901763722280     0.883455666757     1.007825032230
         H           -4.030311190430     0.721009277720    -0.010057333243     1.007825032230
         H           -2.617597190430     1.697374277720    -0.462339333243     1.007825032230
         H           -3.102907190430     0.320793277720    -1.478665333243     1.007825032230

  Basis Set: AUG-CC-PVTZ
    Blend: AUG-CC-PVTZ
  Basis Set: (AUG-CC-PVTZ AUX)
    Blend: AUG-CC-PVTZ-JKFIT
	 Reference Energy          =    -309.1336347296997928 [Eh]
	 Singles Energy            =      -0.0000000000000000 [Eh]
	 Same-Spin Energy          =      -0.3147482206311253 [Eh]
	 Opposite-Spin Energy      =      -1.1012066247106871 [Eh]
	 Correlation Energy        =      -1.4159548453418125 [Eh]
	 Total Energy              =    -310.5495895750415798 [Eh]

	 ================> DF-SCS-MP2 Energies <==================
	-----------------------------------------------------------
	 SCS Same-Spin Scale       =       0.3333333333333333 [-]
	 SCS Opposite-Spin Scale   =       1.2000000000000000 [-]
	 SCS Same-Spin Energy      =      -0.1049160735437084 [Eh]
	 SCS Opposite-Spin Energy  =      -1.3214479496528244 [Eh]
	 SCS Correlation Energy    =      -1.4263640231965329 [Eh]
	 SCS Total Energy          =    -310.5599987528963197 [Eh]
	-----------------------------------------------------------

  Dipole Moment: [D]
     X:    -1.2637      Y:    -0.2017      Z:     0.7637     Total:     1.4903

*** Psi4 exiting successfully. Buy a developer a beer!
