                               Psi4 1.3.2 release

  ==> Input File <==

--------------------------------------------------------------------------
#psi4
#
memory 32 gb

molecule  {
0 1
  O       -0.8411900    -0.2286010    -0.2822800
  C        2.0174600     0.2824600    -0.5354820
  C       -2.1464449    -0.1758564     0.3038339
  C        1.3918360    -0.8685520     0.1861030
  C        2.7655740     1.2103670     0.4230210
  C        0.1212089    -1.0371931     0.2671575
  C       -3.0226980     0.6919650    -0.4518750
  H        2.7145670    -0.0909720    -1.2924960
  H        1.2438280     0.8410150    -1.0636660
  H       -2.5250500    -1.2529680     0.3825710
  H       -2.0263210     0.1331820     1.3936400
  H        2.0399100    -1.6071390     0.6510050
  H        3.2481390     2.0275410    -0.1185540
  H        2.0757450     1.6393580     1.1523020
  H        3.5397370     0.6653480     0.9697790
  H       -0.3482160    -1.8932280     0.8773390
  H       -4.0255760     0.7295450    -0.0161740
  H       -2.6128620     1.7059100    -0.4684560
  H       -3.0981720     0.3293290    -1.4847820
units angstrom
no_reorient  #important for SAPT in psi4, default
symmetry c1  #important for SAPT in psi4, default
}

set PROPERTIES_ORIGIN ["COM"]
properties('MP2/aug-cc-pvtz', properties = ['dipole'])
--------------------------------------------------------------------------

    Molecular point group: c1
  Charge       = 0
  Multiplicity = 1
  Basis Set: AUG-CC-PVTZ
    Blend: AUG-CC-PVTZ
  Basis Set: (AUG-CC-PVTZ AUX)
    Blend: AUG-CC-PVTZ-JKFIT

    Orbital Energies [Eh]
    ---------------------

    Doubly Occupied:

       1A    -20.567668     2A    -11.291622     3A    -11.277481
       4A    -11.220194     5A    -11.213964     6A    -11.207308
       7A    -11.205796     8A     -1.388568     9A     -1.086220
      10A     -1.037635    11A     -0.977106    12A     -0.850023
      13A     -0.833944    14A     -0.750747    15A     -0.677212
      16A     -0.649115    17A     -0.647115    18A     -0.598812
      19A     -0.566592    20A     -0.562777    21A     -0.543093
      22A     -0.537440    23A     -0.508171    24A     -0.501268
      25A     -0.477351    26A     -0.463908    27A     -0.450140
      28A     -0.336451

  @DF-RHF Final Energy:  -309.12875194048434

   => Energetics <=

    Nuclear Repulsion Energy =            303.0636372390012525
    One-Electron Energy =               -1019.5293367996000597
    Two-Electron Energy =                 407.3369476201144153
    Total Energy =                       -309.1287519404843351
  Basis Set: (AUG-CC-PVTZ AUX)
    Blend: AUG-CC-PVTZ-RI
    Molecular point group: c1

    Geometry (in Angstrom), charge = 0, multiplicity = 1:

       Center              X                  Y                   Z               Mass
    ------------   -----------------  -----------------  -----------------  -----------------
         O           -0.844147024797    -0.236933642202    -0.270173277166    15.994914619570
         C            2.014502975203     0.274127357798    -0.523375277166    12.000000000000
         C           -2.149401924797    -0.184189042202     0.315940622834    12.000000000000
         C            1.388878975203    -0.876884642202     0.198209722834    12.000000000000
         C            2.762616975203     1.202034357798     0.435127722834    12.000000000000
         C            0.118251875203    -1.045525742202     0.279264222834    12.000000000000
         C           -3.025655024797     0.683632357798    -0.439768277166    12.000000000000
         H            2.711609975203    -0.099304642202    -1.280389277166     1.007825032230
         H            1.240870975203     0.832682357798    -1.051559277166     1.007825032230
         H           -2.528007024797    -1.261300642202     0.394677722834     1.007825032230
         H           -2.029278024797     0.124849357798     1.405746722834     1.007825032230
         H            2.036952975203    -1.615471642202     0.663111722834     1.007825032230
         H            3.245181975203     2.019208357798    -0.106447277166     1.007825032230
         H            2.072787975203     1.631025357798     1.164408722834     1.007825032230
         H            3.536779975203     0.657015357798     0.981885722834     1.007825032230
         H           -0.351173024797    -1.901560642202     0.889445722834     1.007825032230
         H           -4.028533024797     0.721212357798    -0.004067277166     1.007825032230
         H           -2.615819024797     1.697577357798    -0.456349277166     1.007825032230
         H           -3.101129024797     0.320996357798    -1.472675277166     1.007825032230

  Basis Set: AUG-CC-PVTZ
    Blend: AUG-CC-PVTZ
  Basis Set: (AUG-CC-PVTZ AUX)
    Blend: AUG-CC-PVTZ-JKFIT
	 Reference Energy          =    -309.1287519404843351 [Eh]
	 Singles Energy            =      -0.0000000000000000 [Eh]
	 Same-Spin Energy          =      -0.3139920290409998 [Eh]
	 Opposite-Spin Energy      =      -1.0983255889930243 [Eh]
	 Correlation Energy        =      -1.4123176180340242 [Eh]
	 Total Energy              =    -310.5410695585183589 [Eh]

	 ================> DF-SCS-MP2 Energies <==================
	-----------------------------------------------------------
	 SCS Same-Spin Scale       =       0.3333333333333333 [-]
	 SCS Opposite-Spin Scale   =       1.2000000000000000 [-]
	 SCS Same-Spin Energy      =      -0.1046640096803333 [Eh]
	 SCS Opposite-Spin Energy  =      -1.3179907067916292 [Eh]
	 SCS Correlation Energy    =      -1.4226547164719625 [Eh]
	 SCS Total Energy          =    -310.5514066569563170 [Eh]
	-----------------------------------------------------------

  Dipole Moment: [D]
     X:    -1.0861      Y:    -0.0485      Z:     0.6435     Total:     1.2634

*** Psi4 exiting successfully. Buy a developer a beer!
