                               Psi4 1.3.2 release

  ==> Input File <==

--------------------------------------------------------------------------
#psi4
#
memory 32 gb

molecule  {
0 1
  O       -0.8411900    -0.2286010    -0.2822800
  C        2.0174600     0.2824600    -0.5354820
  C       -2.1232200    -0.2252560     0.3552070
  C        1.3918360    -0.8685520     0.1861030
  C        2.7655740     1.2103670     0.4230210
  C        0.0733200    -1.0572940     0.3167640
  C       -3.0226980     0.6919650    -0.4518750
  H        2.7145670    -0.0909720    -1.2924960
  H        1.2438280     0.8410150    -1.0636660
  H       -2.5250500    -1.2529680     0.3825710
  H       -2.0263210     0.1331820     1.3936400
  H        2.0399100    -1.6071390     0.6510050
  H        3.2481390     2.0275410    -0.1185540
  H        2.0757450     1.6393580     1.1523020
  H        3.5397370     0.6653480     0.9697790
  H       -0.2709552    -1.7400146     0.7745945
  H       -4.0255760     0.7295450    -0.0161740
  H       -2.6128620     1.7059100    -0.4684560
  H       -3.0981720     0.3293290    -1.4847820
units angstrom
no_reorient  #important for SAPT in psi4, default
symmetry c1  #important for SAPT in psi4, default
}

set PROPERTIES_ORIGIN ["COM"]
properties('MP2/aug-cc-pvtz', properties = ['dipole'])
--------------------------------------------------------------------------

    Molecular point group: c1
  Charge       = 0
  Multiplicity = 1
  Basis Set: AUG-CC-PVTZ
    Blend: AUG-CC-PVTZ
  Basis Set: (AUG-CC-PVTZ AUX)
    Blend: AUG-CC-PVTZ-JKFIT

    Orbital Energies [Eh]
    ---------------------

    Doubly Occupied:

       1A    -20.568977     2A    -11.285949     3A    -11.254335
       4A    -11.220837     5A    -11.213879     6A    -11.212648
       7A    -11.207111     8A     -1.392027     9A     -1.076874
      10A     -1.025337    11A     -0.974013    12A     -0.862013
      13A     -0.846645    14A     -0.768403    15A     -0.702823
      16A     -0.658652    17A     -0.641674    18A     -0.597339
      19A     -0.562079    20A     -0.560209    21A     -0.543854
      22A     -0.526920    23A     -0.510657    24A     -0.500973
      25A     -0.481273    26A     -0.472769    27A     -0.465363
      28A     -0.325012

  @DF-RHF Final Energy:  -309.10751872608279

   => Energetics <=

    Nuclear Repulsion Energy =            303.2458249817247520
    One-Electron Energy =               -1019.7893873686787174
    Two-Electron Energy =                 407.4360436608711211
    Total Energy =                       -309.1075187260827875
  Basis Set: (AUG-CC-PVTZ AUX)
    Blend: AUG-CC-PVTZ-RI
    Molecular point group: c1

    Geometry (in Angstrom), charge = 0, multiplicity = 1:

       Center              X                  Y                   Z               Mass
    ------------   -----------------  -----------------  -----------------  -----------------
         O           -0.841967933839    -0.230143735656    -0.281245510571    15.994914619570
         C            2.016682066161     0.280917264344    -0.534447510571    12.000000000000
         C           -2.123997933839    -0.226798735656     0.356241489429    12.000000000000
         C            1.391058066161    -0.870094735656     0.187137489429    12.000000000000
         C            2.764796066161     1.208824264344     0.424055489429    12.000000000000
         C            0.072542066161    -1.058836735656     0.317798489429    12.000000000000
         C           -3.023475933839     0.690422264344    -0.450840510571    12.000000000000
         H            2.713789066161    -0.092514735656    -1.291461510571     1.007825032230
         H            1.243050066161     0.839472264344    -1.062631510571     1.007825032230
         H           -2.525827933839    -1.254510735656     0.383605489429     1.007825032230
         H           -2.027098933839     0.131639264344     1.394674489429     1.007825032230
         H            2.039132066161    -1.608681735656     0.652039489429     1.007825032230
         H            3.247361066161     2.025998264344    -0.117519510571     1.007825032230
         H            2.074967066161     1.637815264344     1.153336489429     1.007825032230
         H            3.538959066161     0.663805264344     0.970813489429     1.007825032230
         H           -0.271733133839    -1.741557335656     0.775628989429     1.007825032230
         H           -4.026353933839     0.728002264344    -0.015139510571     1.007825032230
         H           -2.613639933839     1.704367264344    -0.467421510571     1.007825032230
         H           -3.098949933839     0.327786264344    -1.483747510571     1.007825032230

  Basis Set: AUG-CC-PVTZ
    Blend: AUG-CC-PVTZ
  Basis Set: (AUG-CC-PVTZ AUX)
    Blend: AUG-CC-PVTZ-JKFIT
	 Reference Energy          =    -309.1075187260827875 [Eh]
	 Singles Energy            =      -0.0000000000000000 [Eh]
	 Same-Spin Energy          =      -0.3133959437749770 [Eh]
	 Opposite-Spin Energy      =      -1.0983905425639116 [Eh]
	 Correlation Energy        =      -1.4117864863388885 [Eh]
	 Total Energy              =    -310.5193052124216706 [Eh]

	 ================> DF-SCS-MP2 Energies <==================
	-----------------------------------------------------------
	 SCS Same-Spin Scale       =       0.3333333333333333 [-]
	 SCS Opposite-Spin Scale   =       1.2000000000000000 [-]
	 SCS Same-Spin Energy      =      -0.1044653145916590 [Eh]
	 SCS Opposite-Spin Energy  =      -1.3180686510766939 [Eh]
	 SCS Correlation Energy    =      -1.4225339656683529 [Eh]
	 SCS Total Energy          =    -310.5300526917511661 [Eh]
	-----------------------------------------------------------

  Dipole Moment: [D]
     X:    -1.0937      Y:    -0.2547      Z:     0.7550     Total:     1.3531

*** Psi4 exiting successfully. Buy a developer a beer!
