                               Psi4 1.3.2 release

  ==> Input File <==

--------------------------------------------------------------------------
#psi4
#
memory 32 gb

molecule  {
0 1
  O       -0.8232165    -0.2152967    -0.2908355
  C        2.0174600     0.2824600    -0.5354820
  C       -2.1232200    -0.2252560     0.3552070
  C        1.3918360    -0.8685520     0.1861030
  C        2.7655740     1.2103670     0.4230210
  C        0.0733200    -1.0572940     0.3167640
  C       -3.0226980     0.6919650    -0.4518750
  H        2.7145670    -0.0909720    -1.2924960
  H        1.2438280     0.8410150    -1.0636660
  H       -2.5250500    -1.2529680     0.3825710
  H       -2.0263210     0.1331820     1.3936400
  H        2.0399100    -1.6071390     0.6510050
  H        3.2481390     2.0275410    -0.1185540
  H        2.0757450     1.6393580     1.1523020
  H        3.5397370     0.6653480     0.9697790
  H       -0.3305935    -1.8989002     0.8818088
  H       -4.0255760     0.7295450    -0.0161740
  H       -2.6128620     1.7059100    -0.4684560
  H       -3.0981720     0.3293290    -1.4847820
units angstrom
no_reorient  #important for SAPT in psi4, default
symmetry c1  #important for SAPT in psi4, default
}

set PROPERTIES_ORIGIN ["COM"]
properties('MP2/aug-cc-pvtz', properties = ['dipole'])
--------------------------------------------------------------------------

    Molecular point group: c1
  Charge       = 0
  Multiplicity = 1
  Basis Set: AUG-CC-PVTZ
    Blend: AUG-CC-PVTZ
  Basis Set: (AUG-CC-PVTZ AUX)
    Blend: AUG-CC-PVTZ-JKFIT

    Orbital Energies [Eh]
    ---------------------

    Doubly Occupied:

       1A    -20.573286     2A    -11.288417     3A    -11.276846
       4A    -11.221818     5A    -11.213697     6A    -11.211775
       7A    -11.206769     8A     -1.388378     9A     -1.073289
      10A     -1.024995    11A     -0.966327    12A     -0.849763
      13A     -0.842119    14A     -0.751420    15A     -0.682475
      16A     -0.653505    17A     -0.640396    18A     -0.596374
      19A     -0.560582    20A     -0.555984    21A     -0.542692
      22A     -0.524432    23A     -0.508930    24A     -0.504053
      25A     -0.478392    26A     -0.474680    27A     -0.464781
      28A     -0.324432

  @DF-RHF Final Energy:  -309.13948563694885

   => Energetics <=

    Nuclear Repulsion Energy =            301.9484329030219101
    One-Electron Energy =               -1017.3746232053340464
    Two-Electron Energy =                 406.2867046653632315
    Total Energy =                       -309.1394856369488480
  Basis Set: (AUG-CC-PVTZ AUX)
    Blend: AUG-CC-PVTZ-RI
    Molecular point group: c1

    Geometry (in Angstrom), charge = 0, multiplicity = 1:

       Center              X                  Y                   Z               Mass
    ------------   -----------------  -----------------  -----------------  -----------------
         O           -0.826266212422    -0.217365690839    -0.289513353687    15.994914619570
         C            2.014410287578     0.280391009161    -0.534159853687    12.000000000000
         C           -2.126269712422    -0.227324990839     0.356529146313    12.000000000000
         C            1.388786287578    -0.870620990839     0.187425146313    12.000000000000
         C            2.762524287578     1.208298009161     0.424343146313    12.000000000000
         C            0.070270287578    -1.059362990839     0.318086146313    12.000000000000
         C           -3.025747712422     0.689896009161    -0.450552853687    12.000000000000
         H            2.711517287578    -0.093040990839    -1.291173853687     1.007825032230
         H            1.240778287578     0.838946009161    -1.062343853687     1.007825032230
         H           -2.528099712422    -1.255036990839     0.383893146313     1.007825032230
         H           -2.029370712422     0.131113009161     1.394962146313     1.007825032230
         H            2.036860287578    -1.609207990839     0.652327146313     1.007825032230
         H            3.245089287578     2.025472009161    -0.117231853687     1.007825032230
         H            2.072695287578     1.637289009161     1.153624146313     1.007825032230
         H            3.536687287578     0.663279009161     0.971101146313     1.007825032230
         H           -0.333643212422    -1.900969190839     0.883130946313     1.007825032230
         H           -4.028625712422     0.727476009161    -0.014851853687     1.007825032230
         H           -2.615911712422     1.703841009161    -0.467133853687     1.007825032230
         H           -3.101221712422     0.327260009161    -1.483459853687     1.007825032230

  Basis Set: AUG-CC-PVTZ
    Blend: AUG-CC-PVTZ
  Basis Set: (AUG-CC-PVTZ AUX)
    Blend: AUG-CC-PVTZ-JKFIT
	 Reference Energy          =    -309.1394856369488480 [Eh]
	 Singles Energy            =      -0.0000000000000000 [Eh]
	 Same-Spin Energy          =      -0.3140037752629904 [Eh]
	 Opposite-Spin Energy      =      -1.0998548996468445 [Eh]
	 Correlation Energy        =      -1.4138586749098350 [Eh]
	 Total Energy              =    -310.5533443118586661 [Eh]

	 ================> DF-SCS-MP2 Energies <==================
	-----------------------------------------------------------
	 SCS Same-Spin Scale       =       0.3333333333333333 [-]
	 SCS Opposite-Spin Scale   =       1.2000000000000000 [-]
	 SCS Same-Spin Energy      =      -0.1046679250876635 [Eh]
	 SCS Opposite-Spin Energy  =      -1.3198258795762132 [Eh]
	 SCS Correlation Energy    =      -1.4244938046638767 [Eh]
	 SCS Total Energy          =    -310.5639794416127302 [Eh]
	-----------------------------------------------------------

  Dipole Moment: [D]
     X:    -1.1970      Y:    -0.2107      Z:     0.7518     Total:     1.4292

*** Psi4 exiting successfully. Buy a developer a beer!
