                               Psi4 1.3.2 release

  ==> Input File <==

--------------------------------------------------------------------------
#psi4
#
memory 32 gb

molecule  {
0 1
  O       -0.8411900    -0.2286010    -0.2822800
  C        2.0174600     0.2824600    -0.5354820
  C       -2.1232200    -0.2252560     0.3552070
  C        1.3918360    -0.8685520     0.1861030
  C        2.7655740     1.2103670     0.4230210
  C       -0.1237161    -1.0854992     0.3362897
  C       -3.0226980     0.6919650    -0.4518750
  H        2.7145670    -0.0909720    -1.2924960
  H        1.2438280     0.8410150    -1.0636660
  H       -2.5250500    -1.2529680     0.3825710
  H       -2.0263210     0.1331820     1.3936400
  H        2.0399100    -1.6071390     0.6510050
  H        3.2481390     2.0275410    -0.1185540
  H        2.0757450     1.6393580     1.1523020
  H        3.5397370     0.6653480     0.9697790
  H       -0.3482160    -1.8932280     0.8773390
  H       -4.0255760     0.7295450    -0.0161740
  H       -2.6128620     1.7059100    -0.4684560
  H       -3.0981720     0.3293290    -1.4847820
units angstrom
no_reorient  #important for SAPT in psi4, default
symmetry c1  #important for SAPT in psi4, default
}

set PROPERTIES_ORIGIN ["COM"]
properties('MP2/aug-cc-pvtz', properties = ['dipole'])
--------------------------------------------------------------------------

    Molecular point group: c1
  Charge       = 0
  Multiplicity = 1
  Basis Set: AUG-CC-PVTZ
    Blend: AUG-CC-PVTZ
  Basis Set: (AUG-CC-PVTZ AUX)
    Blend: AUG-CC-PVTZ-JKFIT

    Orbital Energies [Eh]
    ---------------------

    Doubly Occupied:

       1A    -20.595625     2A    -11.296563     3A    -11.293925
       4A    -11.227666     5A    -11.225252     6A    -11.211033
       7A    -11.203312     8A     -1.451802     9A     -1.058688
      10A     -1.033125    11A     -0.939139    12A     -0.862262
      13A     -0.855116    14A     -0.758906    15A     -0.713412
      16A     -0.678816    17A     -0.644356    18A     -0.599266
      19A     -0.569208    20A     -0.558389    21A     -0.556686
      22A     -0.520141    23A     -0.517063    24A     -0.502097
      25A     -0.484654    26A     -0.470836    27A     -0.458195
      28A     -0.276615

  @DF-RHF Final Energy:  -309.07971107354706

   => Energetics <=

    Nuclear Repulsion Energy =            301.9662902628087409
    One-Electron Energy =               -1016.9677088713926878
    Two-Electron Energy =                 405.9217075350368304
    Total Energy =                       -309.0797110735470596
  Basis Set: (AUG-CC-PVTZ AUX)
    Blend: AUG-CC-PVTZ-RI
    Molecular point group: c1

    Geometry (in Angstrom), charge = 0, multiplicity = 1:

       Center              X                  Y                   Z               Mass
    ------------   -----------------  -----------------  -----------------  -----------------
         O           -0.817566620185    -0.225219362241    -0.284621081348    15.994914619570
         C            2.041083379815     0.285841637759    -0.537823081348    12.000000000000
         C           -2.099596620185    -0.221874362241     0.352865918652    12.000000000000
         C            1.415459379815    -0.865170362241     0.183761918652    12.000000000000
         C            2.789197379815     1.213748637759     0.420679918652    12.000000000000
         C           -0.100092720185    -1.082117562241     0.333948618652    12.000000000000
         C           -2.999074620185     0.695346637759    -0.454216081348    12.000000000000
         H            2.738190379815    -0.087590362241    -1.294837081348     1.007825032230
         H            1.267451379815     0.844396637759    -1.066007081348     1.007825032230
         H           -2.501426620185    -1.249586362241     0.380229918652     1.007825032230
         H           -2.002697620185     0.136563637759     1.391298918652     1.007825032230
         H            2.063533379815    -1.603757362241     0.648663918652     1.007825032230
         H            3.271762379815     2.030922637759    -0.120895081348     1.007825032230
         H            2.099368379815     1.642739637759     1.149960918652     1.007825032230
         H            3.563360379815     0.668729637759     0.967437918652     1.007825032230
         H           -0.324592620185    -1.889846362241     0.874997918652     1.007825032230
         H           -4.001952620185     0.732926637759    -0.018515081348     1.007825032230
         H           -2.589238620185     1.709291637759    -0.470797081348     1.007825032230
         H           -3.074548620185     0.332710637759    -1.487123081348     1.007825032230

  Basis Set: AUG-CC-PVTZ
    Blend: AUG-CC-PVTZ
  Basis Set: (AUG-CC-PVTZ AUX)
    Blend: AUG-CC-PVTZ-JKFIT
	 Reference Energy          =    -309.0797110735470596 [Eh]
	 Singles Energy            =      -0.0000000000000000 [Eh]
	 Same-Spin Energy          =      -0.3178312441343713 [Eh]
	 Opposite-Spin Energy      =      -1.1071756962799055 [Eh]
	 Correlation Energy        =      -1.4250069404142769 [Eh]
	 Total Energy              =    -310.5047180139613374 [Eh]

	 ================> DF-SCS-MP2 Energies <==================
	-----------------------------------------------------------
	 SCS Same-Spin Scale       =       0.3333333333333333 [-]
	 SCS Opposite-Spin Scale   =       1.2000000000000000 [-]
	 SCS Same-Spin Energy      =      -0.1059437480447904 [Eh]
	 SCS Opposite-Spin Energy  =      -1.3286108355358865 [Eh]
	 SCS Correlation Energy    =      -1.4345545835806770 [Eh]
	 SCS Total Energy          =    -310.5142656571277371 [Eh]
	-----------------------------------------------------------

  Dipole Moment: [D]
     X:    -1.9133      Y:    -0.0226      Z:     0.5750     Total:     1.9980

*** Psi4 exiting successfully. Buy a developer a beer!
