                               Psi4 1.3.2 release

  ==> Input File <==

--------------------------------------------------------------------------
#psi4
#
memory 32 gb

molecule  {
0 1
  O       -0.8430886    -0.2533116    -0.2854788
  C        2.0174600     0.2824600    -0.5354820
  C       -2.1232200    -0.2252560     0.3552070
  C        1.3918360    -0.8685520     0.1861030
  C        2.7655740     1.2103670     0.4230210
  C        0.0733200    -1.0572940     0.3167640
  C       -3.0226980     0.6919650    -0.4518750
  H        2.7145670    -0.0909720    -1.2924960
  H        1.2438280     0.8410150    -1.0636660
  H       -2.5091748    -1.2592325     0.3736339
  H       -2.0263210     0.1331820     1.3936400
  H        2.0399100    -1.6071390     0.6510050
  H        3.2481390     2.0275410    -0.1185540
  H        2.0757450     1.6393580     1.1523020
  H        3.5397370     0.6653480     0.9697790
  H       -0.3482160    -1.8932280     0.8773390
  H       -4.0255760     0.7295450    -0.0161740
  H       -2.6128620     1.7059100    -0.4684560
  H       -3.0981720     0.3293290    -1.4847820
units angstrom
no_reorient  #important for SAPT in psi4, default
symmetry c1  #important for SAPT in psi4, default
}

set PROPERTIES_ORIGIN ["COM"]
properties('MP2/aug-cc-pvtz', properties = ['dipole'])
--------------------------------------------------------------------------

    Molecular point group: c1
  Charge       = 0
  Multiplicity = 1
  Basis Set: AUG-CC-PVTZ
    Blend: AUG-CC-PVTZ
  Basis Set: (AUG-CC-PVTZ AUX)
    Blend: AUG-CC-PVTZ-JKFIT

    Orbital Energies [Eh]
    ---------------------

    Doubly Occupied:

       1A    -20.571798     2A    -11.287455     3A    -11.277395
       4A    -11.222250     5A    -11.214323     6A    -11.212150
       7A    -11.207060     8A     -1.397348     9A     -1.074483
      10A     -1.026207    11A     -0.966314    12A     -0.852846
      13A     -0.841317    14A     -0.755370    15A     -0.685408
      16A     -0.654307    17A     -0.643384    18A     -0.598086
      19A     -0.561083    20A     -0.558041    21A     -0.542909
      22A     -0.528892    23A     -0.509489    24A     -0.501757
      25A     -0.478550    26A     -0.473951    27A     -0.462648
      28A     -0.324284

  @DF-RHF Final Energy:  -309.14123664762781

   => Energetics <=

    Nuclear Repulsion Energy =            302.2605818015683781
    One-Electron Energy =               -1017.9454317443023683
    Two-Electron Energy =                 406.5436132951061836
    Total Energy =                       -309.1412366476278066
  Basis Set: (AUG-CC-PVTZ AUX)
    Blend: AUG-CC-PVTZ-RI
    Molecular point group: c1

    Geometry (in Angstrom), charge = 0, multiplicity = 1:

       Center              X                  Y                   Z               Mass
    ------------   -----------------  -----------------  -----------------  -----------------
         O           -0.842945013396    -0.249299571551    -0.284877694791    15.994914619570
         C            2.017603586604     0.286472028449    -0.534880894791    12.000000000000
         C           -2.123076413396    -0.221243971551     0.355808105209    12.000000000000
         C            1.391979586604    -0.864539971551     0.186704105209    12.000000000000
         C            2.765717586604     1.214379028449     0.423622105209    12.000000000000
         C            0.073463586604    -1.053281971551     0.317365105209    12.000000000000
         C           -3.022554413396     0.695977028449    -0.451273894791    12.000000000000
         H            2.714710586604    -0.086959971551    -1.291894894791     1.007825032230
         H            1.243971586604     0.845027028449    -1.063064894791     1.007825032230
         H           -2.509031213396    -1.255220471551     0.374235005209     1.007825032230
         H           -2.026177413396     0.137194028449     1.394241105209     1.007825032230
         H            2.040053586604    -1.603126971551     0.651606105209     1.007825032230
         H            3.248282586604     2.031553028449    -0.117952894791     1.007825032230
         H            2.075888586604     1.643370028449     1.152903105209     1.007825032230
         H            3.539880586604     0.669360028449     0.970380105209     1.007825032230
         H           -0.348072413396    -1.889215971551     0.877940105209     1.007825032230
         H           -4.025432413396     0.733557028449    -0.015572894791     1.007825032230
         H           -2.612718413396     1.709922028449    -0.467854894791     1.007825032230
         H           -3.098028413396     0.333341028449    -1.484180894791     1.007825032230

  Basis Set: AUG-CC-PVTZ
    Blend: AUG-CC-PVTZ
  Basis Set: (AUG-CC-PVTZ AUX)
    Blend: AUG-CC-PVTZ-JKFIT
	 Reference Energy          =    -309.1412366476278066 [Eh]
	 Singles Energy            =      -0.0000000000000000 [Eh]
	 Same-Spin Energy          =      -0.3137589848794491 [Eh]
	 Opposite-Spin Energy      =      -1.0988230353556403 [Eh]
	 Correlation Energy        =      -1.4125820202350894 [Eh]
	 Total Energy              =    -310.5538186678629131 [Eh]

	 ================> DF-SCS-MP2 Energies <==================
	-----------------------------------------------------------
	 SCS Same-Spin Scale       =       0.3333333333333333 [-]
	 SCS Opposite-Spin Scale   =       1.2000000000000000 [-]
	 SCS Same-Spin Energy      =      -0.1045863282931497 [Eh]
	 SCS Opposite-Spin Energy  =      -1.3185876424267684 [Eh]
	 SCS Correlation Energy    =      -1.4231739707199180 [Eh]
	 SCS Total Energy          =    -310.5644106183477220 [Eh]
	-----------------------------------------------------------

  Dipole Moment: [D]
     X:    -1.1620      Y:    -0.1303      Z:     0.7121     Total:     1.3691

*** Psi4 exiting successfully. Buy a developer a beer!
