                               Psi4 1.3.2 release

  ==> Input File <==

--------------------------------------------------------------------------
#psi4
#
memory 32 gb

molecule  {
0 1
  O       -0.8411900    -0.2286010    -0.2822800
  C        2.0174600     0.2824600    -0.5354820
  C       -2.1232200    -0.2252560     0.3552070
  C        1.4013319    -0.8593165     0.2085957
  C        2.7586314     1.1945537     0.4433765
  C        0.0733200    -1.0572940     0.3167640
  C       -3.0226980     0.6919650    -0.4518750
  H        2.7145670    -0.0909720    -1.2924960
  H        1.2438280     0.8410150    -1.0636660
  H       -2.5250500    -1.2529680     0.3825710
  H       -2.0263210     0.1331820     1.3936400
  H        2.0399100    -1.6071390     0.6510050
  H        3.2481390     2.0275410    -0.1185540
  H        2.0757450     1.6393580     1.1523020
  H        3.5397370     0.6653480     0.9697790
  H       -0.3482160    -1.8932280     0.8773390
  H       -4.0255760     0.7295450    -0.0161740
  H       -2.6128620     1.7059100    -0.4684560
  H       -3.0981720     0.3293290    -1.4847820
units angstrom
no_reorient  #important for SAPT in psi4, default
symmetry c1  #important for SAPT in psi4, default
}

set PROPERTIES_ORIGIN ["COM"]
properties('MP2/aug-cc-pvtz', properties = ['dipole'])
--------------------------------------------------------------------------

    Molecular point group: c1
  Charge       = 0
  Multiplicity = 1
  Basis Set: AUG-CC-PVTZ
    Blend: AUG-CC-PVTZ
  Basis Set: (AUG-CC-PVTZ AUX)
    Blend: AUG-CC-PVTZ-JKFIT

    Orbital Energies [Eh]
    ---------------------

    Doubly Occupied:

       1A    -20.572765     2A    -11.286556     3A    -11.279149
       4A    -11.221200     5A    -11.214873     6A    -11.213565
       7A    -11.207003     8A     -1.393368     9A     -1.074335
      10A     -1.025295    11A     -0.965160    12A     -0.851078
      13A     -0.841217    14A     -0.755979    15A     -0.683554
      16A     -0.654557    17A     -0.642721    18A     -0.598200
      19A     -0.563119    20A     -0.555577    21A     -0.540891
      22A     -0.528001    23A     -0.510928    24A     -0.500803
      25A     -0.478560    26A     -0.474936    27A     -0.462644
      28A     -0.323740

  @DF-RHF Final Energy:  -309.13925055759580

   => Energetics <=

    Nuclear Repulsion Energy =            302.1403461545837104
    One-Electron Energy =               -1017.7196454404348742
    Two-Electron Energy =                 406.4400487282554195
    Total Energy =                       -309.1392505575958012
  Basis Set: (AUG-CC-PVTZ AUX)
    Blend: AUG-CC-PVTZ-RI
    Molecular point group: c1

    Geometry (in Angstrom), charge = 0, multiplicity = 1:

       Center              X                  Y                   Z               Mass
    ------------   -----------------  -----------------  -----------------  -----------------
         O           -0.841496095220    -0.227812347281    -0.287417297888    15.994914619570
         C            2.017153904780     0.283248652719    -0.540619297888    12.000000000000
         C           -2.123526095220    -0.224467347281     0.350069702112    12.000000000000
         C            1.401025804780    -0.858527847281     0.203458402112    12.000000000000
         C            2.758325304780     1.195342352719     0.438239202112    12.000000000000
         C            0.073013904780    -1.056505347281     0.311626702112    12.000000000000
         C           -3.023004095220     0.692753652719    -0.457012297888    12.000000000000
         H            2.714260904780    -0.090183347281    -1.297633297888     1.007825032230
         H            1.243521904780     0.841803652719    -1.068803297888     1.007825032230
         H           -2.525356095220    -1.252179347281     0.377433702112     1.007825032230
         H           -2.026627095220     0.133970652719     1.388502702112     1.007825032230
         H            2.039603904780    -1.606350347281     0.645867702112     1.007825032230
         H            3.247832904780     2.028329652719    -0.123691297888     1.007825032230
         H            2.075438904780     1.640146652719     1.147164702112     1.007825032230
         H            3.539430904780     0.666136652719     0.964641702112     1.007825032230
         H           -0.348522095220    -1.892439347281     0.872201702112     1.007825032230
         H           -4.025882095220     0.730333652719    -0.021311297888     1.007825032230
         H           -2.613168095220     1.706698652719    -0.473593297888     1.007825032230
         H           -3.098478095220     0.330117652719    -1.489919297888     1.007825032230

  Basis Set: AUG-CC-PVTZ
    Blend: AUG-CC-PVTZ
  Basis Set: (AUG-CC-PVTZ AUX)
    Blend: AUG-CC-PVTZ-JKFIT
	 Reference Energy          =    -309.1392505575958012 [Eh]
	 Singles Energy            =      -0.0000000000000000 [Eh]
	 Same-Spin Energy          =      -0.3139756747510314 [Eh]
	 Opposite-Spin Energy      =      -1.0995436686077908 [Eh]
	 Correlation Energy        =      -1.4135193433588222 [Eh]
	 Total Energy              =    -310.5527699009546154 [Eh]

	 ================> DF-SCS-MP2 Energies <==================
	-----------------------------------------------------------
	 SCS Same-Spin Scale       =       0.3333333333333333 [-]
	 SCS Opposite-Spin Scale   =       1.2000000000000000 [-]
	 SCS Same-Spin Energy      =      -0.1046585582503438 [Eh]
	 SCS Opposite-Spin Energy  =      -1.3194524023293490 [Eh]
	 SCS Correlation Energy    =      -1.4241109605796929 [Eh]
	 SCS Total Energy          =    -310.5633615181754976 [Eh]
	-----------------------------------------------------------

  Dipole Moment: [D]
     X:    -1.1086      Y:    -0.2164      Z:     0.7020     Total:     1.3299

*** Psi4 exiting successfully. Buy a developer a beer!
