                               Psi4 1.4a3.dev225

  ==> Input File <==

--------------------------------------------------------------------------
#psi4
#
memory 32 gb

molecule  {
0 1
  O        0.9059480     0.1295110    -0.3069180
  C       -1.9753050    -0.3336000    -0.5537270
  C        2.1190110     0.1892690     0.4520280
  C       -1.3096656     0.9600370    -0.1188835
  C       -2.9908880    -0.8293550     0.4787900
  C        0.0027760     1.1130440     0.0171530
  C        3.0576820    -0.8509900    -0.1177330
  H       -2.4824890    -0.1840060    -1.5158280
  H       -1.2045440    -1.0918590    -0.7184600
  H        2.5525890     1.1965710     0.3749050
  H        1.9047370    -0.0062780     1.5110790
  H       -1.9523440     1.7996160     0.0958850
  H       -3.4787570    -1.7495600     0.1429400
  H       -2.4987140    -1.0317260     1.4340660
  H       -3.7695180    -0.0804100     0.6542360
  H        0.4396010     2.0570360     0.3475940
  H        4.0048870    -0.8497230     0.4289840
  H        2.6101410    -1.8440700    -0.0412770
  H        3.2577670    -0.6398860    -1.1701900
units angstrom
no_reorient  #important for SAPT in psi4, default
symmetry c1  #important for SAPT in psi4, default
}

set PROPERTIES_ORIGIN ["COM"]
properties('MP2/aug-cc-pvtz', properties = ['dipole'])
--------------------------------------------------------------------------

    Molecular point group: c1
  Charge       = 0
  Multiplicity = 1
  Basis Set: AUG-CC-PVTZ
    Blend: AUG-CC-PVTZ
  Basis Set: (AUG-CC-PVTZ AUX)
    Blend: AUG-CC-PVTZ-JKFIT

    Orbital Energies [Eh]
    ---------------------

    Doubly Occupied:

       1A    -20.571976     2A    -11.284412     3A    -11.276873
       4A    -11.219547     5A    -11.217155     6A    -11.213579
       7A    -11.208734     8A     -1.391975     9A     -1.073057
      10A     -1.025178    11A     -0.969442    12A     -0.850089
      13A     -0.840861    14A     -0.755519    15A     -0.685315
      16A     -0.652940    17A     -0.640899    18A     -0.597970
      19A     -0.564236    20A     -0.559310    21A     -0.540479
      22A     -0.527062    23A     -0.507292    24A     -0.501825
      25A     -0.479094    26A     -0.473656    27A     -0.459842
      28A     -0.330358

  @DF-RHF Final Energy:  -309.14143410776853

   => Energetics <=

    Nuclear Repulsion Energy =            301.1288530883520593
    One-Electron Energy =               -1015.7032232789645150
    Two-Electron Energy =                 405.4329360828438666
    Total Energy =                       -309.1414341077685322
  Basis Set: (AUG-CC-PVTZ AUX)
    Blend: AUG-CC-PVTZ-RI
    Molecular point group: c1

    Geometry (in Angstrom), charge = 0, multiplicity = 1:

       Center              X                  Y                   Z               Mass
    ------------   -----------------  -----------------  -----------------  -----------------
         O            0.898830157207     0.103443030261    -0.292315150802    15.994914619570
         C           -1.982422842793    -0.359667969739    -0.539124150802    12.000000000000
         C            2.111893157207     0.163201030261     0.466630849198    12.000000000000
         C           -1.316783442793     0.933969030261    -0.104280650802    12.000000000000
         C           -2.998005842793    -0.855422969739     0.493392849198    12.000000000000
         C           -0.004341842793     1.086976030261     0.031755849198    12.000000000000
         C            3.050564157207    -0.877057969739    -0.103130150802    12.000000000000
         H           -2.489606842793    -0.210073969739    -1.501225150802     1.007825032230
         H           -1.211661842793    -1.117926969739    -0.703857150802     1.007825032230
         H            2.545471157207     1.170503030261     0.389507849198     1.007825032230
         H            1.897619157207    -0.032345969739     1.525681849198     1.007825032230
         H           -1.959461842793     1.773548030261     0.110487849198     1.007825032230
         H           -3.485874842793    -1.775627969739     0.157542849198     1.007825032230
         H           -2.505831842793    -1.057793969739     1.448668849198     1.007825032230
         H           -3.776635842793    -0.106477969739     0.668838849198     1.007825032230
         H            0.432483157207     2.030968030261     0.362196849198     1.007825032230
         H            3.997769157207    -0.875790969739     0.443586849198     1.007825032230
         H            2.603023157207    -1.870137969739    -0.026674150802     1.007825032230
         H            3.250649157207    -0.665953969739    -1.155587150802     1.007825032230

  Basis Set: AUG-CC-PVTZ
    Blend: AUG-CC-PVTZ
  Basis Set: (AUG-CC-PVTZ AUX)
    Blend: AUG-CC-PVTZ-JKFIT
	 Reference Energy          =    -309.1414341077685322 [Eh]
	 Singles Energy            =      -0.0000000000000000 [Eh]
	 Same-Spin Energy          =      -0.3134339334490588 [Eh]
	 Opposite-Spin Energy      =      -1.0986354500165283 [Eh]
	 Correlation Energy        =      -1.4120693834655871 [Eh]
	 Total Energy              =    -310.5535034912340961 [Eh]

	 ================> DF-SCS-MP2 Energies <==================
	-----------------------------------------------------------
	 SCS Same-Spin Scale       =       0.3333333333333333 [-]
	 SCS Opposite-Spin Scale   =       1.2000000000000000 [-]
	 SCS Same-Spin Energy      =      -0.1044779778163529 [Eh]
	 SCS Opposite-Spin Energy  =      -1.3183625400198340 [Eh]
	 SCS Correlation Energy    =      -1.4228405178361869 [Eh]
	 SCS Total Energy          =    -310.5642746256046962 [Eh]
	-----------------------------------------------------------

  Dipole Moment: [D]
     X:     1.0127      Y:     0.2993      Z:     0.7669     Total:     1.3051

*** Psi4 exiting successfully. Buy a developer a beer!
