                               Psi4 1.3.2 release

  ==> Input File <==

--------------------------------------------------------------------------
#psi4
#
memory 32 gb

molecule  {
0 1
  O       -0.8411900    -0.2286010    -0.2822800
  C        2.0174600     0.2824600    -0.5354820
  C       -2.1232200    -0.2252560     0.3552070
  C        1.3918360    -0.8685520     0.1861030
  C        2.7200356     1.2178067     0.4498748
  C        0.0733200    -1.0572940     0.3167640
  C       -3.0226980     0.6919650    -0.4518750
  H        2.6858837    -0.1107501    -1.3081886
  H        1.2438280     0.8410150    -1.0636660
  H       -2.5250500    -1.2529680     0.3825710
  H       -2.0263210     0.1331820     1.3936400
  H        2.0399100    -1.6071390     0.6510050
  H        3.2481390     2.0275410    -0.1185540
  H        2.0757450     1.6393580     1.1523020
  H        3.5397370     0.6653480     0.9697790
  H       -0.3482160    -1.8932280     0.8773390
  H       -4.0255760     0.7295450    -0.0161740
  H       -2.6128620     1.7059100    -0.4684560
  H       -3.0981720     0.3293290    -1.4847820
units angstrom
no_reorient  #important for SAPT in psi4, default
symmetry c1  #important for SAPT in psi4, default
}

set PROPERTIES_ORIGIN ["COM"]
properties('MP2/aug-cc-pvtz', properties = ['dipole'])
--------------------------------------------------------------------------

    Molecular point group: c1
  Charge       = 0
  Multiplicity = 1
  Basis Set: AUG-CC-PVTZ
    Blend: AUG-CC-PVTZ
  Basis Set: (AUG-CC-PVTZ AUX)
    Blend: AUG-CC-PVTZ-JKFIT

    Orbital Energies [Eh]
    ---------------------

    Doubly Occupied:

       1A    -20.571978     2A    -11.286286     3A    -11.277484
       4A    -11.221039     5A    -11.214942     6A    -11.212740
       7A    -11.208549     8A     -1.392930     9A     -1.074990
      10A     -1.025002    11A     -0.966182    12A     -0.852301
      13A     -0.841865    14A     -0.754606    15A     -0.683607
      16A     -0.654178    17A     -0.641691    18A     -0.600373
      19A     -0.560851    20A     -0.553566    21A     -0.540686
      22A     -0.526401    23A     -0.520693    24A     -0.498954
      25A     -0.478716    26A     -0.471474    27A     -0.460584
      28A     -0.325395

  @DF-RHF Final Energy:  -309.13711466240250

   => Energetics <=

    Nuclear Repulsion Energy =            302.3619705825046253
    One-Electron Energy =               -1018.1620419183570903
    Two-Electron Energy =                 406.6629566734499122
    Total Energy =                       -309.1371146624024959
  Basis Set: (AUG-CC-PVTZ AUX)
    Blend: AUG-CC-PVTZ-RI
    Molecular point group: c1

    Geometry (in Angstrom), charge = 0, multiplicity = 1:

       Center              X                  Y                   Z               Mass
    ------------   -----------------  -----------------  -----------------  -----------------
         O           -0.835441391228    -0.229293802883    -0.285341659416    15.994914619570
         C            2.023208608772     0.281767197117    -0.538543659416    12.000000000000
         C           -2.117471391228    -0.225948802883     0.352145340584    12.000000000000
         C            1.397584608772    -0.869244802883     0.183041340584    12.000000000000
         C            2.725784208772     1.217113897117     0.446813140584    12.000000000000
         C            0.079068608772    -1.057986802883     0.313702340584    12.000000000000
         C           -3.016949391228     0.691272197117    -0.454936659416    12.000000000000
         H            2.691632308772    -0.111442902883    -1.311250259416     1.007825032230
         H            1.249576608772     0.840322197117    -1.066727659416     1.007825032230
         H           -2.519301391228    -1.253660802883     0.379509340584     1.007825032230
         H           -2.020572391228     0.132489197117     1.390578340584     1.007825032230
         H            2.045658608772    -1.607831802883     0.647943340584     1.007825032230
         H            3.253887608772     2.026848197117    -0.121615659416     1.007825032230
         H            2.081493608772     1.638665197117     1.149240340584     1.007825032230
         H            3.545485608772     0.664655197117     0.966717340584     1.007825032230
         H           -0.342467391228    -1.893920802883     0.874277340584     1.007825032230
         H           -4.019827391228     0.728852197117    -0.019235659416     1.007825032230
         H           -2.607113391228     1.705217197117    -0.471517659416     1.007825032230
         H           -3.092423391228     0.328636197117    -1.487843659416     1.007825032230

  Basis Set: AUG-CC-PVTZ
    Blend: AUG-CC-PVTZ
  Basis Set: (AUG-CC-PVTZ AUX)
    Blend: AUG-CC-PVTZ-JKFIT
	 Reference Energy          =    -309.1371146624024959 [Eh]
	 Singles Energy            =      -0.0000000000000000 [Eh]
	 Same-Spin Energy          =      -0.3139015079450999 [Eh]
	 Opposite-Spin Energy      =      -1.0993990456077951 [Eh]
	 Correlation Energy        =      -1.4133005535528951 [Eh]
	 Total Energy              =    -310.5504152159554110 [Eh]

	 ================> DF-SCS-MP2 Energies <==================
	-----------------------------------------------------------
	 SCS Same-Spin Scale       =       0.3333333333333333 [-]
	 SCS Opposite-Spin Scale   =       1.2000000000000000 [-]
	 SCS Same-Spin Energy      =      -0.1046338359817000 [Eh]
	 SCS Opposite-Spin Energy  =      -1.3192788547293541 [Eh]
	 SCS Correlation Energy    =      -1.4239126907110542 [Eh]
	 SCS Total Energy          =    -310.5610273531135590 [Eh]
	-----------------------------------------------------------

  Dipole Moment: [D]
     X:    -1.1107      Y:    -0.1861      Z:     0.7247     Total:     1.3392

*** Psi4 exiting successfully. Buy a developer a beer!
