                               Psi4 1.3.2 release

  ==> Input File <==

--------------------------------------------------------------------------
#psi4
#
memory 32 gb

molecule  {
0 1
  O       -0.8934177    -0.2700119    -0.2555292
  C        2.0174600     0.2824600    -0.5354820
  C       -2.1232200    -0.2252560     0.3552070
  C        1.3918360    -0.8685520     0.1861030
  C        2.7655740     1.2103670     0.4230210
  C        0.0733200    -1.0572940     0.3167640
  C       -3.0226980     0.6919650    -0.4518750
  H        2.7145670    -0.0909720    -1.2924960
  H        1.2438280     0.8410150    -1.0636660
  H       -2.5250500    -1.2529680     0.3825710
  H       -2.0263210     0.1331820     1.3936400
  H        2.0399100    -1.6071390     0.6510050
  H        3.2481390     2.0275410    -0.1185540
  H        2.0757450     1.6393580     1.1523020
  H        3.5397370     0.6653480     0.9697790
  H       -0.4002919    -1.8746910     0.8629109
  H       -4.0255760     0.7295450    -0.0161740
  H       -2.6128620     1.7059100    -0.4684560
  H       -3.0981720     0.3293290    -1.4847820
units angstrom
no_reorient  #important for SAPT in psi4, default
symmetry c1  #important for SAPT in psi4, default
}

set PROPERTIES_ORIGIN ["COM"]
properties('MP2/aug-cc-pvtz', properties = ['dipole'])
--------------------------------------------------------------------------

    Molecular point group: c1
  Charge       = 0
  Multiplicity = 1
  Basis Set: AUG-CC-PVTZ
    Blend: AUG-CC-PVTZ
  Basis Set: (AUG-CC-PVTZ AUX)
    Blend: AUG-CC-PVTZ-JKFIT

    Orbital Energies [Eh]
    ---------------------

    Doubly Occupied:

       1A    -20.568829     2A    -11.282479     3A    -11.280755
       4A    -11.219034     5A    -11.218585     6A    -11.217622
       7A    -11.209307     8A     -1.409190     9A     -1.079058
      10A     -1.025730    11A     -0.968067    12A     -0.857514
      13A     -0.839672    14A     -0.763854    15A     -0.688139
      16A     -0.657188    17A     -0.648703    18A     -0.601757
      19A     -0.562012    20A     -0.560651    21A     -0.541173
      22A     -0.534188    23A     -0.511920    24A     -0.495783
      25A     -0.480503    26A     -0.470519    27A     -0.457285
      28A     -0.329115

  @DF-RHF Final Energy:  -309.13947590484668

   => Energetics <=

    Nuclear Repulsion Energy =            302.7105835556314446
    One-Electron Energy =               -1018.7428582023286481
    Two-Electron Energy =                 406.8927987418505836
    Total Energy =                       -309.1394759048466767
  Basis Set: (AUG-CC-PVTZ AUX)
    Blend: AUG-CC-PVTZ-RI
    Molecular point group: c1

    Geometry (in Angstrom), charge = 0, multiplicity = 1:

       Center              X                  Y                   Z               Mass
    ------------   -----------------  -----------------  -----------------  -----------------
         O           -0.884546939666    -0.263580777069    -0.259658966344    15.994914619570
         C            2.026330760334     0.288891122931    -0.539611766344    12.000000000000
         C           -2.114349239666    -0.218824877069     0.351077233656    12.000000000000
         C            1.400706760334    -0.862120877069     0.181973233656    12.000000000000
         C            2.774444760334     1.216798122931     0.418891233656    12.000000000000
         C            0.082190760334    -1.050862877069     0.312634233656    12.000000000000
         C           -3.013827239666     0.698396122931    -0.456004766344    12.000000000000
         H            2.723437760334    -0.084540877069    -1.296625766344     1.007825032230
         H            1.252698760334     0.847446122931    -1.067795766344     1.007825032230
         H           -2.516179239666    -1.246536877069     0.378441233656     1.007825032230
         H           -2.017450239666     0.139613122931     1.389510233656     1.007825032230
         H            2.048780760334    -1.600707877069     0.646875233656     1.007825032230
         H            3.257009760334     2.033972122931    -0.122683766344     1.007825032230
         H            2.084615760334     1.645789122931     1.148172233656     1.007825032230
         H            3.548607760334     0.671779122931     0.965649233656     1.007825032230
         H           -0.391421139666    -1.868259877069     0.858781133656     1.007825032230
         H           -4.016705239666     0.735976122931    -0.020303766344     1.007825032230
         H           -2.603991239666     1.712341122931    -0.472585766344     1.007825032230
         H           -3.089301239666     0.335760122931    -1.488911766344     1.007825032230

  Basis Set: AUG-CC-PVTZ
    Blend: AUG-CC-PVTZ
  Basis Set: (AUG-CC-PVTZ AUX)
    Blend: AUG-CC-PVTZ-JKFIT
	 Reference Energy          =    -309.1394759048466767 [Eh]
	 Singles Energy            =      -0.0000000000000000 [Eh]
	 Same-Spin Energy          =      -0.3134809630321628 [Eh]
	 Opposite-Spin Energy      =      -1.0976340934459501 [Eh]
	 Correlation Energy        =      -1.4111150564781130 [Eh]
	 Total Energy              =    -310.5505909613248150 [Eh]

	 ================> DF-SCS-MP2 Energies <==================
	-----------------------------------------------------------
	 SCS Same-Spin Scale       =       0.3333333333333333 [-]
	 SCS Opposite-Spin Scale   =       1.2000000000000000 [-]
	 SCS Same-Spin Energy      =      -0.1044936543440542 [Eh]
	 SCS Opposite-Spin Energy  =      -1.3171609121351400 [Eh]
	 SCS Correlation Energy    =      -1.4216545664791942 [Eh]
	 SCS Total Energy          =    -310.5611304713258960 [Eh]
	-----------------------------------------------------------

  Dipole Moment: [D]
     X:    -0.7968      Y:    -0.1150      Z:     0.6358     Total:     1.0258

*** Psi4 exiting successfully. Buy a developer a beer!
