                               Psi4 1.3.2 release

  ==> Input File <==

--------------------------------------------------------------------------
#psi4
#
memory 32 gb

molecule  {
0 1
  O       -0.8411900    -0.2286010    -0.2822800
  C        2.0174600     0.2824600    -0.5354820
  C       -2.1232200    -0.2252560     0.3552070
  C        1.4336660    -0.7915938     0.1378569
  C        2.7655740     1.2103670     0.4230210
  C        0.0733200    -1.0572940     0.3167640
  C       -3.0226980     0.6919650    -0.4518750
  H        2.7145670    -0.0909720    -1.2924960
  H        1.2438280     0.8410150    -1.0636660
  H       -2.5250500    -1.2529680     0.3825710
  H       -2.0263210     0.1331820     1.3936400
  H        2.0399100    -1.6071390     0.6510050
  H        3.2481390     2.0275410    -0.1185540
  H        2.0757450     1.6393580     1.1523020
  H        3.5397370     0.6653480     0.9697790
  H       -0.3482160    -1.8932280     0.8773390
  H       -4.0255760     0.7295450    -0.0161740
  H       -2.6128620     1.7059100    -0.4684560
  H       -3.0981720     0.3293290    -1.4847820
units angstrom
no_reorient  #important for SAPT in psi4, default
symmetry c1  #important for SAPT in psi4, default
}

set PROPERTIES_ORIGIN ["COM"]
properties('MP2/aug-cc-pvtz', properties = ['dipole'])
--------------------------------------------------------------------------

    Molecular point group: c1
  Charge       = 0
  Multiplicity = 1
  Basis Set: AUG-CC-PVTZ
    Blend: AUG-CC-PVTZ
  Basis Set: (AUG-CC-PVTZ AUX)
    Blend: AUG-CC-PVTZ-JKFIT

    Orbital Energies [Eh]
    ---------------------

    Doubly Occupied:

       1A    -20.571415     2A    -11.286046     3A    -11.286027
       4A    -11.221728     5A    -11.220957     6A    -11.209945
       7A    -11.208881     8A     -1.392883     9A     -1.085104
      10A     -1.028211    11A     -0.955776    12A     -0.861347
      13A     -0.841356    14A     -0.750517    15A     -0.683500
      16A     -0.654802    17A     -0.641414    18A     -0.606812
      19A     -0.558455    20A     -0.553602    21A     -0.543451
      22A     -0.525741    23A     -0.513199    24A     -0.504519
      25A     -0.488852    26A     -0.467539    27A     -0.464811
      28A     -0.309601

  @DF-RHF Final Energy:  -309.12260289623538

   => Energetics <=

    Nuclear Repulsion Energy =            302.5885978021784126
    One-Electron Energy =               -1018.5494155591881054
    Two-Electron Energy =                 406.8382148607742579
    Total Energy =                       -309.1226028962353780
  Basis Set: (AUG-CC-PVTZ AUX)
    Blend: AUG-CC-PVTZ-RI
    Molecular point group: c1

    Geometry (in Angstrom), charge = 0, multiplicity = 1:

       Center              X                  Y                   Z               Mass
    ------------   -----------------  -----------------  -----------------  -----------------
         O           -0.846205116902    -0.237827772081    -0.276495681922    15.994914619570
         C            2.012444883098     0.273233227919    -0.529697681922    12.000000000000
         C           -2.128235116902    -0.234482772081     0.360991318078    12.000000000000
         C            1.428650883098    -0.800820572081     0.143641218078    12.000000000000
         C            2.760558883098     1.201140227919     0.428805318078    12.000000000000
         C            0.068304883098    -1.066520772081     0.322548318078    12.000000000000
         C           -3.027713116902     0.682738227919    -0.446090681922    12.000000000000
         H            2.709551883098    -0.100198772081    -1.286711681922     1.007825032230
         H            1.238812883098     0.831788227919    -1.057881681922     1.007825032230
         H           -2.530065116902    -1.262194772081     0.388355318078     1.007825032230
         H           -2.031336116902     0.123955227919     1.399424318078     1.007825032230
         H            2.034894883098    -1.616365772081     0.656789318078     1.007825032230
         H            3.243123883098     2.018314227919    -0.112769681922     1.007825032230
         H            2.070729883098     1.630131227919     1.158086318078     1.007825032230
         H            3.534721883098     0.656121227919     0.975563318078     1.007825032230
         H           -0.353231116902    -1.902454772081     0.883123318078     1.007825032230
         H           -4.030591116902     0.720318227919    -0.010389681922     1.007825032230
         H           -2.617877116902     1.696683227919    -0.462671681922     1.007825032230
         H           -3.103187116902     0.320102227919    -1.478997681922     1.007825032230

  Basis Set: AUG-CC-PVTZ
    Blend: AUG-CC-PVTZ
  Basis Set: (AUG-CC-PVTZ AUX)
    Blend: AUG-CC-PVTZ-JKFIT
	 Reference Energy          =    -309.1226028962353780 [Eh]
	 Singles Energy            =      -0.0000000000000000 [Eh]
	 Same-Spin Energy          =      -0.3160742431000450 [Eh]
	 Opposite-Spin Energy      =      -1.1027340169106048 [Eh]
	 Correlation Energy        =      -1.4188082600106497 [Eh]
	 Total Energy              =    -310.5414111562459993 [Eh]

	 ================> DF-SCS-MP2 Energies <==================
	-----------------------------------------------------------
	 SCS Same-Spin Scale       =       0.3333333333333333 [-]
	 SCS Opposite-Spin Scale   =       1.2000000000000000 [-]
	 SCS Same-Spin Energy      =      -0.1053580810333483 [Eh]
	 SCS Opposite-Spin Energy  =      -1.3232808202927258 [Eh]
	 SCS Correlation Energy    =      -1.4286389013260741 [Eh]
	 SCS Total Energy          =    -310.5512417975614312 [Eh]
	-----------------------------------------------------------

  Dipole Moment: [D]
     X:    -1.1101      Y:    -0.1317      Z:     0.6784     Total:     1.3076

*** Psi4 exiting successfully. Buy a developer a beer!
