                               Psi4 1.3.2 release

  ==> Input File <==

--------------------------------------------------------------------------
#psi4
#
memory 32 gb

molecule  {
0 1
  O       -0.8411900    -0.2286010    -0.2822800
  C        2.0174600     0.2824600    -0.5354820
  C       -2.1190057    -0.2334938     0.3636030
  C        1.3918360    -0.8685520     0.1861030
  C        2.7655740     1.2103670     0.4230210
  C        0.0650912    -1.0604247     0.3248757
  C       -3.0226980     0.6919650    -0.4518750
  H        2.7145670    -0.0909720    -1.2924960
  H        1.2438280     0.8410150    -1.0636660
  H       -2.5250500    -1.2529680     0.3825710
  H       -2.0263210     0.1331820     1.3936400
  H        2.0399100    -1.6071390     0.6510050
  H        3.2481390     2.0275410    -0.1185540
  H        2.0757450     1.6393580     1.1523020
  H        3.5397370     0.6653480     0.9697790
  H       -0.3482160    -1.8932280     0.8773390
  H       -4.0255760     0.7295450    -0.0161740
  H       -2.6128620     1.7059100    -0.4684560
  H       -3.0981720     0.3293290    -1.4847820
units angstrom
no_reorient  #important for SAPT in psi4, default
symmetry c1  #important for SAPT in psi4, default
}

set PROPERTIES_ORIGIN ["COM"]
properties('MP2/aug-cc-pvtz', properties = ['dipole'])
--------------------------------------------------------------------------

    Molecular point group: c1
  Charge       = 0
  Multiplicity = 1
  Basis Set: AUG-CC-PVTZ
    Blend: AUG-CC-PVTZ
  Basis Set: (AUG-CC-PVTZ AUX)
    Blend: AUG-CC-PVTZ-JKFIT

    Orbital Energies [Eh]
    ---------------------

    Doubly Occupied:

       1A    -20.573100     2A    -11.285764     3A    -11.278422
       4A    -11.221228     5A    -11.215187     6A    -11.214489
       7A    -11.207444     8A     -1.394087     9A     -1.073062
      10A     -1.023203    11A     -0.965040    12A     -0.851743
      13A     -0.843011    14A     -0.755083    15A     -0.685080
      16A     -0.655793    17A     -0.641395    18A     -0.597634
      19A     -0.560053    20A     -0.556638    21A     -0.542242
      22A     -0.526015    23A     -0.510008    24A     -0.500387
      25A     -0.479672    26A     -0.474367    27A     -0.465496
      28A     -0.323794

  @DF-RHF Final Energy:  -309.14012942801355

   => Energetics <=

    Nuclear Repulsion Energy =            301.9858858536233583
    One-Electron Energy =               -1017.4131585327295397
    Two-Electron Energy =                 406.2871432510926297
    Total Energy =                       -309.1401294280135517
  Basis Set: (AUG-CC-PVTZ AUX)
    Blend: AUG-CC-PVTZ-RI
    Molecular point group: c1

    Geometry (in Angstrom), charge = 0, multiplicity = 1:

       Center              X                  Y                   Z               Mass
    ------------   -----------------  -----------------  -----------------  -----------------
         O           -0.840708658582    -0.227237973411    -0.284259242715    15.994914619570
         C            2.017941341418     0.283823026589    -0.537461242715    12.000000000000
         C           -2.118524358582    -0.232130773411     0.361623757285    12.000000000000
         C            1.392317341418    -0.867188973411     0.184123757285    12.000000000000
         C            2.766055341418     1.211730026589     0.421041757285    12.000000000000
         C            0.065572541418    -1.059061673411     0.322896457285    12.000000000000
         C           -3.022216658582     0.693328026589    -0.453854242715    12.000000000000
         H            2.715048341418    -0.089608973411    -1.294475242715     1.007825032230
         H            1.244309341418     0.842378026589    -1.065645242715     1.007825032230
         H           -2.524568658582    -1.251604973411     0.380591757285     1.007825032230
         H           -2.025839658582     0.134545026589     1.391660757285     1.007825032230
         H            2.040391341418    -1.605775973411     0.649025757285     1.007825032230
         H            3.248620341418     2.028904026589    -0.120533242715     1.007825032230
         H            2.076226341418     1.640721026589     1.150322757285     1.007825032230
         H            3.540218341418     0.666711026589     0.967799757285     1.007825032230
         H           -0.347734658582    -1.891864973411     0.875359757285     1.007825032230
         H           -4.025094658582     0.730908026589    -0.018153242715     1.007825032230
         H           -2.612380658582     1.707273026589    -0.470435242715     1.007825032230
         H           -3.097690658582     0.330692026589    -1.486761242715     1.007825032230

  Basis Set: AUG-CC-PVTZ
    Blend: AUG-CC-PVTZ
  Basis Set: (AUG-CC-PVTZ AUX)
    Blend: AUG-CC-PVTZ-JKFIT
	 Reference Energy          =    -309.1401294280135517 [Eh]
	 Singles Energy            =      -0.0000000000000000 [Eh]
	 Same-Spin Energy          =      -0.3138803985617933 [Eh]
	 Opposite-Spin Energy      =      -1.0995219489442649 [Eh]
	 Correlation Energy        =      -1.4134023475060582 [Eh]
	 Total Energy              =    -310.5535317755196161 [Eh]

	 ================> DF-SCS-MP2 Energies <==================
	-----------------------------------------------------------
	 SCS Same-Spin Scale       =       0.3333333333333333 [-]
	 SCS Opposite-Spin Scale   =       1.2000000000000000 [-]
	 SCS Same-Spin Energy      =      -0.1046267995205978 [Eh]
	 SCS Opposite-Spin Energy  =      -1.3194263387331178 [Eh]
	 SCS Correlation Energy    =      -1.4240531382537156 [Eh]
	 SCS Total Energy          =    -310.5641825662672773 [Eh]
	-----------------------------------------------------------

  Dipole Moment: [D]
     X:    -1.0994      Y:    -0.2089      Z:     0.7352     Total:     1.3390

*** Psi4 exiting successfully. Buy a developer a beer!
