                               Psi4 1.3.2 release

  ==> Input File <==

--------------------------------------------------------------------------
#psi4
#
memory 32 gb

molecule  {
0 1
  O       -0.8411900    -0.2286010    -0.2822800
  C        2.0174600     0.2824600    -0.5354820
  C       -2.1232200    -0.2252560     0.3552070
  C        1.3918360    -0.8685520     0.1861030
  C        2.7655740     1.2103670     0.4230210
  C        0.0733200    -1.0572940     0.3167640
  C       -3.0226980     0.6919650    -0.4518750
  H        2.6508898    -0.0568609    -1.2233466
  H        1.2438280     0.8410150    -1.0636660
  H       -2.5250500    -1.2529680     0.3825710
  H       -2.0263210     0.1331820     1.3936400
  H        2.0399100    -1.6071390     0.6510050
  H        3.2481390     2.0275410    -0.1185540
  H        2.0757450     1.6393580     1.1523020
  H        3.5397370     0.6653480     0.9697790
  H       -0.3482160    -1.8932280     0.8773390
  H       -4.0255760     0.7295450    -0.0161740
  H       -2.6128620     1.7059100    -0.4684560
  H       -3.0981720     0.3293290    -1.4847820
units angstrom
no_reorient  #important for SAPT in psi4, default
symmetry c1  #important for SAPT in psi4, default
}

set PROPERTIES_ORIGIN ["COM"]
properties('MP2/aug-cc-pvtz', properties = ['dipole'])
--------------------------------------------------------------------------

    Molecular point group: c1
  Charge       = 0
  Multiplicity = 1
  Basis Set: AUG-CC-PVTZ
    Blend: AUG-CC-PVTZ
  Basis Set: (AUG-CC-PVTZ AUX)
    Blend: AUG-CC-PVTZ-JKFIT

    Orbital Energies [Eh]
    ---------------------

    Doubly Occupied:

       1A    -20.571780     2A    -11.286068     3A    -11.277504
       4A    -11.220845     5A    -11.212597     6A    -11.206500
       7A    -11.201775     8A     -1.392722     9A     -1.076869
      10A     -1.026393    11A     -0.967191    12A     -0.855142
      13A     -0.842944    14A     -0.757930    15A     -0.685399
      16A     -0.654577    17A     -0.642024    18A     -0.604732
      19A     -0.560799    20A     -0.556648    21A     -0.541819
      22A     -0.526918    23A     -0.511330    24A     -0.501234
      25A     -0.485302    26A     -0.472933    27A     -0.463429
      28A     -0.325645

  @DF-RHF Final Energy:  -309.13466276598831

   => Energetics <=

    Nuclear Repulsion Energy =            302.6318725304692521
    One-Electron Energy =               -1018.6749735147691354
    Two-Electron Energy =                 406.9084382183115167
    Total Energy =                       -309.1346627659883097
  Basis Set: (AUG-CC-PVTZ AUX)
    Blend: AUG-CC-PVTZ-RI
    Molecular point group: c1

    Geometry (in Angstrom), charge = 0, multiplicity = 1:

       Center              X                  Y                   Z               Mass
    ------------   -----------------  -----------------  -----------------  -----------------
         O           -0.840548785812    -0.228944458001    -0.282976363067    15.994914619570
         C            2.018101214188     0.282116541999    -0.536178363067    12.000000000000
         C           -2.122578785812    -0.225599458001     0.354510636933    12.000000000000
         C            1.392477214188    -0.868895458001     0.185406636933    12.000000000000
         C            2.766215214188     1.210023541999     0.422324636933    12.000000000000
         C            0.073961214188    -1.057637458001     0.316067636933    12.000000000000
         C           -3.022056785812     0.691621541999    -0.452571363067    12.000000000000
         H            2.651531014188    -0.057204358001    -1.224042963067     1.007825032230
         H            1.244469214188     0.840671541999    -1.064362363067     1.007825032230
         H           -2.524408785812    -1.253311458001     0.381874636933     1.007825032230
         H           -2.025679785812     0.132838541999     1.392943636933     1.007825032230
         H            2.040551214188    -1.607482458001     0.650308636933     1.007825032230
         H            3.248780214188     2.027197541999    -0.119250363067     1.007825032230
         H            2.076386214188     1.639014541999     1.151605636933     1.007825032230
         H            3.540378214188     0.665004541999     0.969082636933     1.007825032230
         H           -0.347574785812    -1.893571458001     0.876642636933     1.007825032230
         H           -4.024934785812     0.729201541999    -0.016870363067     1.007825032230
         H           -2.612220785812     1.705566541999    -0.469152363067     1.007825032230
         H           -3.097530785812     0.328985541999    -1.485478363067     1.007825032230

  Basis Set: AUG-CC-PVTZ
    Blend: AUG-CC-PVTZ
  Basis Set: (AUG-CC-PVTZ AUX)
    Blend: AUG-CC-PVTZ-JKFIT
	 Reference Energy          =    -309.1346627659883097 [Eh]
	 Singles Energy            =      -0.0000000000000000 [Eh]
	 Same-Spin Energy          =      -0.3138668561215580 [Eh]
	 Opposite-Spin Energy      =      -1.0987451637901200 [Eh]
	 Correlation Energy        =      -1.4126120199116778 [Eh]
	 Total Energy              =    -310.5472747859000151 [Eh]

	 ================> DF-SCS-MP2 Energies <==================
	-----------------------------------------------------------
	 SCS Same-Spin Scale       =       0.3333333333333333 [-]
	 SCS Opposite-Spin Scale   =       1.2000000000000000 [-]
	 SCS Same-Spin Energy      =      -0.1046222853738527 [Eh]
	 SCS Opposite-Spin Energy  =      -1.3184941965481440 [Eh]
	 SCS Correlation Energy    =      -1.4231164819219968 [Eh]
	 SCS Total Energy          =    -310.5577792479103323 [Eh]
	-----------------------------------------------------------

  Dipole Moment: [D]
     X:    -1.0590      Y:    -0.1988      Z:     0.6774     Total:     1.2727

*** Psi4 exiting successfully. Buy a developer a beer!
