                               Psi4 1.3.2 release

  ==> Input File <==

--------------------------------------------------------------------------
#psi4
#
memory 32 gb

molecule  {
0 1
  O       -0.8411900    -0.2286010    -0.2822800
  C        2.0174600     0.2824600    -0.5354820
  C       -2.1232200    -0.2252560     0.3552070
  C        1.4208838    -0.8398050     0.2528943
  C        2.7440710     1.1620985     0.4831870
  C        0.0733200    -1.0572940     0.3167640
  C       -3.0226980     0.6919650    -0.4518750
  H        2.7145670    -0.0909720    -1.2924960
  H        1.2438280     0.8410150    -1.0636660
  H       -2.5250500    -1.2529680     0.3825710
  H       -2.0263210     0.1331820     1.3936400
  H        2.0399100    -1.6071390     0.6510050
  H        3.2481390     2.0275410    -0.1185540
  H        2.0757450     1.6393580     1.1523020
  H        3.5397370     0.6653480     0.9697790
  H       -0.3482160    -1.8932280     0.8773390
  H       -4.0255760     0.7295450    -0.0161740
  H       -2.6128620     1.7059100    -0.4684560
  H       -3.0981720     0.3293290    -1.4847820
units angstrom
no_reorient  #important for SAPT in psi4, default
symmetry c1  #important for SAPT in psi4, default
}

set PROPERTIES_ORIGIN ["COM"]
properties('MP2/aug-cc-pvtz', properties = ['dipole'])
--------------------------------------------------------------------------

    Molecular point group: c1
  Charge       = 0
  Multiplicity = 1
  Basis Set: AUG-CC-PVTZ
    Blend: AUG-CC-PVTZ
  Basis Set: (AUG-CC-PVTZ AUX)
    Blend: AUG-CC-PVTZ-JKFIT

    Orbital Energies [Eh]
    ---------------------

    Doubly Occupied:

       1A    -20.574153     2A    -11.287030     3A    -11.281896
       4A    -11.221548     5A    -11.215463     6A    -11.214559
       7A    -11.207110     8A     -1.394052     9A     -1.074044
      10A     -1.026087    11A     -0.961905    12A     -0.850892
      13A     -0.840972    14A     -0.759052    15A     -0.683433
      16A     -0.655058    17A     -0.643394    18A     -0.600637
      19A     -0.567892    20A     -0.553978    21A     -0.539380
      22A     -0.528711    23A     -0.513748    24A     -0.500467
      25A     -0.481685    26A     -0.474008    27A     -0.454329
      28A     -0.319672

  @DF-RHF Final Energy:  -309.12899710800161

   => Energetics <=

    Nuclear Repulsion Energy =            302.1530404373998522
    One-Electron Energy =               -1017.7137611879827546
    Two-Electron Energy =                 406.4317236425813462
    Total Energy =                       -309.1289971080016130
  Basis Set: (AUG-CC-PVTZ AUX)
    Blend: AUG-CC-PVTZ-RI
    Molecular point group: c1

    Geometry (in Angstrom), charge = 0, multiplicity = 1:

       Center              X                  Y                   Z               Mass
    ------------   -----------------  -----------------  -----------------  -----------------
         O           -0.842094543708    -0.226260481570    -0.297501433662    15.994914619570
         C            2.016555456292     0.284800518430    -0.550703433662    12.000000000000
         C           -2.124124543708    -0.222915481570     0.339985566338    12.000000000000
         C            1.419979256292    -0.837464481570     0.237672866338    12.000000000000
         C            2.743166456292     1.164439018430     0.467965566338    12.000000000000
         C            0.072415456292    -1.054953481570     0.301542566338    12.000000000000
         C           -3.023602543708     0.694305518430    -0.467096433662    12.000000000000
         H            2.713662456292    -0.088631481570    -1.307717433662     1.007825032230
         H            1.242923456292     0.843355518430    -1.078887433662     1.007825032230
         H           -2.525954543708    -1.250627481570     0.367349566338     1.007825032230
         H           -2.027225543708     0.135522518430     1.378418566338     1.007825032230
         H            2.039005456292    -1.604798481570     0.635783566338     1.007825032230
         H            3.247234456292     2.029881518430    -0.133775433662     1.007825032230
         H            2.074840456292     1.641698518430     1.137080566338     1.007825032230
         H            3.538832456292     0.667688518430     0.954557566338     1.007825032230
         H           -0.349120543708    -1.890887481570     0.862117566338     1.007825032230
         H           -4.026480543708     0.731885518430    -0.031395433662     1.007825032230
         H           -2.613766543708     1.708250518430    -0.483677433662     1.007825032230
         H           -3.099076543708     0.331669518430    -1.500003433662     1.007825032230

  Basis Set: AUG-CC-PVTZ
    Blend: AUG-CC-PVTZ
  Basis Set: (AUG-CC-PVTZ AUX)
    Blend: AUG-CC-PVTZ-JKFIT
	 Reference Energy          =    -309.1289971080016130 [Eh]
	 Singles Energy            =      -0.0000000000000000 [Eh]
	 Same-Spin Energy          =      -0.3145172256974296 [Eh]
	 Opposite-Spin Energy      =      -1.1008106994453553 [Eh]
	 Correlation Energy        =      -1.4153279251427848 [Eh]
	 Total Energy              =    -310.5443250331443892 [Eh]

	 ================> DF-SCS-MP2 Energies <==================
	-----------------------------------------------------------
	 SCS Same-Spin Scale       =       0.3333333333333333 [-]
	 SCS Opposite-Spin Scale   =       1.2000000000000000 [-]
	 SCS Same-Spin Energy      =      -0.1048390752324765 [Eh]
	 SCS Opposite-Spin Energy  =      -1.3209728393344262 [Eh]
	 SCS Correlation Energy    =      -1.4258119145669028 [Eh]
	 SCS Total Energy          =    -310.5548090225685200 [Eh]
	-----------------------------------------------------------

  Dipole Moment: [D]
     X:    -1.1485      Y:    -0.2791      Z:     0.6544     Total:     1.3510

*** Psi4 exiting successfully. Buy a developer a beer!
