                               Psi4 1.3.2 release

  ==> Input File <==

--------------------------------------------------------------------------
#psi4
#
memory 32 gb

molecule  {
0 1
  O       -0.8411900    -0.2286010    -0.2822800
  C        1.9936557     0.2915127    -0.5412085
  C       -2.1232200    -0.2252560     0.3552070
  C        1.3918360    -0.8685520     0.1861030
  C        2.7655740     1.2103670     0.4230210
  C        0.0733200    -1.0572940     0.3167640
  C       -3.0226980     0.6919650    -0.4518750
  H        2.7145670    -0.0909720    -1.2924960
  H        1.2438280     0.8410150    -1.0636660
  H       -2.5250500    -1.2529680     0.3825710
  H       -2.0263210     0.1331820     1.3936400
  H        2.0245802    -1.6166176     0.6569291
  H        3.2481390     2.0275410    -0.1185540
  H        2.0757450     1.6393580     1.1523020
  H        3.5397370     0.6653480     0.9697790
  H       -0.3482160    -1.8932280     0.8773390
  H       -4.0255760     0.7295450    -0.0161740
  H       -2.6128620     1.7059100    -0.4684560
  H       -3.0981720     0.3293290    -1.4847820
units angstrom
no_reorient  #important for SAPT in psi4, default
symmetry c1  #important for SAPT in psi4, default
}

set PROPERTIES_ORIGIN ["COM"]
properties('MP2/aug-cc-pvtz', properties = ['dipole'])
--------------------------------------------------------------------------

    Molecular point group: c1
  Charge       = 0
  Multiplicity = 1
  Basis Set: AUG-CC-PVTZ
    Blend: AUG-CC-PVTZ
  Basis Set: (AUG-CC-PVTZ AUX)
    Blend: AUG-CC-PVTZ-JKFIT

    Orbital Energies [Eh]
    ---------------------

    Doubly Occupied:

       1A    -20.572132     2A    -11.286352     3A    -11.277323
       4A    -11.221098     5A    -11.214969     6A    -11.213327
       7A    -11.207803     8A     -1.393142     9A     -1.074601
      10A     -1.024420    11A     -0.966178    12A     -0.851220
      13A     -0.841961    14A     -0.755340    15A     -0.683342
      16A     -0.654453    17A     -0.642942    18A     -0.595660
      19A     -0.561706    20A     -0.556720    21A     -0.541713
      22A     -0.527454    23A     -0.506838    24A     -0.502306
      25A     -0.478649    26A     -0.475951    27A     -0.465665
      28A     -0.324820

  @DF-RHF Final Energy:  -309.14012497253424

   => Energetics <=

    Nuclear Repulsion Energy =            302.2092642656155022
    One-Electron Energy =               -1017.8626126185113208
    Two-Electron Energy =                 406.5132233803615804
    Total Energy =                       -309.1401249725342382
  Basis Set: (AUG-CC-PVTZ AUX)
    Blend: AUG-CC-PVTZ-RI
    Molecular point group: c1

    Geometry (in Angstrom), charge = 0, multiplicity = 1:

       Center              X                  Y                   Z               Mass
    ------------   -----------------  -----------------  -----------------  -----------------
         O           -0.838181629401    -0.229590899956    -0.281653157872    15.994914619570
         C            1.996664070599     0.290522800044    -0.540581657872    12.000000000000
         C           -2.120211629401    -0.226245899956     0.355833842128    12.000000000000
         C            1.394844370599    -0.869541899956     0.186729842128    12.000000000000
         C            2.768582370599     1.209377100044     0.423647842128    12.000000000000
         C            0.076328370599    -1.058283899956     0.317390842128    12.000000000000
         C           -3.019689629401     0.690975100044    -0.451248157872    12.000000000000
         H            2.717575370599    -0.091961899956    -1.291869157872     1.007825032230
         H            1.246836370599     0.840025100044    -1.063039157872     1.007825032230
         H           -2.522041629401    -1.253957899956     0.383197842128     1.007825032230
         H           -2.023312629401     0.132192100044     1.394266842128     1.007825032230
         H            2.027588570599    -1.617607499956     0.657555942128     1.007825032230
         H            3.251147370599     2.026551100044    -0.117927157872     1.007825032230
         H            2.078753370599     1.638368100044     1.152928842128     1.007825032230
         H            3.542745370599     0.664358100044     0.970405842128     1.007825032230
         H           -0.345207629401    -1.894217899956     0.877965842128     1.007825032230
         H           -4.022567629401     0.728555100044    -0.015547157872     1.007825032230
         H           -2.609853629401     1.704920100044    -0.467829157872     1.007825032230
         H           -3.095163629401     0.328339100044    -1.484155157872     1.007825032230

  Basis Set: AUG-CC-PVTZ
    Blend: AUG-CC-PVTZ
  Basis Set: (AUG-CC-PVTZ AUX)
    Blend: AUG-CC-PVTZ-JKFIT
	 Reference Energy          =    -309.1401249725342382 [Eh]
	 Singles Energy            =      -0.0000000000000000 [Eh]
	 Same-Spin Energy          =      -0.3138103653579206 [Eh]
	 Opposite-Spin Energy      =      -1.0991671232650266 [Eh]
	 Correlation Energy        =      -1.4129774886229471 [Eh]
	 Total Energy              =    -310.5531024611572093 [Eh]

	 ================> DF-SCS-MP2 Energies <==================
	-----------------------------------------------------------
	 SCS Same-Spin Scale       =       0.3333333333333333 [-]
	 SCS Opposite-Spin Scale   =       1.2000000000000000 [-]
	 SCS Same-Spin Energy      =      -0.1046034551193069 [Eh]
	 SCS Opposite-Spin Energy  =      -1.3190005479180320 [Eh]
	 SCS Correlation Energy    =      -1.4236040030373389 [Eh]
	 SCS Total Energy          =    -310.5637289755715642 [Eh]
	-----------------------------------------------------------

  Dipole Moment: [D]
     X:    -1.1006      Y:    -0.1887      Z:     0.7277     Total:     1.3329

*** Psi4 exiting successfully. Buy a developer a beer!
