                               Psi4 1.3.2 release

  ==> Input File <==

--------------------------------------------------------------------------
#psi4
#
memory 32 gb

molecule  {
0 1
  O       -0.8411900    -0.2286010    -0.2822800
  C        2.0174600     0.2824600    -0.5354820
  C       -2.1232200    -0.2252560     0.3552070
  C        1.3918360    -0.8685520     0.1861030
  C        2.7655740     1.2103670     0.4230210
  C        0.2066471    -1.1781098     0.4040991
  C       -3.0226980     0.6919650    -0.4518750
  H        2.7145670    -0.0909720    -1.2924960
  H        1.2438280     0.8410150    -1.0636660
  H       -2.5250500    -1.2529680     0.3825710
  H       -2.0263210     0.1331820     1.3936400
  H        2.0399100    -1.6071390     0.6510050
  H        3.2481390     2.0275410    -0.1185540
  H        2.0757450     1.6393580     1.1523020
  H        3.5397370     0.6653480     0.9697790
  H       -0.3482160    -1.8932280     0.8773390
  H       -4.0255760     0.7295450    -0.0161740
  H       -2.6128620     1.7059100    -0.4684560
  H       -3.0981720     0.3293290    -1.4847820
units angstrom
no_reorient  #important for SAPT in psi4, default
symmetry c1  #important for SAPT in psi4, default
}

set PROPERTIES_ORIGIN ["COM"]
properties('MP2/aug-cc-pvtz', properties = ['dipole'])
--------------------------------------------------------------------------

    Molecular point group: c1
  Charge       = 0
  Multiplicity = 1
  Basis Set: AUG-CC-PVTZ
    Blend: AUG-CC-PVTZ
  Basis Set: (AUG-CC-PVTZ AUX)
    Blend: AUG-CC-PVTZ-JKFIT

    Orbital Energies [Eh]
    ---------------------

    Doubly Occupied:

       1A    -20.542396     2A    -11.272542     3A    -11.268604
       4A    -11.226852     5A    -11.219954     6A    -11.215339
       7A    -11.209770     8A     -1.321416     9A     -1.096410
      10A     -1.014540    11A     -0.983706    12A     -0.858913
      13A     -0.822888    14A     -0.760980    15A     -0.681761
      16A     -0.634090    17A     -0.627479    18A     -0.603708
      19A     -0.561941    20A     -0.545651    21A     -0.533265
      22A     -0.515806    23A     -0.511248    24A     -0.500139
      25A     -0.488138    26A     -0.447915    27A     -0.439705
      28A     -0.365264

  @DF-RHF Final Energy:  -309.10294010517475

   => Energetics <=

    Nuclear Repulsion Energy =            300.1912945453885868
    One-Electron Energy =               -1014.0476254688525160
    Two-Electron Energy =                 404.7533908182891764
    Total Energy =                       -309.1029401051747527
  Basis Set: (AUG-CC-PVTZ AUX)
    Blend: AUG-CC-PVTZ-RI
    Molecular point group: c1

    Geometry (in Angstrom), charge = 0, multiplicity = 1:

       Center              X                  Y                   Z               Mass
    ------------   -----------------  -----------------  -----------------  -----------------
         O           -0.857175025977    -0.214115951735    -0.292750988770    15.994914619570
         C            2.001474974023     0.296945048265    -0.545952988770    12.000000000000
         C           -2.139205025977    -0.210770951735     0.344736011230    12.000000000000
         C            1.375850974023    -0.854066951735     0.175632011230    12.000000000000
         C            2.749588974023     1.224852048265     0.412550011230    12.000000000000
         C            0.190662074023    -1.163624751735     0.393628111230    12.000000000000
         C           -3.038683025977     0.706450048265    -0.462345988770    12.000000000000
         H            2.698581974023    -0.076486951735    -1.302966988770     1.007825032230
         H            1.227842974023     0.855500048265    -1.074136988770     1.007825032230
         H           -2.541035025977    -1.238482951735     0.372100011230     1.007825032230
         H           -2.042306025977     0.147667048265     1.383169011230     1.007825032230
         H            2.023924974023    -1.592653951735     0.640534011230     1.007825032230
         H            3.232153974023     2.042026048265    -0.129024988770     1.007825032230
         H            2.059759974023     1.653843048265     1.141831011230     1.007825032230
         H            3.523751974023     0.679833048265     0.959308011230     1.007825032230
         H           -0.364201025977    -1.878742951735     0.866868011230     1.007825032230
         H           -4.041561025977     0.744030048265    -0.026644988770     1.007825032230
         H           -2.628847025977     1.720395048265    -0.478926988770     1.007825032230
         H           -3.114157025977     0.343814048265    -1.495252988770     1.007825032230

  Basis Set: AUG-CC-PVTZ
    Blend: AUG-CC-PVTZ
  Basis Set: (AUG-CC-PVTZ AUX)
    Blend: AUG-CC-PVTZ-JKFIT
	 Reference Energy          =    -309.1029401051747527 [Eh]
	 Singles Energy            =      -0.0000000000000000 [Eh]
	 Same-Spin Energy          =      -0.3139481628517753 [Eh]
	 Opposite-Spin Energy      =      -1.1015354257996082 [Eh]
	 Correlation Energy        =      -1.4154835886513835 [Eh]
	 Total Energy              =    -310.5184236938261506 [Eh]

	 ================> DF-SCS-MP2 Energies <==================
	-----------------------------------------------------------
	 SCS Same-Spin Scale       =       0.3333333333333333 [-]
	 SCS Opposite-Spin Scale   =       1.2000000000000000 [-]
	 SCS Same-Spin Energy      =      -0.1046493876172584 [Eh]
	 SCS Opposite-Spin Energy  =      -1.3218425109595298 [Eh]
	 SCS Correlation Energy    =      -1.4264918985767883 [Eh]
	 SCS Total Energy          =    -310.5294320037515376 [Eh]
	-----------------------------------------------------------

  Dipole Moment: [D]
     X:     0.1036      Y:    -0.5128      Z:     0.9451     Total:     1.0803

*** Psi4 exiting successfully. Buy a developer a beer!
