                               Psi4 1.3.2 release

  ==> Input File <==

--------------------------------------------------------------------------
#psi4
#
memory 32 gb

molecule  {
0 1
  O       -0.8411900    -0.2286010    -0.2822800
  C        2.0174600     0.2824600    -0.5354820
  C       -2.1232200    -0.2252560     0.3552070
  C        1.3918360    -0.8685520     0.1861030
  C        2.7880048     1.2062226     0.4091541
  C        0.0733200    -1.0572940     0.3167640
  C       -3.0226980     0.6919650    -0.4518750
  H        2.7285923    -0.0809108    -1.2843026
  H        1.2438280     0.8410150    -1.0636660
  H       -2.5250500    -1.2529680     0.3825710
  H       -2.0263210     0.1331820     1.3936400
  H        2.0399100    -1.6071390     0.6510050
  H        3.2481390     2.0275410    -0.1185540
  H        2.0757450     1.6393580     1.1523020
  H        3.5397370     0.6653480     0.9697790
  H       -0.3482160    -1.8932280     0.8773390
  H       -4.0255760     0.7295450    -0.0161740
  H       -2.6128620     1.7059100    -0.4684560
  H       -3.0981720     0.3293290    -1.4847820
units angstrom
no_reorient  #important for SAPT in psi4, default
symmetry c1  #important for SAPT in psi4, default
}

set PROPERTIES_ORIGIN ["COM"]
properties('MP2/aug-cc-pvtz', properties = ['dipole'])
--------------------------------------------------------------------------

    Molecular point group: c1
  Charge       = 0
  Multiplicity = 1
  Basis Set: AUG-CC-PVTZ
    Blend: AUG-CC-PVTZ
  Basis Set: (AUG-CC-PVTZ AUX)
    Blend: AUG-CC-PVTZ-JKFIT

    Orbital Energies [Eh]
    ---------------------

    Doubly Occupied:

       1A    -20.572454     2A    -11.286504     3A    -11.278557
       4A    -11.221142     5A    -11.214859     6A    -11.213719
       7A    -11.207243     8A     -1.393402     9A     -1.074653
      10A     -1.025138    11A     -0.967220    12A     -0.851309
      13A     -0.841408    14A     -0.754659    15A     -0.683855
      16A     -0.654637    17A     -0.642965    18A     -0.596418
      19A     -0.562849    20A     -0.557468    21A     -0.543056
      22A     -0.527851    23A     -0.506693    24A     -0.502932
      25A     -0.476113    26A     -0.474410    27A     -0.464592
      28A     -0.325723

  @DF-RHF Final Energy:  -309.14011260202699

   => Energetics <=

    Nuclear Repulsion Energy =            302.0201390722506289
    One-Electron Energy =               -1017.4768405480875799
    Two-Electron Energy =                 406.3165888738100193
    Total Energy =                       -309.1401126020269885
  Basis Set: (AUG-CC-PVTZ AUX)
    Blend: AUG-CC-PVTZ-RI
    Molecular point group: c1

    Geometry (in Angstrom), charge = 0, multiplicity = 1:

       Center              X                  Y                   Z               Mass
    ------------   -----------------  -----------------  -----------------  -----------------
         O           -0.844020503651    -0.228205405478    -0.280700026969    15.994914619570
         C            2.014629496349     0.282855594522    -0.533902026969    12.000000000000
         C           -2.126050503651    -0.224860405478     0.356786973031    12.000000000000
         C            1.389005496349    -0.868156405478     0.187682973031    12.000000000000
         C            2.785174296349     1.206618194522     0.410734073031    12.000000000000
         C            0.070489496349    -1.056898405478     0.318343973031    12.000000000000
         C           -3.025528503651     0.692360594522    -0.450295026969    12.000000000000
         H            2.725761796349    -0.080515205478    -1.282722626969     1.007825032230
         H            1.240997496349     0.841410594522    -1.062086026969     1.007825032230
         H           -2.527880503651    -1.252572405478     0.384150973031     1.007825032230
         H           -2.029151503651     0.133577594522     1.395219973031     1.007825032230
         H            2.037079496349    -1.606743405478     0.652584973031     1.007825032230
         H            3.245308496349     2.027936594522    -0.116974026969     1.007825032230
         H            2.072914496349     1.639753594522     1.153881973031     1.007825032230
         H            3.536906496349     0.665743594522     0.971358973031     1.007825032230
         H           -0.351046503651    -1.892832405478     0.878918973031     1.007825032230
         H           -4.028406503651     0.729940594522    -0.014594026969     1.007825032230
         H           -2.615692503651     1.706305594522    -0.466876026969     1.007825032230
         H           -3.101002503651     0.329724594522    -1.483202026969     1.007825032230

  Basis Set: AUG-CC-PVTZ
    Blend: AUG-CC-PVTZ
  Basis Set: (AUG-CC-PVTZ AUX)
    Blend: AUG-CC-PVTZ-JKFIT
	 Reference Energy          =    -309.1401126020269885 [Eh]
	 Singles Energy            =      -0.0000000000000000 [Eh]
	 Same-Spin Energy          =      -0.3138263780224134 [Eh]
	 Opposite-Spin Energy      =      -1.0992153795354720 [Eh]
	 Correlation Energy        =      -1.4130417575578855 [Eh]
	 Total Energy              =    -310.5531543595848802 [Eh]

	 ================> DF-SCS-MP2 Energies <==================
	-----------------------------------------------------------
	 SCS Same-Spin Scale       =       0.3333333333333333 [-]
	 SCS Opposite-Spin Scale   =       1.2000000000000000 [-]
	 SCS Same-Spin Energy      =      -0.1046087926741378 [Eh]
	 SCS Opposite-Spin Energy  =      -1.3190584554425664 [Eh]
	 SCS Correlation Energy    =      -1.4236672481167041 [Eh]
	 SCS Total Energy          =    -310.5637798501437032 [Eh]
	-----------------------------------------------------------

  Dipole Moment: [D]
     X:    -1.0952      Y:    -0.1945      Z:     0.7224     Total:     1.3264

*** Psi4 exiting successfully. Buy a developer a beer!
