                               Psi4 1.3.2 release

  ==> Input File <==

--------------------------------------------------------------------------
#psi4
#
memory 32 gb

molecule  {
0 1
  O       -0.8411900    -0.2286010    -0.2822800
  C        2.0174600     0.2824600    -0.5354820
  C       -2.1232200    -0.2252560     0.3552070
  C        1.3918360    -0.8685520     0.1861030
  C        2.7655740     1.2103670     0.4230210
  C        0.0733200    -1.0572940     0.3167640
  C       -3.0226980     0.6919650    -0.4518750
  H        2.7145670    -0.0909720    -1.2924960
  H        1.2438280     0.8410150    -1.0636660
  H       -2.5250500    -1.2529680     0.3825710
  H       -2.0263210     0.1331820     1.3936400
  H        2.1591470    -1.7430292     0.7365408
  H        3.2481390     2.0275410    -0.1185540
  H        2.0757450     1.6393580     1.1523020
  H        3.5397370     0.6653480     0.9697790
  H       -0.3482160    -1.8932280     0.8773390
  H       -4.0255760     0.7295450    -0.0161740
  H       -2.6128620     1.7059100    -0.4684560
  H       -3.0981720     0.3293290    -1.4847820
units angstrom
no_reorient  #important for SAPT in psi4, default
symmetry c1  #important for SAPT in psi4, default
}

set PROPERTIES_ORIGIN ["COM"]
properties('MP2/aug-cc-pvtz', properties = ['dipole'])
--------------------------------------------------------------------------

    Molecular point group: c1
  Charge       = 0
  Multiplicity = 1
  Basis Set: AUG-CC-PVTZ
    Blend: AUG-CC-PVTZ
  Basis Set: (AUG-CC-PVTZ AUX)
    Blend: AUG-CC-PVTZ-JKFIT

    Orbital Energies [Eh]
    ---------------------

    Doubly Occupied:

       1A    -20.574026     2A    -11.287467     3A    -11.280412
       4A    -11.235553     5A    -11.221877     6A    -11.217596
       7A    -11.207796     8A     -1.394875     9A     -1.073010
      10A     -1.025888    11A     -0.964712    12A     -0.851697
      13A     -0.842165    14A     -0.744444    15A     -0.681441
      16A     -0.655427    17A     -0.635261    18A     -0.598254
      19A     -0.558525    20A     -0.549173    21A     -0.542779
      22A     -0.517709    23A     -0.510990    24A     -0.502325
      25A     -0.480616    26A     -0.471325    27A     -0.458089
      28A     -0.327524

  @DF-RHF Final Energy:  -309.11950404744169

   => Energetics <=

    Nuclear Repulsion Energy =            301.2587806794698508
    One-Electron Energy =               -1015.9346572515759135
    Two-Electron Energy =                 405.5563725246643685
    Total Energy =                       -309.1195040474416942
  Basis Set: (AUG-CC-PVTZ AUX)
    Blend: AUG-CC-PVTZ-RI
    Molecular point group: c1

    Geometry (in Angstrom), charge = 0, multiplicity = 1:

       Center              X                  Y                   Z               Mass
    ------------   -----------------  -----------------  -----------------  -----------------
         O           -0.842390605095    -0.227232662676    -0.283141362764    15.994914619570
         C            2.016259394905     0.283828337324    -0.536343362764    12.000000000000
         C           -2.124420605095    -0.223887662676     0.354345637236    12.000000000000
         C            1.390635394905    -0.867183662676     0.185241637236    12.000000000000
         C            2.764373394905     1.211735337324     0.422159637236    12.000000000000
         C            0.072119394905    -1.055925662676     0.315902637236    12.000000000000
         C           -3.023898605095     0.693333337324    -0.452736362764    12.000000000000
         H            2.713366394905    -0.089603662676    -1.293357362764     1.007825032230
         H            1.242627394905     0.842383337324    -1.064527362764     1.007825032230
         H           -2.526250605095    -1.251599662676     0.381709637236     1.007825032230
         H           -2.027521605095     0.134550337324     1.392778637236     1.007825032230
         H            2.157946394905    -1.741660862676     0.735679437236     1.007825032230
         H            3.246938394905     2.028909337324    -0.119415362764     1.007825032230
         H            2.074544394905     1.640726337324     1.151440637236     1.007825032230
         H            3.538536394905     0.666716337324     0.968917637236     1.007825032230
         H           -0.349416605095    -1.891859662676     0.876477637236     1.007825032230
         H           -4.026776605095     0.730913337324    -0.017035362764     1.007825032230
         H           -2.614062605095     1.707278337324    -0.469317362764     1.007825032230
         H           -3.099372605095     0.330697337324    -1.485643362764     1.007825032230

  Basis Set: AUG-CC-PVTZ
    Blend: AUG-CC-PVTZ
  Basis Set: (AUG-CC-PVTZ AUX)
    Blend: AUG-CC-PVTZ-JKFIT
	 Reference Energy          =    -309.1195040474416942 [Eh]
	 Singles Energy            =      -0.0000000000000000 [Eh]
	 Same-Spin Energy          =      -0.3141165421670041 [Eh]
	 Opposite-Spin Energy      =      -1.1010522838748338 [Eh]
	 Correlation Energy        =      -1.4151688260418380 [Eh]
	 Total Energy              =    -310.5346728734835438 [Eh]

	 ================> DF-SCS-MP2 Energies <==================
	-----------------------------------------------------------
	 SCS Same-Spin Scale       =       0.3333333333333333 [-]
	 SCS Opposite-Spin Scale   =       1.2000000000000000 [-]
	 SCS Same-Spin Energy      =      -0.1047055140556680 [Eh]
	 SCS Opposite-Spin Energy  =      -1.3212627406498005 [Eh]
	 SCS Correlation Energy    =      -1.4259682547054686 [Eh]
	 SCS Total Energy          =    -310.5454723021471750 [Eh]
	-----------------------------------------------------------

  Dipole Moment: [D]
     X:    -1.1532      Y:    -0.0981      Z:     0.6725     Total:     1.3386

*** Psi4 exiting successfully. Buy a developer a beer!
