                               Psi4 1.3.2 release

  ==> Input File <==

--------------------------------------------------------------------------
#psi4
#
memory 32 gb

molecule  {
0 1
  O       -0.8411900    -0.2286010    -0.2822800
  C        2.0174600     0.2824600    -0.5354820
  C       -2.1232200    -0.2252560     0.3552070
  C        1.3918360    -0.8685520     0.1861030
  C        2.7655740     1.2103670     0.4230210
  C        0.0631222    -0.9987755     0.2796009
  C       -3.0226980     0.6919650    -0.4518750
  H        2.7145670    -0.0909720    -1.2924960
  H        1.2438280     0.8410150    -1.0636660
  H       -2.5250500    -1.2529680     0.3825710
  H       -2.0263210     0.1331820     1.3936400
  H        2.0846950    -1.5776777     0.6318963
  H        3.2481390     2.0275410    -0.1185540
  H        2.0757450     1.6393580     1.1523020
  H        3.5397370     0.6653480     0.9697790
  H       -0.3482160    -1.8932280     0.8773390
  H       -4.0255760     0.7295450    -0.0161740
  H       -2.6128620     1.7059100    -0.4684560
  H       -3.0981720     0.3293290    -1.4847820
units angstrom
no_reorient  #important for SAPT in psi4, default
symmetry c1  #important for SAPT in psi4, default
}

set PROPERTIES_ORIGIN ["COM"]
properties('MP2/aug-cc-pvtz', properties = ['dipole'])
--------------------------------------------------------------------------

    Molecular point group: c1
  Charge       = 0
  Multiplicity = 1
  Basis Set: AUG-CC-PVTZ
    Blend: AUG-CC-PVTZ
  Basis Set: (AUG-CC-PVTZ AUX)
    Blend: AUG-CC-PVTZ-JKFIT

    Orbital Energies [Eh]
    ---------------------

    Doubly Occupied:

       1A    -20.580538     2A    -11.292869     3A    -11.282455
       4A    -11.224945     5A    -11.209675     6A    -11.207425
       7A    -11.204671     8A     -1.420667     9A     -1.075006
      10A     -1.030828    11A     -0.962736    12A     -0.858057
      13A     -0.838230    14A     -0.758162    15A     -0.686347
      16A     -0.658511    17A     -0.653094    18A     -0.597649
      19A     -0.563341    20A     -0.558206    21A     -0.543402
      22A     -0.532760    23A     -0.507318    24A     -0.505595
      25A     -0.480413    26A     -0.472979    27A     -0.455612
      28A     -0.319577

  @DF-RHF Final Energy:  -309.13577976825405

   => Energetics <=

    Nuclear Repulsion Energy =            303.1764509361560727
    One-Electron Energy =               -1019.6623326231599549
    Two-Electron Energy =                 407.3501019187498855
    Total Energy =                       -309.1357797682540536
  Basis Set: (AUG-CC-PVTZ AUX)
    Blend: AUG-CC-PVTZ-RI
    Molecular point group: c1

    Geometry (in Angstrom), charge = 0, multiplicity = 1:

       Center              X                  Y                   Z               Mass
    ------------   -----------------  -----------------  -----------------  -----------------
         O           -0.840418274927    -0.235913626485    -0.277632050394    15.994914619570
         C            2.018231725073     0.275147373515    -0.530834050394    12.000000000000
         C           -2.122448274927    -0.232568626485     0.359854949606    12.000000000000
         C            1.392607725073    -0.875864626485     0.190750949606    12.000000000000
         C            2.766345725073     1.203054373515     0.427668949606    12.000000000000
         C            0.063893925073    -1.006088126485     0.284248849606    12.000000000000
         C           -3.021926274927     0.684652373515    -0.447227050394    12.000000000000
         H            2.715338725073    -0.098284626485    -1.287848050394     1.007825032230
         H            1.244599725073     0.833702373515    -1.059018050394     1.007825032230
         H           -2.524278274927    -1.260280626485     0.387218949606     1.007825032230
         H           -2.025549274927     0.125869373515     1.398287949606     1.007825032230
         H            2.085466725073    -1.584990326485     0.636544249606     1.007825032230
         H            3.248910725073     2.020228373515    -0.113906050394     1.007825032230
         H            2.076516725073     1.632045373515     1.156949949606     1.007825032230
         H            3.540508725073     0.658035373515     0.974426949606     1.007825032230
         H           -0.347444274927    -1.900540626485     0.881986949606     1.007825032230
         H           -4.024804274927     0.722232373515    -0.011526050394     1.007825032230
         H           -2.612090274927     1.698597373515    -0.463808050394     1.007825032230
         H           -3.097400274927     0.322016373515    -1.480134050394     1.007825032230

  Basis Set: AUG-CC-PVTZ
    Blend: AUG-CC-PVTZ
  Basis Set: (AUG-CC-PVTZ AUX)
    Blend: AUG-CC-PVTZ-JKFIT
	 Reference Energy          =    -309.1357797682540536 [Eh]
	 Singles Energy            =      -0.0000000000000000 [Eh]
	 Same-Spin Energy          =      -0.3140580189063716 [Eh]
	 Opposite-Spin Energy      =      -1.0986264144048472 [Eh]
	 Correlation Energy        =      -1.4126844333112190 [Eh]
	 Total Energy              =    -310.5484642015652526 [Eh]

	 ================> DF-SCS-MP2 Energies <==================
	-----------------------------------------------------------
	 SCS Same-Spin Scale       =       0.3333333333333333 [-]
	 SCS Opposite-Spin Scale   =       1.2000000000000000 [-]
	 SCS Same-Spin Energy      =      -0.1046860063021239 [Eh]
	 SCS Opposite-Spin Energy  =      -1.3183516972858167 [Eh]
	 SCS Correlation Energy    =      -1.4230377035879407 [Eh]
	 SCS Total Energy          =    -310.5588174718420191 [Eh]
	-----------------------------------------------------------

  Dipole Moment: [D]
     X:    -1.4474      Y:    -0.0512      Z:     0.6401     Total:     1.5834

*** Psi4 exiting successfully. Buy a developer a beer!
