                               Psi4 1.3.2 release

  ==> Input File <==

--------------------------------------------------------------------------
#psi4
#
memory 32 gb

molecule  {
0 1
  O       -0.8687011    -0.1812315    -0.3334481
  C        2.0174600     0.2824600    -0.5354820
  C       -2.1232200    -0.2252560     0.3552070
  C        1.3918360    -0.8685520     0.1861030
  C        2.7655740     1.2103670     0.4230210
  C        0.0733200    -1.0572940     0.3167640
  C       -2.9616038     0.7053576    -0.5008346
  H        2.7145670    -0.0909720    -1.2924960
  H        1.2438280     0.8410150    -1.0636660
  H       -2.5250500    -1.2529680     0.3825710
  H       -2.0263210     0.1331820     1.3936400
  H        2.0399100    -1.6071390     0.6510050
  H        3.2481390     2.0275410    -0.1185540
  H        2.0757450     1.6393580     1.1523020
  H        3.5397370     0.6653480     0.9697790
  H       -0.3482160    -1.8932280     0.8773390
  H       -4.0255760     0.7295450    -0.0161740
  H       -2.6128620     1.7059100    -0.4684560
  H       -3.0981720     0.3293290    -1.4847820
units angstrom
no_reorient  #important for SAPT in psi4, default
symmetry c1  #important for SAPT in psi4, default
}

set PROPERTIES_ORIGIN ["COM"]
properties('MP2/aug-cc-pvtz', properties = ['dipole'])
--------------------------------------------------------------------------

    Molecular point group: c1
  Charge       = 0
  Multiplicity = 1
  Basis Set: AUG-CC-PVTZ
    Blend: AUG-CC-PVTZ
  Basis Set: (AUG-CC-PVTZ AUX)
    Blend: AUG-CC-PVTZ-JKFIT

    Orbital Energies [Eh]
    ---------------------

    Doubly Occupied:

       1A    -20.570915     2A    -11.281858     3A    -11.281508
       4A    -11.221291     5A    -11.217409     6A    -11.216869
       7A    -11.209784     8A     -1.371627     9A     -1.076602
      10A     -1.018217    11A     -0.968560    12A     -0.849190
      13A     -0.840560    14A     -0.750416    15A     -0.678112
      16A     -0.652139    17A     -0.637467    18A     -0.597584
      19A     -0.561012    20A     -0.557084    21A     -0.542422
      22A     -0.513638    23A     -0.510954    24A     -0.493732
      25A     -0.482089    26A     -0.469535    27A     -0.464845
      28A     -0.334991

  @DF-RHF Final Energy:  -309.12608759373563

   => Energetics <=

    Nuclear Repulsion Energy =            301.5186237857164997
    One-Electron Energy =               -1016.5485989602791506
    Two-Electron Energy =                 405.9038875808270177
    Total Energy =                       -309.1260875937356332
  Basis Set: (AUG-CC-PVTZ AUX)
    Blend: AUG-CC-PVTZ-RI
    Molecular point group: c1

    Geometry (in Angstrom), charge = 0, multiplicity = 1:

       Center              X                  Y                   Z               Mass
    ------------   -----------------  -----------------  -----------------  -----------------
         O           -0.871629397355    -0.190407156560    -0.319401206422    15.994914619570
         C            2.014531702645     0.273284343440    -0.521435106422    12.000000000000
         C           -2.126148297355    -0.234431656560     0.369253893578    12.000000000000
         C            1.388907702645    -0.877727656560     0.200149893578    12.000000000000
         C            2.762645702645     1.201191343440     0.437067893578    12.000000000000
         C            0.070391702645    -1.066469656560     0.330810893578    12.000000000000
         C           -2.964532097355     0.696181943440    -0.486787706422    12.000000000000
         H            2.711638702645    -0.100147656560    -1.278449106422     1.007825032230
         H            1.240899702645     0.831839343440    -1.049619106422     1.007825032230
         H           -2.527978297355    -1.262143656560     0.396617893578     1.007825032230
         H           -2.029249297355     0.124006343440     1.407686893578     1.007825032230
         H            2.036981702645    -1.616314656560     0.665051893578     1.007825032230
         H            3.245210702645     2.018365343440    -0.104507106422     1.007825032230
         H            2.072816702645     1.630182343440     1.166348893578     1.007825032230
         H            3.536808702645     0.656172343440     0.983825893578     1.007825032230
         H           -0.351144297355    -1.902403656560     0.891385893578     1.007825032230
         H           -4.028504297355     0.720369343440    -0.002127106422     1.007825032230
         H           -2.615790297355     1.696734343440    -0.454409106422     1.007825032230
         H           -3.101100297355     0.320153343440    -1.470735106422     1.007825032230

  Basis Set: AUG-CC-PVTZ
    Blend: AUG-CC-PVTZ
  Basis Set: (AUG-CC-PVTZ AUX)
    Blend: AUG-CC-PVTZ-JKFIT
	 Reference Energy          =    -309.1260875937356332 [Eh]
	 Singles Energy            =      -0.0000000000000000 [Eh]
	 Same-Spin Energy          =      -0.3144940807777565 [Eh]
	 Opposite-Spin Energy      =      -1.1020238982333903 [Eh]
	 Correlation Energy        =      -1.4165179790111468 [Eh]
	 Total Energy              =    -310.5426055727467656 [Eh]

	 ================> DF-SCS-MP2 Energies <==================
	-----------------------------------------------------------
	 SCS Same-Spin Scale       =       0.3333333333333333 [-]
	 SCS Opposite-Spin Scale   =       1.2000000000000000 [-]
	 SCS Same-Spin Energy      =      -0.1048313602592522 [Eh]
	 SCS Opposite-Spin Energy  =      -1.3224286778800682 [Eh]
	 SCS Correlation Energy    =      -1.4272600381393203 [Eh]
	 SCS Total Energy          =    -310.5533476318749422 [Eh]
	-----------------------------------------------------------

  Dipole Moment: [D]
     X:    -0.6467      Y:    -0.3548      Z:     0.8253     Total:     1.1069

*** Psi4 exiting successfully. Buy a developer a beer!
