                               Psi4 1.4a3.dev225

  ==> Input File <==

--------------------------------------------------------------------------
#psi4
#
memory 32 gb

molecule  {
0 1
  O        0.9059480     0.1295110    -0.3069180
  C       -1.9753050    -0.3336000    -0.5537270
  C        2.1190110     0.1892690     0.4520280
  C       -1.3184330     0.9429980    -0.1246110
  C       -2.9908880    -0.8293550     0.4787900
  C        0.0027760     1.1130440     0.0171530
  C        3.0576820    -0.8509900    -0.1177330
  H       -2.5055882    -0.1771929    -1.5596459
  H       -1.2045440    -1.0918590    -0.7184600
  H        2.5525890     1.1965710     0.3749050
  H        1.9047370    -0.0062780     1.5110790
  H       -1.9523440     1.7996160     0.0958850
  H       -3.4787570    -1.7495600     0.1429400
  H       -2.4987140    -1.0317260     1.4340660
  H       -3.7695180    -0.0804100     0.6542360
  H        0.4396010     2.0570360     0.3475940
  H        4.0048870    -0.8497230     0.4289840
  H        2.6101410    -1.8440700    -0.0412770
  H        3.2577670    -0.6398860    -1.1701900
units angstrom
no_reorient  #important for SAPT in psi4, default
symmetry c1  #important for SAPT in psi4, default
}

set PROPERTIES_ORIGIN ["COM"]
properties('MP2/aug-cc-pvtz', properties = ['dipole'])
--------------------------------------------------------------------------

    Molecular point group: c1
  Charge       = 0
  Multiplicity = 1
  Basis Set: AUG-CC-PVTZ
    Blend: AUG-CC-PVTZ
  Basis Set: (AUG-CC-PVTZ AUX)
    Blend: AUG-CC-PVTZ-JKFIT

    Orbital Energies [Eh]
    ---------------------

    Doubly Occupied:

       1A    -20.572114     2A    -11.284568     3A    -11.278897
       4A    -11.222481     5A    -11.219674     6A    -11.215599
       7A    -11.209491     8A     -1.392241     9A     -1.073397
      10A     -1.025556    11A     -0.967273    12A     -0.850611
      13A     -0.840449    14A     -0.753532    15A     -0.684745
      16A     -0.652971    17A     -0.640229    18A     -0.595858
      19A     -0.563242    20A     -0.559400    21A     -0.540628
      22A     -0.526943    23A     -0.507318    24A     -0.502502
      25A     -0.476346    26A     -0.474637    27A     -0.461503
      28A     -0.327124

  @DF-RHF Final Energy:  -309.13902995266920

   => Energetics <=

    Nuclear Repulsion Energy =            300.9780154119524127
    One-Electron Energy =               -1015.3954313828966178
    Two-Electron Energy =                 405.2783860182749436
    Total Energy =                       -309.1390299526692047
  Basis Set: (AUG-CC-PVTZ AUX)
    Blend: AUG-CC-PVTZ-RI
    Molecular point group: c1

    Geometry (in Angstrom), charge = 0, multiplicity = 1:

       Center              X                  Y                   Z               Mass
    ------------   -----------------  -----------------  -----------------  -----------------
         O            0.900113904566     0.105417292693    -0.291187244787    15.994914619570
         C           -1.981139095434    -0.357693707307    -0.537996244787    12.000000000000
         C            2.113176904566     0.165175292693     0.467758755213    12.000000000000
         C           -1.324267095434     0.918904292693    -0.108880244787    12.000000000000
         C           -2.996722095434    -0.853448707307     0.494520755213    12.000000000000
         C           -0.003058095434     1.088950292693     0.032883755213    12.000000000000
         C            3.051847904566    -0.875083707307    -0.102002244787    12.000000000000
         H           -2.511422295434    -0.201286607307    -1.543915144787     1.007825032230
         H           -1.210378095434    -1.115952707307    -0.702729244787     1.007825032230
         H            2.546754904566     1.172477292693     0.390635755213     1.007825032230
         H            1.898902904566    -0.030371707307     1.526809755213     1.007825032230
         H           -1.958178095434     1.775522292693     0.111615755213     1.007825032230
         H           -3.484591095434    -1.773653707307     0.158670755213     1.007825032230
         H           -2.504548095434    -1.055819707307     1.449796755213     1.007825032230
         H           -3.775352095434    -0.104503707307     0.669966755213     1.007825032230
         H            0.433766904566     2.032942292693     0.363324755213     1.007825032230
         H            3.999052904566    -0.873816707307     0.444714755213     1.007825032230
         H            2.604306904566    -1.868163707307    -0.025546244787     1.007825032230
         H            3.251932904566    -0.663979707307    -1.154459244787     1.007825032230

  Basis Set: AUG-CC-PVTZ
    Blend: AUG-CC-PVTZ
  Basis Set: (AUG-CC-PVTZ AUX)
    Blend: AUG-CC-PVTZ-JKFIT
	 Reference Energy          =    -309.1390299526692047 [Eh]
	 Singles Energy            =      -0.0000000000000000 [Eh]
	 Same-Spin Energy          =      -0.3137428678949146 [Eh]
	 Opposite-Spin Energy      =      -1.0994276299690093 [Eh]
	 Correlation Energy        =      -1.4131704978639239 [Eh]
	 Total Energy              =    -310.5522004505331211 [Eh]

	 ================> DF-SCS-MP2 Energies <==================
	-----------------------------------------------------------
	 SCS Same-Spin Scale       =       0.3333333333333333 [-]
	 SCS Opposite-Spin Scale   =       1.2000000000000000 [-]
	 SCS Same-Spin Energy      =      -0.1045809559649715 [Eh]
	 SCS Opposite-Spin Energy  =      -1.3193131559628111 [Eh]
	 SCS Correlation Energy    =      -1.4238941119277826 [Eh]
	 SCS Total Energy          =    -310.5629240645969844 [Eh]
	-----------------------------------------------------------

  Dipole Moment: [D]
     X:     1.0385      Y:     0.2931      Z:     0.7960     Total:     1.3409

*** Psi4 exiting successfully. Buy a developer a beer!
